Title
82299
    1SAPS     N    1   4.161   2.560  22.715 -0.1263 -0.0269  0.4058
    1SAPS   HN1    2   4.161   2.462  22.749  0.1788  0.8606  3.1959
    1SAPS   HN2    3   4.060   2.587  22.721 -0.3140 -0.6685  0.3111
    1SAPS   HN3    4   4.207   2.568  22.622 -2.4720  3.1724 -0.6609
    1SAPS   C12    5   4.242   2.642  22.815  0.1688  0.3296  0.0218
    1SAPS  H12A    6   4.222   2.747  22.801  3.2066  0.8054 -1.4449
    1SAPS   C13    7   4.196   2.616  22.962  0.1943  0.1774 -0.7618
    1SAPS  O13A    8   4.103   2.533  22.990  0.1979 -0.2097  0.4113
    1SAPS  O13B    9   4.248   2.700  23.043 -0.2885 -0.2674 -0.5322
    1SAPS   C11   10   4.398   2.620  22.796 -0.9157 -0.5575 -0.0501
    1SAPS  H11A   11   4.411   2.510  22.795 -2.4564 -0.7714 -1.3364
    1SAPS  H11B   12   4.462   2.669  22.873 -1.0661 -1.9747  1.0038
    1SAPS     P   13   4.488   2.808  22.625 -0.1699  0.1751  0.2849
    1SAPS   O13   14   4.490   2.816  22.477  0.0043  0.2879  0.2428
    1SAPS   O14   15   4.407   2.902  22.699  0.4091 -0.2255 -0.1896
    1SAPS   O12   16   4.444   2.661  22.663  0.3146 -0.1733 -0.4010
    1SAPS   O11   17   4.637   2.811  22.684  0.6907 -0.0736  0.7859
    1SAPS    C1   18   4.743   2.788  22.596 -0.1322 -0.3056 -0.3279
    1SAPS    HA   19   4.744   2.683  22.559 -1.3474 -0.8011  0.9670
    1SAPS    HB   20   4.738   2.851  22.504 -0.5628 -1.2206 -0.9553
    1SAPS    C2   21   4.872   2.836  22.663  0.2048 -0.0340 -0.2421
    1SAPS    HS   22   4.961   2.831  22.597 -0.1017 -0.3590 -0.6380
    1SAPS   O21   23   4.892   2.771  22.782  0.2340 -0.0016  0.2731
    1SAPS   C21   24   4.915   2.643  22.781  0.4654  0.1527  1.2083
    1SAPS   O22   25   4.930   2.581  22.673 -0.1677  0.2375 -0.2613
    1SAPS   C22   26   4.915   2.590  22.920  0.5720 -0.6250 -0.3147
    1SAPS   H2R   27   4.985   2.653  22.977 -3.0306  3.7615 -0.1875
    1SAPS   H2S   28   4.814   2.596  22.967 -0.2427 -1.2048 -1.8843
    1SAPS    C3   29   4.866   2.992  22.695  0.6265 -0.1115  0.3571
    1SAPS    HX   30   4.807   3.008  22.789 -1.1799  1.3705 -0.9368
    1SAPS    HY   31   4.811   3.040  22.611 -1.1663 -3.3075 -0.4355
    1SAPS   O31   32   4.999   3.044  22.706  0.5545  0.4694 -0.5090
    1SAPS   C31   33   5.042   3.079  22.826  0.3905 -0.2121 -0.1442
    1SAPS   O32   34   4.977   3.082  22.929 -0.0656  0.3215 -0.0050
    1SAPS   C32   35   5.193   3.096  22.826  0.2431 -0.4629  0.2965
    1SAPS   H2X   36   5.217   3.166  22.909  0.9163  0.7600 -0.8952
    1SAPS   H2Y   37   5.219   3.143  22.728 -0.8871 -0.4144  0.0051
    1SAPS   C23   38   4.968   2.440  22.931 -0.0643 -0.3886 -0.4567
    1SAPS   H3R   39   5.067   2.436  22.881 -0.4367 -0.1169 -1.2462
    1SAPS   H3S   40   4.903   2.386  22.859  0.0793 -0.2177 -0.7153
    1SAPS   C24   41   4.973   2.389  23.068 -0.3823 -0.3228 -0.0465
    1SAPS   H4R   42   4.873   2.394  23.116 -1.8116  2.1994 -2.9159
    1SAPS   H4S   43   5.019   2.466  23.134  1.3689  0.0934 -1.6543
    1SAPS   C25   44   5.045   2.261  23.107 -0.0686  0.8175  0.1645
    1SAPS   H5R   45   4.982   2.178  23.141  0.5715  1.0345  1.9460
    1SAPS   C26   46   5.174   2.235  23.089  0.6573 -0.2152  0.3360
    1SAPS   H6R   47   5.215   2.141  23.127  0.2250  0.3800  2.3666
    1SAPS   C27   48   5.279   2.334  23.036 -0.5149 -0.1064 -0.5006
    1SAPS   H7R   49   5.256   2.443  23.045 -0.0718 -0.0640  0.1657
    1SAPS   H7S   50   5.301   2.314  22.930  1.9379 -3.9400  0.5521
    1SAPS   C28   51   5.413   2.315  23.111  0.8685 -0.7972 -0.5525
    1SAPS   H8R   52   5.432   2.387  23.192 -1.5008 -1.7322  0.9503
    1SAPS   C29   53   5.490   2.206  23.111  0.5760  0.0576 -0.4554
    1SAPS   H9R   54   5.584   2.205  23.168  1.3906 -0.8054 -1.7708
    1SAPS  C210   55   5.482   2.082  23.020 -0.7230  0.0611  0.3121
    1SAPS  H10R   56   5.382   2.074  22.972 -1.0053  0.1130  0.8761
    1SAPS  H10S   57   5.488   1.982  23.069  1.0691  0.4663  1.0189
    1SAPS  C211   58   5.591   2.086  22.912 -0.2831 -0.0869  0.0618
    1SAPS  H11R   59   5.552   2.091  22.809  2.1726 -0.5217 -0.9553
    1SAPS  C212   60   5.727   2.087  22.923  0.1241  0.4599 -0.0348
    1SAPS  H12R   61   5.786   2.094  22.831 -0.9687  2.2015 -0.6557
    1SAPS  C213   62   5.806   2.073  23.056  0.6168  0.4872  0.6588
    1SAPS  H13R   63   5.813   1.967  23.089  0.2181 -0.5170 -2.1790
    1SAPS  H13S   64   5.753   2.128  23.137  0.2379  1.9233 -0.5080
    1SAPS  C214   65   5.948   2.120  23.052  0.3894  0.5131  0.4799
    1SAPS  H14R   66   5.968   2.214  23.106 -2.0702  1.6647 -0.5004
    1SAPS  C215   67   6.053   2.052  22.999  0.3965  0.5275  0.0891
    1SAPS  H15R   68   6.155   2.088  23.018  0.0284  1.0621  1.1395
    1SAPS  C216   69   6.051   1.914  22.936  0.3514 -0.3984  0.0412
    1SAPS  H16R   70   5.943   1.890  22.925  0.0149  0.8434  0.4439
    1SAPS  H16S   71   6.104   1.837  22.997  1.8350  0.5492 -0.0253
    1SAPS  C217   72   6.117   1.911  22.790 -0.0534  0.3720 -0.1750
    1SAPS  H17R   73   6.115   1.807  22.751 -1.8071  0.1657  0.3712
    1SAPS  H17S   74   6.224   1.940  22.795  0.1814 -0.4049 -0.6405
    1SAPS  C218   75   6.051   2.013  22.691  0.1607  0.6077  0.0341
    1SAPS  H18R   76   6.004   2.095  22.749 -2.7588 -0.4196 -0.7078
    1SAPS  H18S   77   5.973   1.962  22.631 -0.5218  0.6158  0.8936
    1SAPS  C219   78   6.154   2.061  22.585  0.7188 -0.2228  0.4664
    1SAPS  H19R   79   6.087   2.129  22.527 -0.7880 -2.7174 -0.8969
    1SAPS  H19S   80   6.193   1.986  22.514  0.5617  0.6835 -0.6195
    1SAPS  C220   81   6.276   2.129  22.640  0.2792  0.0636 -0.1929
    1SAPS  H20R   82   6.253   2.232  22.677  0.8971 -0.2240  1.0316
    1SAPS  H20S   83   6.352   2.127  22.559  1.5382  1.8631  0.8559
    1SAPS  H20T   84   6.342   2.087  22.719  2.4583  0.5142 -1.6552
    1SAPS   C33   85   5.270   2.965  22.843  0.6019 -0.2640  0.1586
    1SAPS   H3X   86   5.230   2.881  22.782 -1.2697 -0.4515  1.5514
    1SAPS   H3Y   87   5.266   2.937  22.951 -0.3480  2.5736  0.9369
    1SAPS   C34   88   5.411   2.972  22.799 -0.0323 -0.3024  0.7599
    1SAPS   H4X   89   5.402   2.975  22.689 -2.3823 -0.7251  0.8911
    1SAPS   H4Y   90   5.466   2.889  22.850 -0.7833 -1.3656 -0.1178
    1SAPS   C35   91   5.489   3.096  22.845 -0.9278 -0.8694 -0.0110
    1SAPS   H5X   92   5.449   3.128  22.944 -0.0450  0.1103  0.0506
    1SAPS   H5Y   93   5.478   3.176  22.770 -4.0443  0.6114  1.8307
    1SAPS   C36   94   5.640   3.063  22.873 -0.0762 -0.1131 -0.9723
    1SAPS   H6X   95   5.693   3.018  22.786  1.5343  0.4627 -0.3374
    1SAPS   H6Y   96   5.649   2.986  22.953 -1.5789 -0.9159 -1.5413
    1SAPS   C37   97   5.711   3.190  22.918 -0.2141 -0.7307  0.0627
    1SAPS   H7X   98   5.671   3.236  23.012 -0.0904 -0.5285  0.0173
    1SAPS   H7Y   99   5.704   3.266  22.837  1.1472 -1.3366 -0.6480
    1SAPS   C38  100   5.861   3.175  22.954 -0.1146  0.1491 -0.6180
    1SAPS   H8X  101   5.916   3.124  22.872  1.2681 -3.6261  2.3327
    1SAPS   H8Y  102   5.860   3.105  23.041 -3.1580 -2.5843 -2.5964
    1SAPS   C39  103   5.920   3.314  22.993  0.2655 -1.0213 -0.7565
    1SAPS   H9X  104   5.877   3.357  23.086  1.9872 -1.0873  0.1185
    1SAPS   H9Y  105   5.901   3.376  22.904 -1.8612 -1.5074 -0.6847
    1SAPS  C310  106   6.075   3.301  23.016 -0.2706 -0.8172  0.0715
    1SAPS  H10X  107   6.120   3.270  22.919 -2.1082 -0.9882 -0.7596
    1SAPS  H10Y  108   6.089   3.223  23.094  4.2889  1.4822  1.9961
    1SAPS  C311  109   6.149   3.420  23.070 -0.1011 -0.6611 -0.2842
    1SAPS  H11X  110   6.126   3.451  23.174 -1.8518 -0.2572 -0.7428
    1SAPS  H11Y  111   6.117   3.505  23.005  0.0794  0.0000  0.4819
    1SAPS  C312  112   6.303   3.402  23.062 -1.0762 -0.5595 -0.8980
    1SAPS  H12X  113   6.334   3.361  22.963  0.8061  1.3011 -1.1384
    1SAPS  H12Y  114   6.343   3.329  23.136  1.8558  1.5627 -0.1837
    1SAPS  C313  115   6.375   3.548  23.070  0.5697 -0.0201  0.3515
    1SAPS  H13X  116   6.313   3.597  23.148  1.6991  0.3340  1.0414
    1SAPS  H13Y  117   6.347   3.597  22.975  0.8745  1.0039  0.7797
    1SAPS  C314  118   6.519   3.550  23.108 -0.0727  0.2117  0.7673
    1SAPS  H14X  119   6.559   3.455  23.150  1.2401  0.0255 -0.8302
    1SAPS  H14Y  120   6.531   3.617  23.195  0.0738  0.4999  0.5260
    1SAPS  C315  121   6.605   3.581  22.989  0.1895  0.2092 -0.4716
    1SAPS  H15X  122   6.574   3.680  22.950  0.5413  1.2151  1.6429
    1SAPS  H15Y  123   6.607   3.504  22.909 -2.2178  0.0799 -0.4623
    1SAPS  C316  124   6.748   3.616  23.037 -0.0168  0.7575  0.2974
    1SAPS  H16X  125   6.782   3.552  23.122 -1.3081 -0.0233  0.2572
    1SAPS  H16Y  126   6.740   3.719  23.076 -4.4612  0.3138  1.0130
    1SAPS  C317  127   6.850   3.624  22.917  0.3552  0.3960  0.4463
    1SAPS  H17X  128   6.942   3.681  22.941 -0.0055  1.1461  0.0794
    1SAPS  H17Y  129   6.793   3.673  22.834  0.3611 -0.7014 -0.2331
    1SAPS  C318  130   6.895   3.490  22.862 -0.2089 -0.0881 -0.0505
    1SAPS  H18X  131   6.965   3.439  22.931  1.9870  2.3837 -0.3071
    1SAPS  H18Y  132   6.948   3.493  22.765 -2.0418 -0.2288 -1.1103
    1SAPS  H18Z  133   6.805   3.425  22.851  0.3716 -1.1089  1.0326
    2SAPS     N  134   4.102   2.056  22.461 -0.2671 -0.3034  0.2065
    2SAPS   HN1  135   4.051   2.126  22.403  1.2270  1.1383  0.5428
    2SAPS   HN2  136   4.192   2.019  22.424  1.3944  3.9821 -0.6418
    2SAPS   HN3  137   4.047   1.969  22.472 -0.2781 -0.2281  0.7910
    2SAPS   C12  138   4.125   2.110  22.598  0.3781  0.2168  0.5414
    2SAPS  H12A  139   4.200   2.046  22.641  0.5929 -0.3911 -0.7261
    2SAPS   C13  140   4.175   2.253  22.607 -0.3022 -0.6451 -0.2655
    2SAPS  O13A  141   4.219   2.311  22.505  0.2456  0.1872  0.5398
    2SAPS  O13B  142   4.219   2.289  22.721 -0.6480  0.4386 -0.6553
    2SAPS   C11  143   4.007   2.086  22.692 -0.8886  0.5078 -0.0535
    2SAPS  H11A  144   3.920   2.126  22.637  0.1923  0.5070 -1.8577
    2SAPS  H11B  145   4.023   2.129  22.793  0.0749 -0.7522  0.3607
    2SAPS     P  146   3.877   1.857  22.645 -0.2881  0.3407 -0.2159
    2SAPS   O13  147   3.903   1.856  22.498 -0.5630  0.6554  0.4202
    2SAPS   O14  148   3.862   1.727  22.719 -0.5476 -0.3418 -0.0995
    2SAPS   O12  149   3.991   1.946  22.713 -0.4988  0.1535  0.5023
    2SAPS   O11  150   3.751   1.947  22.680  0.1720  0.3781  0.5547
    2SAPS    C1  151   3.724   1.999  22.813  0.1836  0.2104 -0.7620
    2SAPS    HA  152   3.706   1.924  22.893 -0.6676  0.4156 -0.7573
    2SAPS    HB  153   3.793   2.075  22.857  0.3278  0.9149 -2.1468
    2SAPS    C2  154   3.590   2.083  22.803  0.3600  0.3928  0.1953
    2SAPS    HS  155   3.540   2.069  22.902 -0.2575 -1.5527 -0.3583
    2SAPS   O21  156   3.506   2.029  22.699  0.2319 -0.9863  0.2870
    2SAPS   C21  157   3.476   1.897  22.713 -0.0276  0.4927  0.1359
    2SAPS   O22  158   3.491   1.826  22.811  0.7260  0.5259 -0.1257
    2SAPS   C22  159   3.425   1.850  22.570  0.3597 -0.5043 -0.4747
    2SAPS   H2R  160   3.363   1.935  22.533 -2.0382 -1.2800  1.4772
    2SAPS   H2S  161   3.519   1.837  22.512  1.0130 -1.9225  0.8408
    2SAPS    C3  162   3.621   2.231  22.772 -0.4326  0.0587  0.8448
    2SAPS    HX  163   3.685   2.234  22.681 -3.0208  0.2905 -1.0888
    2SAPS    HY  164   3.687   2.268  22.853 -2.4576 -0.7162  2.9549
    2SAPS   O31  165   3.508   2.318  22.759 -0.0522  0.2566  0.2746
    2SAPS   C31  166   3.461   2.363  22.877  0.6843  0.3358 -0.2958
    2SAPS   O32  167   3.515   2.336  22.979  0.0337 -0.2113 -0.5358
    2SAPS   C32  168   3.328   2.442  22.873  0.5888 -0.1731 -0.2059
    2SAPS   H2X  169   3.352   2.544  22.837  0.4759 -0.5715 -1.4398
    2SAPS   H2Y  170   3.288   2.452  22.977  2.6821  0.3267  0.5903
    2SAPS   C23  171   3.340   1.714  22.558 -0.6464 -0.3824 -0.2910
    2SAPS   H3R  172   3.368   1.650  22.644 -1.6844  1.3927  1.4305
    2SAPS   H3S  173   3.385   1.664  22.469  0.7014 -1.2286  0.8324
    2SAPS   C24  174   3.195   1.735  22.553 -0.4968 -0.2626  0.1947
    2SAPS   H4R  175   3.150   1.634  22.544 -0.7247 -0.2830  1.4251
    2SAPS   H4S  176   3.180   1.789  22.457  2.4680  0.7017  0.1787
    2SAPS   C25  177   3.130   1.800  22.673 -1.1629 -0.2849  0.4339
    2SAPS   H5R  178   3.160   1.755  22.768  0.0040 -0.7654 -0.1375
    2SAPS   C26  179   3.028   1.896  22.662  0.3895  0.2378 -0.2224
    2SAPS   H6R  180   2.991   1.938  22.756  0.0891 -1.9855  0.7268
    2SAPS   C27  181   2.963   1.945  22.538  0.2138 -0.4063 -0.0032
    2SAPS   H7R  182   3.028   1.976  22.454 -1.2124 -0.5039 -1.1816
    2SAPS   H7S  183   2.911   2.038  22.572  0.9802  1.3534 -3.1807
    2SAPS   C28  184   2.875   1.826  22.498  0.1895 -0.4451 -0.2186
    2SAPS   H8R  185   2.916   1.725  22.515 -0.2014 -0.6419 -0.4328
    2SAPS   C29  186   2.746   1.839  22.478  0.6447 -0.7246 -0.0518
    2SAPS   H9R  187   2.688   1.756  22.433 -0.5359 -0.1956  0.4546
    2SAPS  C210  188   2.669   1.969  22.486  0.6339  0.3606 -0.3019
    2SAPS  H10R  189   2.728   2.063  22.485 -1.5260  1.7932 -0.7011
    2SAPS  H10S  190   2.615   1.964  22.583  1.6345  0.7840  0.2927
    2SAPS  C211  191   2.570   1.971  22.366  0.7944  0.1768 -0.4623
    2SAPS  H11R  192   2.629   1.943  22.278  2.0201  0.0548  0.3782
    2SAPS  C212  193   2.438   2.000  22.356  0.7573 -0.3978  0.7070
    2SAPS  H12R  194   2.402   2.024  22.255  0.8494 -0.4562  0.6615
    2SAPS  C213  195   2.336   2.021  22.464  0.6413  0.0505  0.7875
    2SAPS  H13R  196   2.315   2.129  22.479  0.1310 -0.0829  1.0435
    2SAPS  H13S  197   2.367   1.981  22.563 -2.5335 -3.5467  0.5839
    2SAPS  C214  198   2.206   1.970  22.417  0.0666  0.1591  0.0992
    2SAPS  H14R  199   2.157   2.036  22.344 -0.5825 -0.2590  0.1435
    2SAPS  C215  200   2.134   1.865  22.465 -0.5425 -0.5005 -0.1357
    2SAPS  H15R  201   2.052   1.834  22.399  0.3315 -4.2802  0.3032
    2SAPS  C216  202   2.179   1.769  22.573  0.0366 -0.3894  0.2813
    2SAPS  H16R  203   2.117   1.780  22.664  0.2360  1.9915  0.1828
    2SAPS  H16S  204   2.288   1.767  22.592 -0.0632  1.0363  1.1584
    2SAPS  C217  205   2.142   1.628  22.527 -0.5944 -0.0403 -0.4976
    2SAPS  H17R  206   2.182   1.560  22.605 -1.6901  0.2009  0.2970
    2SAPS  H17S  207   2.190   1.602  22.431  0.4843  2.8901 -0.8771
    2SAPS  C218  208   1.993   1.583  22.537 -0.0014 -0.5622 -0.9483
    2SAPS  H18R  209   1.928   1.641  22.468  0.8158  2.1388  0.3986
    2SAPS  H18S  210   1.957   1.598  22.641 -0.0195 -0.3854 -0.9813
    2SAPS  C219  211   1.970   1.433  22.515 -0.2392 -0.2511  0.1150
    2SAPS  H19R  212   2.046   1.402  22.440 -1.9321  0.9157 -2.1872
    2SAPS  H19S  213   1.876   1.425  22.457 -0.3108  1.3723 -0.0382
    2SAPS  C220  214   1.976   1.341  22.638  0.2728 -0.0642 -0.3460
    2SAPS  H20R  215   2.053   1.375  22.710  1.7011 -1.4876 -1.1430
    2SAPS  H20S  216   2.008   1.236  22.625  0.1443  0.1565 -3.1341
    2SAPS  H20T  217   1.874   1.334  22.680  1.7548 -1.6800  3.4471
    2SAPS   C33  218   3.228   2.370  22.777 -0.2180  0.0307  0.2034
    2SAPS   H3X  219   3.184   2.279  22.822 -0.3320  0.3133  0.6717
    2SAPS   H3Y  220   3.295   2.347  22.691 -1.7916  0.8290 -1.3059
    2SAPS   C34  221   3.110   2.462  22.729 -0.6585 -0.1770  0.8403
    2SAPS   H4X  222   3.144   2.555  22.679 -1.2726 -0.2782  0.2127
    2SAPS   H4Y  223   3.056   2.487  22.823 -1.6801  0.1658  0.1781
    2SAPS   C35  224   3.028   2.384  22.621  0.8468  0.2995  0.5467
    2SAPS   H5X  225   3.020   2.282  22.664  2.2187  0.4653  1.2428
    2SAPS   H5Y  226   3.078   2.381  22.522 -0.0475  2.7207 -0.0473
    2SAPS   C36  227   2.889   2.455  22.614 -0.2283  0.4629 -0.3113
    2SAPS   H6X  228   2.903   2.561  22.583 -3.1583  1.0891  0.2259
    2SAPS   H6Y  229   2.846   2.461  22.716 -0.2327  1.1198 -0.3479
    2SAPS   C37  230   2.802   2.393  22.507  0.5082  0.0182  0.3702
    2SAPS   H7X  231   2.801   2.282  22.512 -2.8291 -0.0198  1.0646
    2SAPS   H7Y  232   2.839   2.418  22.405 -1.2269  1.4600  0.0228
    2SAPS   C38  233   2.650   2.428  22.529 -0.6371  0.6424 -0.0424
    2SAPS   H8X  234   2.588   2.397  22.442 -1.3847  2.4091 -0.1760
    2SAPS   H8Y  235   2.654   2.539  22.519  1.6299  0.4980 -1.6266
    2SAPS   C39  236   2.580   2.379  22.656  0.2217  0.7657  0.4980
    2SAPS   H9X  237   2.645   2.403  22.743 -1.3658  1.4744  1.5256
    2SAPS   H9Y  238   2.556   2.273  22.636 -0.5623  0.7936  1.2056
    2SAPS  C310  239   2.447   2.448  22.679  0.1138  0.4225  1.1358
    2SAPS  H10X  240   2.472   2.555  22.696  3.7087 -0.2003  0.6002
    2SAPS  H10Y  241   2.423   2.408  22.780  0.0496 -1.5121  0.4028
    2SAPS  C311  242   2.341   2.426  22.576  0.6548 -0.1889  0.6437
    2SAPS  H11X  243   2.381   2.349  22.506  1.4327  0.1841  0.6620
    2SAPS  H11Y  244   2.331   2.517  22.513 -1.1274  0.1477  1.3724
    2SAPS  C312  245   2.198   2.399  22.639 -0.9797  0.6799 -0.4068
    2SAPS  H12X  246   2.171   2.470  22.720 -0.6381 -1.2294  1.4429
    2SAPS  H12Y  247   2.206   2.296  22.678 -0.4556  0.8414 -0.0756
    2SAPS  C313  248   2.091   2.429  22.531  0.6819  0.6880  0.3077
    2SAPS  H13X  249   2.101   2.532  22.490 -1.1139  0.1149 -1.7432
    2SAPS  H13Y  250   1.991   2.424  22.579  0.9767  0.3188  0.8940
    2SAPS  C314  251   2.099   2.338  22.409  0.6030  0.7747  0.5736
    2SAPS  H14X  252   2.114   2.230  22.431  2.2891  0.9328  0.3168
    2SAPS  H14Y  253   2.192   2.370  22.357  0.2951 -2.4221 -2.2813
    2SAPS  C315  254   1.980   2.361  22.310  0.0414 -0.1608 -0.7886
    2SAPS  H15X  255   1.970   2.469  22.290 -0.1510  0.2107  1.1041
    2SAPS  H15Y  256   1.890   2.321  22.362 -1.4503  1.2750 -2.1698
    2SAPS  C316  257   1.987   2.281  22.178 -0.9855 -0.0014  1.0356
    2SAPS  H16X  258   1.980   2.173  22.203 -0.0349 -0.4201 -0.3760
    2SAPS  H16Y  259   2.092   2.295  22.143 -0.5237 -0.7615  2.0712
    2SAPS  C317  260   1.886   2.318  22.072  0.5318  0.0439 -0.0581
    2SAPS  H17X  261   1.908   2.425  22.052  1.9322 -0.5033 -1.7075
    2SAPS  H17Y  262   1.785   2.332  22.117  1.0727  0.7751  0.9632
    2SAPS  C318  263   1.884   2.217  21.945  0.0068  0.3334 -0.2974
    2SAPS  H18X  264   1.980   2.219  21.889 -0.0783 -2.7331 -0.7065
    2SAPS  H18Y  265   1.802   2.247  21.876 -0.9464  0.4081  0.8520
    2SAPS  H18Z  266   1.865   2.113  21.976 -2.9049  0.8796  0.0022
    3SAPS     N  267   4.118   1.667  24.132 -0.4270  0.0644 -0.2635
    3SAPS   HN1  268   4.053   1.747  24.120  1.2055  1.5678  0.4776
    3SAPS   HN2  269   4.193   1.725  24.175 -1.4585  0.8507  0.5119
    3SAPS   HN3  270   4.146   1.622  24.043  0.9878  0.0892  0.1514
    3SAPS   C12  271   4.078   1.563  24.236 -0.0458 -0.6873  0.7133
    3SAPS  H12A  272   4.149   1.481  24.236  0.1120 -0.5594  1.1747
    3SAPS   C13  273   4.064   1.600  24.385 -0.1188 -0.3500 -0.3493
    3SAPS  O13A  274   4.122   1.706  24.415 -0.5507 -0.3200  0.0612
    3SAPS  O13B  275   4.039   1.505  24.464 -0.5176  0.0161  0.0471
    3SAPS   C11  276   3.934   1.519  24.179 -0.0812  1.0673  0.4501
    3SAPS  H11A  277   3.856   1.596  24.196 -2.2197 -0.6120 -1.0717
    3SAPS  H11B  278   3.908   1.434  24.246 -1.3889  1.4314  0.4187
    3SAPS     P  279   3.848   1.520  23.924 -0.5304 -0.0550 -0.1690
    3SAPS   O13  280   3.900   1.648  23.866 -0.2536  0.0938  0.5902
    3SAPS   O14  281   3.840   1.407  23.829 -0.0126 -0.5573 -0.1127
    3SAPS   O12  282   3.934   1.462  24.044 -0.3487  0.0127  0.0701
    3SAPS   O11  283   3.706   1.534  23.989  0.5126 -0.1039 -0.5430
    3SAPS    C1  284   3.637   1.415  24.030  0.8967  0.5572 -0.0586
    3SAPS    HA  285   3.606   1.355  23.942  0.5562 -1.8745  1.6163
    3SAPS    HB  286   3.701   1.349  24.092 -1.5204 -0.4220  1.5438
    3SAPS    C2  287   3.517   1.443  24.127  0.3663 -0.2958  0.0872
    3SAPS    HS  288   3.476   1.345  24.158  0.4578  0.8518  4.4330
    3SAPS   O21  289   3.418   1.536  24.061  0.3837  0.7578  0.6893
    3SAPS   C21  290   3.359   1.485  23.958 -0.4788 -0.0270 -0.7343
    3SAPS   O22  291   3.382   1.377  23.905 -0.7130  0.0014  0.6895
    3SAPS   C22  292   3.265   1.586  23.902  0.1195 -0.2357  0.1736
    3SAPS   H2R  293   3.325   1.677  23.882  0.0351  0.5335  3.0306
    3SAPS   H2S  294   3.212   1.540  23.815 -0.5928 -2.3270  1.6218
    3SAPS    C3  295   3.578   1.512  24.261 -0.2296  0.4335  0.9113
    3SAPS    HX  296   3.627   1.611  24.244 -0.8575  0.7519  0.9306
    3SAPS    HY  297   3.658   1.444  24.298 -0.0527  0.7020  1.0242
    3SAPS   O31  298   3.477   1.542  24.359 -1.0754 -0.0464 -0.2364
    3SAPS   C31  299   3.465   1.451  24.454 -0.5392  0.0382 -0.7866
    3SAPS   O32  300   3.531   1.346  24.467  0.0667  0.5439 -0.9755
    3SAPS   C32  301   3.354   1.502  24.552  0.1005  0.4641  0.5072
    3SAPS   H2X  302   3.379   1.599  24.601 -1.2044  0.9748  0.1939
    3SAPS   H2Y  303   3.344   1.426  24.633 -0.6253  0.2981  0.2639
    3SAPS   C23  304   3.165   1.637  24.009 -0.2533 -0.2183 -0.7428
    3SAPS   H3R  305   3.121   1.726  23.959  1.0574  0.8631 -0.0351
    3SAPS   H3S  306   3.226   1.671  24.096  1.7906 -0.9749 -1.8245
    3SAPS   C24  307   3.049   1.545  24.051  0.1935 -0.5175 -0.4044
    3SAPS   H4R  308   2.990   1.597  24.129  0.6834  1.0497 -1.0381
    3SAPS   H4S  309   3.097   1.457  24.099 -0.6005 -2.4806 -2.9628
    3SAPS   C25  310   2.963   1.492  23.934 -0.4365 -0.8324  0.1806
    3SAPS   H5R  311   2.892   1.565  23.892  0.3434  1.0051  1.9013
    3SAPS   C26  312   2.946   1.367  23.899 -0.0120 -0.3330  1.2152
    3SAPS   H6R  313   2.899   1.349  23.802 -1.8668  1.8260  1.6329
    3SAPS   C27  314   2.998   1.237  23.958  0.2151  0.2787  0.0209
    3SAPS   H7R  315   2.907   1.174  23.954 -0.5363  1.4034 -0.9452
    3SAPS   H7S  316   3.026   1.244  24.065  2.2090  0.6466 -0.4756
    3SAPS   C28  317   3.115   1.185  23.882 -0.6702  0.8069  0.0914
    3SAPS   H8R  318   3.194   1.256  23.853  0.7924 -0.8596 -0.1778
    3SAPS   C29  319   3.126   1.061  23.827  0.6744 -0.2472 -0.3026
    3SAPS   H9R  320   3.218   1.045  23.768  0.2613 -0.8956 -0.7934
    3SAPS  C210  321   3.020   0.948  23.837 -0.2249 -0.1174 -0.7345
    3SAPS  H10R  322   2.980   0.937  23.940 -1.5943  0.8805 -1.1197
    3SAPS  H10S  323   3.073   0.856  23.803  2.5242  0.6783  1.0696
    3SAPS  C211  324   2.904   0.976  23.747  0.2701 -0.1204  0.0640
    3SAPS  H11R  325   2.907   1.076  23.702  0.2550 -0.1348  0.0305
    3SAPS  C212  326   2.799   0.897  23.741 -0.7872  0.6857 -0.2443
    3SAPS  H12R  327   2.718   0.928  23.672 -1.4480  0.8291  0.5882
    3SAPS  C213  328   2.778   0.757  23.799  0.0917 -0.4759  0.0698
    3SAPS  H13R  329   2.684   0.757  23.859  0.3490 -1.0106  0.4909
    3SAPS  H13S  330   2.857   0.741  23.876  0.4273  0.0290 -0.1680
    3SAPS  C214  331   2.786   0.651  23.694 -0.4030  0.2307 -0.3401
    3SAPS  H14R  332   2.703   0.636  23.624  0.3891 -0.4868 -1.1558
    3SAPS  C215  333   2.875   0.545  23.686 -0.3740  0.1947 -0.3538
    3SAPS  H15R  334   2.860   0.475  23.603 -2.2618 -2.0531  1.7379
    3SAPS  C216  335   2.994   0.517  23.768 -0.5676 -0.0459  0.2804
    3SAPS  H16R  336   2.977   0.559  23.870 -0.4723  1.9510 -0.4755
    3SAPS  H16S  337   3.087   0.557  23.722 -0.7623  0.7064  0.5251
    3SAPS  C217  338   3.005   0.362  23.774 -0.7884 -0.4124  0.1888
    3SAPS  H17R  339   2.905   0.314  23.775 -1.3176  0.6615  0.6867
    3SAPS  H17S  340   3.052   0.337  23.871  0.5620  0.1092 -0.2931
    3SAPS  C218  341   3.097   0.307  23.665  0.3374  0.0980 -0.0980
    3SAPS  H18R  342   3.186   0.374  23.658  2.1796 -2.0518  1.3617
    3SAPS  H18S  343   3.046   0.336  23.570  1.6377  3.1284  0.0116
    3SAPS  C219  344   3.131   0.158  23.680 -0.2333 -0.4346  0.2939
    3SAPS  H19R  345   3.203   0.151  23.764 -1.0777  1.4625  1.2608
    3SAPS  H19S  346   3.175   0.129  23.583 -2.2592  0.4071 -0.9518
    3SAPS  C220  347   3.023   0.059  23.714  0.3175  1.4540 -0.4296
    3SAPS  H20R  348   2.946   0.110  23.775 -0.4494 -0.7629  0.5186
    3SAPS  H20S  349   3.052  -0.035  23.765 -2.2926 -0.3787 -2.0839
    3SAPS  H20T  350   2.975   0.027  23.619  0.8140 -1.0493  0.0902
    3SAPS   C33  351   3.224   1.497  24.474  0.1657 -0.1257 -0.1134
    3SAPS   H3X  352   3.224   1.398  24.424 -0.4465  0.1348 -0.6291
    3SAPS   H3Y  353   3.214   1.572  24.393 -0.4840 -1.3424 -1.1877
    3SAPS   C34  354   3.098   1.507  24.566 -0.3158 -0.0796 -0.1875
    3SAPS   H4X  355   3.105   1.597  24.630 -1.9893 -0.8470  1.1571
    3SAPS   H4Y  356   3.102   1.423  24.639 -2.3971  0.1029  0.2003
    3SAPS   C35  357   2.966   1.494  24.493 -0.1176  0.0690 -0.6530
    3SAPS   H5X  358   2.952   1.393  24.450 -1.3175  1.0182 -2.6589
    3SAPS   H5Y  359   2.952   1.568  24.411 -0.4499  0.3584 -0.3363
    3SAPS   C36  360   2.853   1.519  24.597 -0.0629  0.7833 -0.8996
    3SAPS   H6X  361   2.873   1.608  24.661 -1.8648  1.0606 -0.6437
    3SAPS   H6Y  362   2.847   1.432  24.666  0.8282  2.5234  1.4977
    3SAPS   C37  363   2.716   1.525  24.534 -0.1903 -0.2512 -0.5838
    3SAPS   H7X  364   2.692   1.428  24.485  0.1436 -1.3648  1.3419
    3SAPS   H7Y  365   2.700   1.616  24.472  1.1249  0.7421  0.4618
    3SAPS   C38  366   2.606   1.547  24.639 -0.1274  0.2408 -1.1371
    3SAPS   H8X  367   2.595   1.651  24.674  1.5375  0.2962 -0.6659
    3SAPS   H8Y  368   2.629   1.485  24.729  0.3170 -0.4444 -1.7046
    3SAPS   C39  369   2.465   1.486  24.610  0.2789  0.4773  0.3967
    3SAPS   H9X  370   2.488   1.391  24.557 -0.4615 -0.9710  2.5034
    3SAPS   H9Y  371   2.407   1.559  24.551 -0.6686  0.0273  0.7452
    3SAPS  C310  372   2.371   1.464  24.726 -0.3930  0.4944 -0.0365
    3SAPS  H10X  373   2.433   1.437  24.814 -2.1468  2.1634  1.8348
    3SAPS  H10Y  374   2.298   1.385  24.699 -1.4995  1.6252 -0.4365
    3SAPS  C311  375   2.292   1.593  24.765  0.8902  0.3085 -0.3283
    3SAPS  H11X  376   2.366   1.676  24.772  1.8852 -0.6253  0.7556
    3SAPS  H11Y  377   2.254   1.580  24.868  1.0602 -0.3638 -0.3434
    3SAPS  C312  378   2.172   1.617  24.679 -0.0198  0.0492  0.6083
    3SAPS  H12X  379   2.101   1.534  24.699  0.1214 -0.1681  0.2337
    3SAPS  H12Y  380   2.204   1.602  24.573  0.1736 -1.9670  0.9038
    3SAPS  C313  381   2.103   1.754  24.711 -0.4937  0.4816  0.6558
    3SAPS  H13X  382   2.171   1.837  24.683  0.2756 -0.0131  1.0330
    3SAPS  H13Y  383   2.089   1.754  24.821  2.8243 -1.1894  1.1886
    3SAPS  C314  384   1.963   1.764  24.648 -0.1292 -0.7087  0.0624
    3SAPS  H14X  385   1.947   1.729  24.543  1.7470  1.7484 -1.1395
    3SAPS  H14Y  386   1.946   1.873  24.655 -1.3261 -0.9402  1.3091
    3SAPS  C315  387   1.850   1.703  24.735  0.3373  0.9454  0.6569
    3SAPS  H15X  388   1.875   1.719  24.842 -1.9291  1.2957  1.1848
    3SAPS  H15Y  389   1.840   1.594  24.718 -0.8318  1.1003  0.2344
    3SAPS  C316  390   1.706   1.767  24.707  0.6729  0.0811 -0.1204
    3SAPS  H16X  391   1.669   1.738  24.607  2.6729 -0.9744 -0.6143
    3SAPS  H16Y  392   1.719   1.877  24.702  4.4214 -0.2209 -0.0295
    3SAPS  C317  393   1.601   1.721  24.803  0.4003  0.0098 -0.1591
    3SAPS  H17X  394   1.609   1.612  24.824 -0.8469  0.0629  0.6816
    3SAPS  H17Y  395   1.498   1.739  24.766  0.7735  0.0816 -1.1892
    3SAPS  C318  396   1.623   1.790  24.940  0.2929 -0.2570 -0.0612
    3SAPS  H18X  397   1.557   1.740  25.014 -1.1554  0.7428 -0.6317
    3SAPS  H18Y  398   1.601   1.897  24.923 -2.9758 -0.4974  1.8343
    3SAPS  H18Z  399   1.726   1.775  24.979 -0.6375  0.1658  2.7606
    4SAPS     N  400   4.096   1.977  24.378  0.3458 -0.2439 -0.6864
    4SAPS   HN1  401   4.061   1.974  24.280 -0.8922 -0.8602 -0.2442
    4SAPS   HN2  402   4.091   1.875  24.398 -1.5452 -0.0706 -0.1091
    4SAPS   HN3  403   4.028   2.026  24.439  0.6626 -0.0070 -0.5191
    4SAPS   C12  404   4.240   2.017  24.376  0.4650 -0.5441 -0.1488
    4SAPS  H12A  405   4.249   2.114  24.329  1.0018 -2.1515 -3.7054
    4SAPS   C13  406   4.295   2.031  24.513  0.3215 -0.2860  0.2701
    4SAPS  O13A  407   4.227   1.998  24.613  0.1379 -0.1394 -0.1608
    4SAPS  O13B  408   4.419   2.064  24.522  0.5722 -0.3934  0.2645
    4SAPS   C11  409   4.318   1.924  24.278 -0.0915 -0.1585  0.9662
    4SAPS  H11A  410   4.331   1.821  24.318 -0.4633 -0.8672 -0.6719
    4SAPS  H11B  411   4.420   1.967  24.266 -0.5813  0.3018 -2.4126
    4SAPS     P  412   4.299   2.005  24.030 -0.6291  0.1917  0.0634
    4SAPS   O13  413   4.234   1.955  23.906  0.7059 -0.4846 -0.4269
    4SAPS   O14  414   4.270   2.146  24.059 -0.0005 -0.9837  0.1250
    4SAPS   O12  415   4.255   1.909  24.153 -0.2668 -0.4956 -0.2308
    4SAPS   O11  416   4.453   1.970  24.028 -0.0552  0.0806  0.1018
    4SAPS    C1  417   4.495   1.838  24.008  0.2906  0.5480 -1.0454
    4SAPS    HA  418   4.469   1.783  24.100 -0.3449  1.9544 -0.3518
    4SAPS    HB  419   4.437   1.787  23.928  2.4182 -2.2367 -0.9671
    4SAPS    C2  420   4.652   1.828  23.975 -0.8780 -0.2046  0.6788
    4SAPS    HS  421   4.683   1.723  23.987  0.7222 -0.7176 -5.0363
    4SAPS   O21  422   4.737   1.923  24.050 -0.4503  0.4961  0.4821
    4SAPS   C21  423   4.712   1.934  24.186  0.5446 -0.2835 -0.0391
    4SAPS   O22  424   4.633   1.870  24.254  0.2426 -0.2827  0.0281
    4SAPS   C22  425   4.814   2.033  24.239  0.1276  0.2695  0.0330
    4SAPS   H2R  426   4.913   1.984  24.230 -0.1550 -0.7633  1.9894
    4SAPS   H2S  427   4.816   2.135  24.193  1.7962 -0.4732 -1.6845
    4SAPS    C3  428   4.672   1.858  23.827  0.5494 -0.0034  0.4449
    4SAPS    HX  429   4.629   1.958  23.804  1.5958  1.0321  2.7436
    4SAPS    HY  430   4.615   1.789  23.760 -0.5138  1.6711 -0.4621
    4SAPS   O31  431   4.815   1.856  23.800 -0.5991 -0.2740  0.2113
    4SAPS   C31  432   4.870   1.972  23.785  0.4762 -0.4101 -1.2063
    4SAPS   O32  433   4.817   2.080  23.773  0.0820  0.1323 -0.3339
    4SAPS   C32  434   5.027   1.963  23.785  0.1950 -0.2637  0.3490
    4SAPS   H2X  435   5.060   1.959  23.679 -1.6399 -3.3116 -0.2320
    4SAPS   H2Y  436   5.054   1.864  23.830 -0.5017  0.4739  2.5311
    4SAPS   C23  437   4.777   2.038  24.391 -0.6216  0.1914  0.0588
    4SAPS   H3R  438   4.774   1.932  24.426  1.5953  0.2359  0.5665
    4SAPS   H3S  439   4.672   2.071  24.402 -0.1007  2.3533 -0.9170
    4SAPS   C24  440   4.873   2.115  24.479 -0.1619  0.2558 -0.0951
    4SAPS   H4R  441   4.867   2.219  24.440 -0.0682  0.0876 -0.5691
    4SAPS   H4S  442   4.975   2.076  24.457  0.2793  0.4269  1.5185
    4SAPS   C25  443   4.841   2.107  24.630  0.3046  0.1845  0.0688
    4SAPS   H5R  444   4.749   2.163  24.651 -0.4331 -0.6661 -0.7431
    4SAPS   C26  445   4.917   2.050  24.726 -0.4519  0.0184 -0.1475
    4SAPS   H6R  446   4.885   2.057  24.831  1.4097  0.5766  0.4295
    4SAPS   C27  447   5.045   1.967  24.714  0.3390  0.2725 -0.4041
    4SAPS   H7R  448   5.127   2.031  24.674 -0.1647  0.9702 -0.3482
    4SAPS   H7S  449   5.036   1.892  24.633  2.4084 -0.1844 -0.2651
    4SAPS   C28  450   5.085   1.893  24.833  0.3772  0.0612  0.1405
    4SAPS   H8R  451   5.006   1.894  24.910 -0.0531  0.5156 -0.2967
    4SAPS   C29  452   5.212   1.861  24.869 -0.8781  0.5228  0.2108
    4SAPS   H9R  453   5.226   1.826  24.973 -1.3919 -2.4888 -0.6467
    4SAPS  C210  454   5.342   1.860  24.792 -0.0466  0.3655  0.2335
    4SAPS  H10R  455   5.358   1.947  24.726  0.6191  0.9058  1.0865
    4SAPS  H10S  456   5.340   1.769  24.729  2.6921  1.4809 -1.6705
    4SAPS  C211  457   5.464   1.847  24.880  0.0269  0.1681 -1.0855
    4SAPS  H11R  458   5.459   1.778  24.966 -1.4882  0.8954 -0.5492
    4SAPS  C212  459   5.590   1.884  24.847 -0.0320 -0.2561  0.4361
    4SAPS  H12R  460   5.670   1.862  24.919 -0.3757 -1.5953  0.4312
    4SAPS  C213  461   5.631   1.951  24.716 -0.8016  0.5813 -0.6499
    4SAPS  H13R  462   5.739   1.979  24.715 -0.7576  0.4229 -1.4684
    4SAPS  H13S  463   5.570   2.044  24.708 -0.5850  0.8931  1.0486
    4SAPS  C214  464   5.597   1.866  24.596 -0.2414  0.1576  0.1893
    4SAPS  H14R  465   5.526   1.783  24.603 -1.4635  1.0584 -0.9260
    4SAPS  C215  466   5.646   1.881  24.472 -0.1491  0.1206 -0.3845
    4SAPS  H15R  467   5.618   1.816  24.388  3.0983 -1.6066 -0.3117
    4SAPS  C216  468   5.754   1.967  24.425 -0.4125  0.3015  0.0010
    4SAPS  H16R  469   5.759   2.065  24.477  0.6754  0.8176 -1.0223
    4SAPS  H16S  470   5.723   1.992  24.321 -0.5373  2.9235  0.5865
    4SAPS  C217  471   5.890   1.902  24.432 -0.2698 -0.5171  0.4199
    4SAPS  H17R  472   5.894   1.800  24.387  0.9787 -0.5678  0.6192
    4SAPS  H17S  473   5.931   1.902  24.535 -0.9854 -0.3343  0.7095
    4SAPS  C218  474   5.992   1.993  24.357 -0.6624  0.1408  0.2939
    4SAPS  H18R  475   5.981   2.100  24.385 -0.2482 -0.2613  2.1437
    4SAPS  H18S  476   5.963   1.976  24.251  3.5185 -1.0605 -0.8529
    4SAPS  C219  477   6.135   1.948  24.382  0.1838  0.0148  0.1025
    4SAPS  H19R  478   6.136   1.838  24.366  0.0599  0.2957 -2.1393
    4SAPS  H19S  479   6.158   1.961  24.490 -1.9083  0.2063  0.5641
    4SAPS  C220  480   6.249   2.005  24.300 -0.1579 -0.0722  0.1903
    4SAPS  H20R  481   6.230   1.988  24.192  4.3568 -1.4131 -0.6506
    4SAPS  H20S  482   6.348   1.957  24.319  1.3234  2.2509 -1.1958
    4SAPS  H20T  483   6.259   2.114  24.314  0.5281 -0.0631 -0.2887
    4SAPS   C33  484   5.094   2.076  23.860 -0.9815  0.1281  0.2591
    4SAPS   H3X  485   5.095   2.171  23.802  1.7034 -0.9332 -1.6282
    4SAPS   H3Y  486   5.200   2.046  23.847 -0.7768  1.1448 -0.5403
    4SAPS   C34  487   5.069   2.087  24.007 -0.3111  0.6066  0.0677
    4SAPS   H4X  488   5.041   1.988  24.049 -0.3303 -0.4758 -2.3172
    4SAPS   H4Y  489   4.978   2.150  24.017  1.1081  2.6916  0.2621
    4SAPS   C35  490   5.185   2.151  24.082  0.0874 -0.6263 -0.0616
    4SAPS   H5X  491   5.212   2.254  24.051  1.2099 -1.3829 -1.8045
    4SAPS   H5Y  492   5.275   2.086  24.075  0.7138  0.2166  0.0122
    4SAPS   C36  493   5.158   2.144  24.232 -0.3563  0.2656 -0.6904
    4SAPS   H6X  494   5.191   2.047  24.275  2.8663  2.4144  2.1318
    4SAPS   H6Y  495   5.049   2.150  24.251 -0.0433  0.4832  1.1498
    4SAPS   C37  496   5.240   2.252  24.305  0.1986  0.2048 -1.0474
    4SAPS   H7X  497   5.176   2.341  24.315 -1.3443 -0.9043 -0.6818
    4SAPS   H7Y  498   5.329   2.289  24.249  0.5570  0.1766 -0.5057
    4SAPS   C38  499   5.283   2.212  24.455 -0.6031 -0.2995 -0.1722
    4SAPS   H8X  500   5.381   2.161  24.439 -0.6508  0.1241 -1.9509
    4SAPS   H8Y  501   5.207   2.147  24.505 -0.0309 -2.2426 -1.7084
    4SAPS   C39  502   5.309   2.338  24.544  0.7809  0.3484  0.1311
    4SAPS   H9X  503   5.327   2.307  24.649  0.0588 -2.2587 -0.4271
    4SAPS   H9Y  504   5.211   2.390  24.550 -0.6518 -2.2033  0.6172
    4SAPS  C310  505   5.426   2.424  24.488 -0.2677  0.7750 -1.0401
    4SAPS  H10X  506   5.419   2.526  24.529  1.5538 -0.3453  2.4356
    4SAPS  H10Y  507   5.415   2.429  24.378  1.6726  0.1469 -1.2925
    4SAPS  C311  508   5.567   2.369  24.519 -0.8168 -0.5788 -0.6915
    4SAPS  H11X  509   5.575   2.262  24.493  0.8557 -0.5303 -0.5066
    4SAPS  H11Y  510   5.593   2.383  24.626 -2.2399  0.6301 -0.4649
    4SAPS  C312  511   5.667   2.437  24.428  0.3777 -0.4441 -0.3811
    4SAPS  H12X  512   5.692   2.539  24.463 -0.7191 -0.8505  1.7125
    4SAPS  H12Y  513   5.605   2.458  24.338 -1.8685  1.0617  1.4128
    4SAPS  C313  514   5.791   2.370  24.381 -0.2870 -0.2128 -0.3791
    4SAPS  H13X  515   5.764   2.279  24.322 -0.4297  1.7553 -3.5714
    4SAPS  H13Y  516   5.844   2.312  24.460  0.7428 -1.6758 -2.0489
    4SAPS  C314  517   5.890   2.461  24.304 -0.2775 -0.3116 -0.4422
    4SAPS  H14X  518   5.919   2.540  24.377  1.4710  0.6806 -2.1217
    4SAPS  H14Y  519   5.837   2.521  24.227 -0.7684 -2.0077 -1.4793
    4SAPS  C315  520   6.008   2.394  24.238  0.0044 -0.1171 -0.9705
    4SAPS  H15X  521   6.052   2.316  24.303  0.6668  0.3531 -0.8444
    4SAPS  H15Y  522   6.098   2.455  24.215  0.9922 -1.4991 -0.8702
    4SAPS  C316  523   5.952   2.334  24.106  0.3907 -0.4662  0.0717
    4SAPS  H16X  524   5.914   2.405  24.029 -0.4719 -1.8721 -0.8467
    4SAPS  H16Y  525   5.868   2.265  24.127  0.7476 -1.5904 -1.9957
    4SAPS  C317  526   6.059   2.251  24.035  0.1925  0.9646 -0.9810
    4SAPS  H17X  527   6.026   2.179  23.957  4.0264 -0.4004 -1.5716
    4SAPS  H17Y  528   6.106   2.183  24.110  0.4710 -0.0460 -2.0368
    4SAPS  C318  529   6.176   2.328  23.979  0.5333  0.6187  0.1678
    4SAPS  H18X  530   6.221   2.400  24.050  0.7166 -0.0896  0.7787
    4SAPS  H18Y  531   6.124   2.387  23.900  1.4069  1.2361  0.0446
    4SAPS  H18Z  532   6.252   2.263  23.931 -1.7794 -0.6840 -1.9761
    5SAPS     N  533   3.961   1.922  23.861 -0.3883  0.2036 -0.2425
    5SAPS   HN1  534   3.950   1.822  23.889  1.2719  0.4552  1.4766
    5SAPS   HN2  535   3.938   1.944  23.762  1.3125  2.3852 -0.2174
    5SAPS   HN3  536   4.062   1.946  23.860 -0.2198 -0.4851  0.0283
    5SAPS   C12  537   3.882   2.011  23.951  0.5865 -0.7077  0.5695
    5SAPS  H12A  538   3.780   2.004  23.917  0.2565  3.1645  0.3200
    5SAPS   C13  539   3.882   1.965  24.094 -0.2639  0.5573  0.4611
    5SAPS  O13A  540   3.979   1.909  24.144 -0.2538  0.6821  0.1448
    5SAPS  O13B  541   3.790   2.004  24.170 -0.2163 -1.0700 -0.5609
    5SAPS   C11  542   3.920   2.163  23.934  0.4984 -0.1309  0.9126
    5SAPS  H11A  543   4.024   2.186  23.967  1.4299  0.4280 -2.1107
    5SAPS  H11B  544   3.854   2.230  23.992  1.2562  2.3557 -0.9383
    5SAPS     P  545   3.927   2.346  23.746 -0.0299 -0.2522 -0.0698
    5SAPS   O13  546   3.902   2.442  23.856 -0.0126  0.3054 -0.2723
    5SAPS   O14  547   4.060   2.356  23.696  0.0422  0.1256  0.1063
    5SAPS   O12  548   3.897   2.198  23.801  0.4226  0.5029  0.5351
    5SAPS   O11  549   3.818   2.370  23.629  0.1990  0.1175  0.3461
    5SAPS    C1  550   3.794   2.274  23.527  0.6535 -0.3862 -0.0233
    5SAPS    HA  551   3.790   2.317  23.425 -0.9932 -1.7506 -0.5812
    5SAPS    HB  552   3.867   2.190  23.533 -0.5706 -1.3674  2.3754
    5SAPS    C2  553   3.650   2.201  23.544  0.0467 -0.0403  0.8332
    5SAPS    HS  554   3.619   2.151  23.449 -0.3036  0.1969  0.8203
    5SAPS   O21  555   3.549   2.296  23.587 -0.0707  0.0538  0.5041
    5SAPS   C21  556   3.492   2.383  23.509  0.2795  0.5869 -0.5314
    5SAPS   O22  557   3.498   2.379  23.389 -0.3085  0.0822 -0.0462
    5SAPS   C22  558   3.422   2.494  23.588  0.1892 -0.4015 -0.6553
    5SAPS   H2R  559   3.498   2.559  23.635  0.0430 -0.7753  0.1240
    5SAPS   H2S  560   3.358   2.548  23.515 -0.4702 -0.9853 -0.5259
    5SAPS    C3  561   3.659   2.095  23.650 -0.4607 -0.6691 -0.1308
    5SAPS    HX  562   3.662   2.139  23.753 -0.5144  0.9050 -0.7741
    5SAPS    HY  563   3.758   2.045  23.647  1.3553  2.2599  2.7573
    5SAPS   O31  564   3.559   1.994  23.643  0.5448 -0.1067  0.8116
    5SAPS   C31  565   3.436   2.008  23.701  0.5595 -0.4218  0.0922
    5SAPS   O32  566   3.408   2.104  23.767 -0.1039  0.0772 -0.1864
    5SAPS   C32  567   3.340   1.889  23.678 -0.2191 -1.1887 -0.1088
    5SAPS   H2X  568   3.266   1.909  23.759  0.5280  0.9749  0.1019
    5SAPS   H2Y  569   3.395   1.795  23.700  0.8555 -0.4601  0.3978
    5SAPS   C23  570   3.327   2.444  23.707  0.3639  0.8461 -0.3900
    5SAPS   H3R  571   3.334   2.517  23.790  0.5091 -0.2641  0.6029
    5SAPS   H3S  572   3.373   2.362  23.767  1.2589 -0.6305 -2.9230
    5SAPS   C24  573   3.176   2.418  23.670 -0.0294  0.4043 -0.1868
    5SAPS   H4R  574   3.151   2.502  23.601  3.3151  1.9550  0.2460
    5SAPS   H4S  575   3.124   2.435  23.766  0.4382  0.0710  0.1275
    5SAPS   C25  576   3.131   2.287  23.626 -0.6542  0.0863  0.8868
    5SAPS   H5R  577   3.206   2.218  23.585  0.0789 -0.8576  3.5802
    5SAPS   C26  578   3.003   2.255  23.595  0.8710  0.3800 -0.3634
    5SAPS   H6R  579   2.978   2.160  23.547  1.5574  0.8260 -1.6672
    5SAPS   C27  580   2.886   2.348  23.623  0.0218 -0.1407  0.1546
    5SAPS   H7R  581   2.899   2.444  23.569 -2.0691  1.0916  1.6734
    5SAPS   H7S  582   2.867   2.376  23.729  2.5224  0.7095  0.4411
    5SAPS   C28  583   2.761   2.278  23.565 -0.1147  0.4522  0.2093
    5SAPS   H8R  584   2.758   2.169  23.553 -0.8432  0.6403 -1.7155
    5SAPS   C29  585   2.646   2.342  23.548  0.5255  0.0350 -0.3468
    5SAPS   H9R  586   2.558   2.282  23.521  0.8437 -1.4256  1.6172
    5SAPS  C210  587   2.631   2.493  23.575 -0.4425  0.4451  0.8636
    5SAPS  H10R  588   2.690   2.549  23.500 -1.2716  3.2696  2.2114
    5SAPS  H10S  589   2.685   2.518  23.669  2.4930 -0.8640 -0.3605
    5SAPS  C211  590   2.489   2.539  23.578 -0.5481  0.3236  0.1447
    5SAPS  H11R  591   2.475   2.623  23.507 -0.5519  1.0797  1.0279
    5SAPS  C212  592   2.389   2.490  23.655 -0.1286 -0.1049 -0.4228
    5SAPS  H12R  593   2.298   2.551  23.644  0.4272  1.1086  1.2114
    5SAPS  C213  594   2.374   2.373  23.752  0.7994 -0.1586  0.1012
    5SAPS  H13R  595   2.449   2.385  23.834  0.7744 -1.4505  0.3348
    5SAPS  H13S  596   2.380   2.268  23.716  0.5569 -0.2706  0.3827
    5SAPS  C214  597   2.239   2.375  23.818 -0.3170  0.2627 -0.2161
    5SAPS  H14R  598   2.245   2.371  23.927 -0.9402 -0.8640 -0.2059
    5SAPS  C215  599   2.115   2.385  23.761 -0.6851 -0.7209 -0.6487
    5SAPS  H15R  600   2.030   2.389  23.831  0.1635 -1.9162  0.5094
    5SAPS  C216  601   2.074   2.383  23.613 -0.1100  0.3602 -0.2652
    5SAPS  H16R  602   2.021   2.287  23.594  1.1248 -0.7975  1.7553
    5SAPS  H16S  603   2.161   2.391  23.545  3.0233  0.4638  3.3994
    5SAPS  C217  604   1.974   2.491  23.581  0.1626 -0.3984 -0.1903
    5SAPS  H17R  605   1.895   2.488  23.659  0.5570  0.9803  0.2862
    5SAPS  H17S  606   1.930   2.483  23.479 -1.1617  0.7818  0.2636
    5SAPS  C218  607   2.046   2.627  23.573  0.2515  0.5687 -0.2073
    5SAPS  H18R  608   2.141   2.619  23.517  0.7701  0.0892  0.7168
    5SAPS  H18S  609   1.978   2.690  23.510 -0.2639 -1.1358 -1.4343
    5SAPS  C219  610   2.079   2.706  23.705 -0.0610 -0.8465 -0.0436
    5SAPS  H19R  611   2.154   2.784  23.682 -1.6539  1.5860  2.3835
    5SAPS  H19S  612   2.131   2.641  23.779 -0.7456 -3.2018 -1.5193
    5SAPS  C220  613   1.956   2.769  23.773 -0.0004  0.1620  0.1130
    5SAPS  H20R  614   1.870   2.700  23.777  0.0546 -0.0453 -1.4208
    5SAPS  H20S  615   1.918   2.855  23.713  1.3471  0.7058 -0.0080
    5SAPS  H20T  616   1.997   2.794  23.873 -0.9277 -1.4786  0.9278
    5SAPS   C33  617   3.268   1.889  23.542  0.4368  0.9546 -0.3833
    5SAPS   H3X  618   3.341   1.896  23.459  0.3469 -0.8430 -0.6695
    5SAPS   H3Y  619   3.191   1.969  23.541  0.0664  0.6454 -2.4678
    5SAPS   C34  620   3.196   1.763  23.516  0.2429  0.3032  0.7389
    5SAPS   H4X  621   3.233   1.664  23.552 -0.8819 -0.2349  0.4765
    5SAPS   H4Y  622   3.176   1.755  23.407  0.0182 -0.2506  0.8169
    5SAPS   C35  623   3.053   1.774  23.578 -0.3596  0.3308 -0.0440
    5SAPS   H5X  624   2.995   1.830  23.502 -0.0234  0.9039  0.1164
    5SAPS   H5Y  625   3.041   1.820  23.679 -0.5790 -0.7344  0.4377
    5SAPS   C36  626   2.983   1.636  23.591 -0.4030  1.5141  0.1542
    5SAPS   H6X  627   2.895   1.652  23.657 -1.3601 -1.0067 -0.4023
    5SAPS   H6Y  628   3.062   1.564  23.624 -0.1304  0.5184 -2.4669
    5SAPS   C37  629   2.919   1.582  23.461 -0.0445  0.0153  0.0971
    5SAPS   H7X  630   2.886   1.478  23.485 -1.6767  0.9285  2.2647
    5SAPS   H7Y  631   3.000   1.573  23.387 -1.3263 -1.1889 -1.2289
    5SAPS   C38  632   2.797   1.655  23.404  0.2078 -0.4172 -0.2779
    5SAPS   H8X  633   2.811   1.764  23.389  0.3578 -0.3567  0.3197
    5SAPS   H8Y  634   2.711   1.655  23.474  0.4691  0.4614  0.0419
    5SAPS   C39  635   2.757   1.593  23.267 -0.2519  0.1259  0.1970
    5SAPS   H9X  636   2.762   1.482  23.269 -1.4875  0.0127 -1.1218
    5SAPS   H9Y  637   2.817   1.632  23.182  0.2316 -0.7652  0.1218
    5SAPS  C310  638   2.608   1.602  23.247  0.2140  0.5787  0.7381
    5SAPS  H10X  639   2.587   1.711  23.245  0.5929  0.8693 -4.9551
    5SAPS  H10Y  640   2.551   1.564  23.334 -0.9243  0.9718  0.1846
    5SAPS  C311  641   2.553   1.553  23.113 -0.5210  0.6111 -0.0106
    5SAPS  H11X  642   2.602   1.456  23.087 -1.1814  0.1428  0.4475
    5SAPS  H11Y  643   2.592   1.623  23.036 -0.2179  0.1108 -0.3190
    5SAPS  C312  644   2.403   1.537  23.103 -0.4575 -0.3377 -0.5410
    5SAPS  H12X  645   2.349   1.632  23.122  2.4648  1.5656 -1.2104
    5SAPS  H12Y  646   2.378   1.482  23.196 -0.9530  1.7413  0.6136
    5SAPS  C313  647   2.357   1.460  22.981 -0.7644 -0.2266 -0.3513
    5SAPS  H13X  648   2.428   1.375  22.970  0.1463  0.5336 -0.5008
    5SAPS  H13Y  649   2.380   1.514  22.886 -1.3286  1.0992  0.2535
    5SAPS  C314  650   2.215   1.411  22.990  0.1370  0.5594  0.5064
    5SAPS  H14X  651   2.205   1.352  23.083 -0.7986 -0.6873 -0.3641
    5SAPS  H14Y  652   2.202   1.340  22.906  2.1696  0.8036 -0.0821
    5SAPS  C315  653   2.099   1.512  23.009  0.6351  0.0432  0.0561
    5SAPS  H15X  654   2.105   1.586  22.927 -3.1223 -2.0273 -2.3410
    5SAPS  H15Y  655   2.102   1.571  23.103  0.8644 -1.9805  1.3769
    5SAPS  C316  656   1.954   1.456  23.013 -0.4788 -0.4969 -0.7931
    5SAPS  H16X  657   1.950   1.391  23.103 -0.5578 -1.5218 -1.5216
    5SAPS  H16Y  658   1.948   1.392  22.922  1.2911 -0.6113 -0.8702
    5SAPS  C317  659   1.849   1.561  23.020 -0.1940  0.6326  0.0594
    5SAPS  H17X  660   1.853   1.625  22.929 -0.1222  1.9660  0.9593
    5SAPS  H17Y  661   1.860   1.633  23.105 -1.6483  2.0963 -0.9168
    5SAPS  C318  662   1.716   1.491  23.047 -0.1643 -0.2522 -0.2540
    5SAPS  H18X  663   1.663   1.462  22.954  0.7495 -0.3700 -0.7552
    5SAPS  H18Y  664   1.646   1.560  23.099  0.6342  1.9390 -1.8811
    5SAPS  H18Z  665   1.728   1.401  23.110 -0.6018  0.9926  1.6882
    6SAPS     N  666   4.248   3.446  24.912  0.1289 -0.1182  0.5117
    6SAPS   HN1  667   4.206   3.517  24.975 -0.7793 -0.1298 -0.0684
    6SAPS   HN2  668   4.334   3.409  24.958  0.4657  1.2330  1.0183
    6SAPS   HN3  669   4.277   3.493  24.824  1.5876 -2.2216 -0.2163
    6SAPS   C12  670   4.159   3.330  24.889 -0.2932 -0.3554  0.4019
    6SAPS  H12A  671   4.069   3.365  24.839 -0.4700 -0.8653  0.3611
    6SAPS   C13  672   4.227   3.221  24.805  0.1206 -0.7566  0.3267
    6SAPS  O13A  673   4.346   3.246  24.767  0.6767  0.3129  0.0940
    6SAPS  O13B  674   4.164   3.123  24.762  0.3161 -0.0255  0.6384
    6SAPS   C11  675   4.115   3.269  25.025  0.4094  0.2866 -0.1355
    6SAPS  H11A  676   4.048   3.187  24.994 -0.1991  0.7201  0.0053
    6SAPS  H11B  677   4.052   3.338  25.086 -0.3649 -2.3798  2.2680
    6SAPS     P  678   4.194   3.172  25.249  0.0800 -0.1199  0.1517
    6SAPS   O13  679   4.320   3.132  25.315 -0.6347 -0.3469 -0.0387
    6SAPS   O14  680   4.114   3.281  25.308 -0.1886 -0.4255  0.0965
    6SAPS   O12  681   4.232   3.224  25.107  0.1847  0.1732  0.4823
    6SAPS   O11  682   4.121   3.037  25.225 -0.2368 -0.0945  0.0245
    6SAPS    C1  683   4.069   2.950  25.333 -0.6145  0.3745  0.1538
    6SAPS    HA  684   4.123   2.852  25.332  0.9322  1.1726 -1.5317
    6SAPS    HB  685   4.091   2.993  25.433  0.6831 -1.2065  0.5989
    6SAPS    C2  686   3.917   2.931  25.324  0.9536  0.3584 -0.0494
    6SAPS    HS  687   3.882   2.856  25.397 -1.0347  0.8147 -0.4888
    6SAPS   O21  688   3.892   2.891  25.190 -0.0818 -0.4304  0.2507
    6SAPS   C21  689   3.779   2.823  25.180 -0.1398 -0.5362 -0.1336
    6SAPS   O22  690   3.716   2.771  25.271 -0.2738 -0.1230 -0.0437
    6SAPS   C22  691   3.730   2.821  25.035  0.1502 -0.1283  0.0287
    6SAPS   H2R  692   3.755   2.923  24.998  1.6579 -1.1553 -1.9970
    6SAPS   H2S  693   3.784   2.741  24.980 -0.7762 -0.3761 -0.5475
    6SAPS    C3  694   3.837   3.059  25.361  0.1202  0.5980  0.4000
    6SAPS    HX  695   3.908   3.137  25.326  0.6099  0.3186  0.7644
    6SAPS    HY  696   3.825   3.081  25.470  0.1380 -1.8458  0.9453
    6SAPS   O31  697   3.713   3.069  25.294  0.0966  0.1305  0.3537
    6SAPS   C31  698   3.593   3.060  25.352  0.1449  0.0954 -0.9394
    6SAPS   O32  699   3.586   3.009  25.467  1.1966 -0.9078 -0.8090
    6SAPS   C32  700   3.474   3.100  25.267 -0.3167 -0.3486 -0.4615
    6SAPS   H2X  701   3.495   3.079  25.160 -1.2281 -0.0642 -0.7009
    6SAPS   H2Y  702   3.463   3.208  25.293  4.5362  0.3942 -0.5225
    6SAPS   C23  703   3.575   2.788  25.024 -0.0301 -0.5940 -0.2986
    6SAPS   H3R  704   3.518   2.863  25.084 -0.5976 -2.3919  1.4974
    6SAPS   H3S  705   3.551   2.693  25.075 -2.1721  0.3109  0.4730
    6SAPS   C24  706   3.520   2.812  24.889 -0.3986 -0.1179 -0.2208
    6SAPS   H4R  707   3.572   2.898  24.842  0.0812  0.1745  0.8374
    6SAPS   H4S  708   3.417   2.853  24.898 -0.0926  0.2847  2.0192
    6SAPS   C25  709   3.533   2.706  24.785 -0.0639  0.6153 -0.4557
    6SAPS   H5R  710   3.635   2.673  24.759  0.8814  0.8092  2.6228
    6SAPS   C26  711   3.432   2.648  24.716  1.0141  0.3923  0.6106
    6SAPS   H6R  712   3.459   2.560  24.656 -0.7813  0.5775 -0.5278
    6SAPS   C27  713   3.283   2.668  24.736  0.6248  0.3647  0.6550
    6SAPS   H7R  714   3.263   2.777  24.731  2.2690  0.6389 -1.3529
    6SAPS   H7S  715   3.245   2.605  24.819 -1.9786  0.3485 -0.4699
    6SAPS   C28  716   3.218   2.633  24.602  0.1271  0.1226  0.8540
    6SAPS   H8R  717   3.265   2.675  24.512  1.4417 -1.7239  0.6303
    6SAPS   C29  718   3.099   2.570  24.592 -0.2235 -0.4521 -0.4605
    6SAPS   H9R  719   3.056   2.540  24.495  2.5739 -1.3887 -1.5090
    6SAPS  C210  720   3.003   2.530  24.708 -0.4957 -0.2589  0.4011
    6SAPS  H10R  721   2.903   2.518  24.662  0.3616 -0.6057 -1.5057
    6SAPS  H10S  722   3.001   2.615  24.780  1.8281  1.8836 -1.8137
    6SAPS  C211  723   3.053   2.398  24.762  0.5408 -0.4244  0.4185
    6SAPS  H11R  724   3.128   2.351  24.697  0.1411 -0.6669  0.1275
    6SAPS  C212  725   3.025   2.336  24.874  0.8823  0.0843 -0.1403
    6SAPS  H12R  726   3.075   2.241  24.898  2.3844  1.0852  0.8159
    6SAPS  C213  727   2.917   2.380  24.962  0.2678 -0.0574 -0.6345
    6SAPS  H13R  728   2.824   2.325  24.937 -1.5320  2.4297  0.1495
    6SAPS  H13S  729   2.887   2.484  24.938  0.1000 -0.3491 -1.7426
    6SAPS  C214  730   2.952   2.369  25.111 -0.3483  0.0481 -0.2697
    6SAPS  H14R  731   2.995   2.465  25.142 -0.9697  0.4295 -0.5637
    6SAPS  C215  732   2.935   2.272  25.203  0.2287  0.1350  0.1100
    6SAPS  H15R  733   2.960   2.283  25.310  1.2748  0.2487 -0.1345
    6SAPS  C216  734   2.871   2.138  25.160 -0.1921  0.4514 -0.6455
    6SAPS  H16R  735   2.788   2.158  25.089 -1.2369 -1.1034  0.0855
    6SAPS  H16S  736   2.815   2.100  25.249  1.1499 -4.6430 -1.6783
    6SAPS  C217  737   2.969   2.027  25.112 -0.0175  0.2719  0.3795
    6SAPS  H17R  738   3.072   2.049  25.146 -0.0150 -0.3989  0.8352
    6SAPS  H17S  739   2.971   2.007  25.003  1.4452  1.6974  0.1078
    6SAPS  C218  740   2.943   1.891  25.171  0.2009  0.6302  0.0657
    6SAPS  H18R  741   2.845   1.857  25.130 -0.8195  1.9899  1.2660
    6SAPS  H18S  742   2.945   1.892  25.282  0.3355  0.1596  0.0711
    6SAPS  C219  743   3.051   1.779  25.141 -0.8903  0.0252 -0.1260
    6SAPS  H19R  744   3.021   1.687  25.195  1.9325 -1.8075 -1.4694
    6SAPS  H19S  745   3.148   1.813  25.185 -1.1450  0.4574  0.1133
    6SAPS  C220  746   3.089   1.750  24.994 -0.2879 -0.5125  0.8408
    6SAPS  H20R  747   2.999   1.733  24.930 -0.8247  1.2968  1.0443
    6SAPS  H20S  748   3.146   1.655  25.001 -0.1912 -0.4574  0.8056
    6SAPS  H20T  749   3.149   1.832  24.950 -1.9764 -0.6382 -2.0042
    6SAPS   C33  750   3.351   3.013  25.317 -0.1367 -0.2997  0.2095
    6SAPS   H3X  751   3.327   3.027  25.424  0.7296  1.9870  0.1598
    6SAPS   H3Y  752   3.379   2.907  25.298  0.6671 -0.0690  0.0362
    6SAPS   C34  753   3.229   3.030  25.231  0.6715 -0.0869  0.2923
    6SAPS   H4X  754   3.207   3.137  25.212 -0.2855 -0.5231 -1.1721
    6SAPS   H4Y  755   3.142   2.992  25.289  1.1173 -0.5661  0.6710
    6SAPS   C35  756   3.232   2.961  25.093 -0.0105  0.0909 -0.5504
    6SAPS   H5X  757   3.288   2.866  25.100 -0.4006 -0.0302  2.1387
    6SAPS   H5Y  758   3.281   3.030  25.020 -2.4024  0.8773 -1.5210
    6SAPS   C36  759   3.086   2.935  25.040 -0.2613  0.1016  0.2438
    6SAPS   H6X  760   3.096   2.906  24.933  0.8947  1.5820 -0.0925
    6SAPS   H6Y  761   3.024   3.027  25.049 -3.8863 -1.6801 -3.2167
    6SAPS   C37  762   3.006   2.831  25.119  0.2836  0.2429 -0.3569
    6SAPS   H7X  763   2.982   2.878  25.217 -1.4097  0.7482 -0.9813
    6SAPS   H7Y  764   3.068   2.739  25.129  0.2046  0.3351  1.2631
    6SAPS   C38  765   2.872   2.780  25.061 -0.0858  0.9967  0.8031
    6SAPS   H8X  766   2.815   2.704  25.119 -2.2544  0.7594 -1.4595
    6SAPS   H8Y  767   2.881   2.730  24.962  0.2883  1.9671  0.3412
    6SAPS   C39  768   2.775   2.903  25.045 -0.4101  0.2042  0.1342
    6SAPS   H9X  769   2.818   2.954  24.956 -0.4835 -0.6264 -0.3877
    6SAPS   H9Y  770   2.776   2.968  25.135 -3.0625 -1.0191  1.1575
    6SAPS  C310  771   2.631   2.868  25.015 -0.1314 -0.3725 -0.1070
    6SAPS  H10X  772   2.575   2.964  25.007  0.2198 -0.2458 -1.3260
    6SAPS  H10Y  773   2.586   2.803  25.093 -1.5904 -1.1637 -1.5364
    6SAPS  C311  774   2.620   2.796  24.877  0.0492  0.1098 -0.6738
    6SAPS  H11X  775   2.690   2.709  24.873  2.1183  1.2888  3.4061
    6SAPS  H11Y  776   2.658   2.857  24.792  1.1664 -1.5509 -1.4258
    6SAPS  C312  777   2.480   2.747  24.844  0.6990  0.3220 -0.4242
    6SAPS  H12X  778   2.419   2.839  24.837 -0.4706 -0.4524 -0.8112
    6SAPS  H12Y  779   2.448   2.695  24.937  2.6476 -1.9836 -0.9231
    6SAPS  C313  780   2.472   2.651  24.731 -0.8197  0.1228 -0.0933
    6SAPS  H13X  781   2.533   2.561  24.753 -2.0113 -0.5465  0.5699
    6SAPS  H13Y  782   2.515   2.697  24.640 -0.4180  1.2119  0.6296
    6SAPS  C314  783   2.325   2.610  24.696 -0.7830  0.1029  0.4177
    6SAPS  H14X  784   2.265   2.698  24.666  2.0666  2.7050  1.8392
    6SAPS  H14Y  785   2.278   2.566  24.786 -0.0403 -0.9814  0.2966
    6SAPS  C315  786   2.330   2.512  24.576  0.3934 -0.2932 -0.6623
    6SAPS  H15X  787   2.401   2.430  24.602  0.1337 -0.3835 -0.2190
    6SAPS  H15Y  788   2.372   2.556  24.484  0.4487 -0.6494 -0.8105
    6SAPS  C316  789   2.205   2.435  24.542 -0.9967 -0.7468 -0.2544
    6SAPS  H16X  790   2.131   2.508  24.502  0.2728  1.4554  1.2179
    6SAPS  H16Y  791   2.169   2.397  24.640  1.1564 -1.0813  0.4568
    6SAPS  C317  792   2.233   2.333  24.434  0.2518  0.2815  0.5531
    6SAPS  H17X  793   2.276   2.242  24.480  0.5029  0.2949  0.3465
    6SAPS  H17Y  794   2.304   2.364  24.354 -1.6315 -0.9429 -1.7266
    6SAPS  C318  795   2.112   2.272  24.358 -0.1451 -0.3463 -0.3222
    6SAPS  H18X  796   2.145   2.214  24.270  1.8438  1.7993 -1.1216
    6SAPS  H18Y  797   2.041   2.353  24.331 -1.5383 -1.4166  0.0614
    6SAPS  H18Z  798   2.061   2.205  24.430 -0.1209 -0.9574 -0.8768
    7SAPS     N  799   4.311   0.399  21.480  0.8335  0.3529 -0.6359
    7SAPS   HN1  800   4.405   0.378  21.439  3.0120  0.3939  3.7484
    7SAPS   HN2  801   4.263   0.481  21.439 -0.9983  0.7341  2.0711
    7SAPS   HN3  802   4.361   0.427  21.567  2.8120 -1.5156 -1.0864
    7SAPS   C12  803   4.219   0.287  21.490 -0.0614  0.7513 -0.1081
    7SAPS  H12A  804   4.144   0.273  21.413 -1.2165 -0.0358  1.1001
    7SAPS   C13  805   4.291   0.157  21.502  0.5069  0.8328 -0.4819
    7SAPS  O13A  806   4.414   0.150  21.507 -0.2036 -1.0292 -0.2010
    7SAPS  O13B  807   4.223   0.049  21.510 -0.1761  0.2409 -0.1578
    7SAPS   C11  808   4.135   0.312  21.615  0.4303  0.3266 -0.6053
    7SAPS  H11A  809   4.064   0.226  21.621  0.1868  0.5702  0.1254
    7SAPS  H11B  810   4.075   0.404  21.601 -1.4060 -0.6883  0.1818
    7SAPS     P  811   4.135   0.329  21.876 -0.1464  0.3488  0.2038
    7SAPS   O13  812   4.120   0.184  21.923 -0.1782 -0.0758  0.2899
    7SAPS   O14  813   4.209   0.425  21.963 -0.0256  0.5432 -0.3868
    7SAPS   O12  814   4.211   0.321  21.737  0.1737 -0.9008 -0.0737
    7SAPS   O11  815   3.989   0.385  21.847 -0.5499 -0.3679 -0.3932
    7SAPS    C1  816   3.881   0.301  21.857 -0.4837  0.9157 -0.0170
    7SAPS    HA  817   3.893   0.219  21.782  1.1152  1.5397 -0.5025
    7SAPS    HB  818   3.880   0.250  21.956  0.8413 -3.5178 -1.9852
    7SAPS    C2  819   3.742   0.370  21.832 -0.0624  0.6306 -0.3285
    7SAPS    HS  820   3.757   0.414  21.731  1.6140  0.6227 -0.1002
    7SAPS   O21  821   3.716   0.467  21.937 -0.4101  0.0995  0.0666
    7SAPS   C21  822   3.649   0.574  21.896  0.3000  0.4805  0.0512
    7SAPS   O22  823   3.608   0.597  21.784  0.1633 -0.7151  0.0759
    7SAPS   C22  824   3.604   0.655  22.016  0.3493 -0.3497  0.0203
    7SAPS   H2R  825   3.511   0.617  22.064  0.2592  0.3634  0.4255
    7SAPS   H2S  826   3.680   0.653  22.097 -0.6635 -0.6706  0.9866
    7SAPS    C3  827   3.633   0.257  21.811 -0.2724  0.6746  0.1181
    7SAPS    HX  828   3.642   0.187  21.897  4.0732  0.8926  0.0623
    7SAPS    HY  829   3.641   0.190  21.723 -2.1952 -1.0632  1.1840
    7SAPS   O31  830   3.498   0.311  21.813  0.7329  0.0727  0.3305
    7SAPS   C31  831   3.441   0.342  21.691  0.4233 -0.5830 -0.0827
    7SAPS   O32  832   3.493   0.318  21.585  0.3323  0.4182 -0.4612
    7SAPS   C32  833   3.303   0.407  21.715  0.2274  0.0292 -0.7018
    7SAPS   H2X  834   3.305   0.473  21.804 -0.0934 -0.1285 -0.5749
    7SAPS   H2Y  835   3.237   0.322  21.740  1.3632 -0.6914 -0.0616
    7SAPS   C23  836   3.590   0.808  21.992 -0.4148 -0.0472  0.2298
    7SAPS   H3R  837   3.555   0.815  21.887  0.4636 -0.4237 -0.0971
    7SAPS   H3S  838   3.686   0.864  21.996 -0.1674 -0.5031  1.0603
    7SAPS   C24  839   3.483   0.882  22.078  0.2384 -0.8482  0.2819
    7SAPS   H4R  840   3.490   0.993  22.077 -0.3912 -0.8067  0.0490
    7SAPS   H4S  841   3.497   0.857  22.185 -1.1620 -1.1114  0.4154
    7SAPS   C25  842   3.344   0.842  22.037 -0.4019 -0.1706  0.1384
    7SAPS   H5R  843   3.315   0.752  22.093 -0.7739 -0.4712 -0.5424
    7SAPS   C26  844   3.267   0.892  21.938 -0.0625 -0.2667  0.6190
    7SAPS   H6R  845   3.166   0.857  21.911 -0.0755  1.7162 -2.3165
    7SAPS   C27  846   3.319   1.010  21.848  0.5888 -0.0762 -0.1529
    7SAPS   H7R  847   3.262   1.002  21.753 -1.3693 -0.8120  1.0189
    7SAPS   H7S  848   3.424   0.991  21.816 -0.4664 -1.1980 -3.3597
    7SAPS   C28  849   3.313   1.149  21.914  0.1678 -0.3260 -0.4483
    7SAPS   H8R  850   3.391   1.170  21.989 -0.6505 -1.4748  0.7708
    7SAPS   C29  851   3.238   1.250  21.889  0.3174  0.8611 -0.1741
    7SAPS   H9R  852   3.253   1.345  21.942  2.2275  1.3642 -1.5376
    7SAPS  C210  853   3.116   1.249  21.793 -0.0256  0.5360 -0.4244
    7SAPS  H10R  854   3.023   1.283  21.843 -0.0132 -2.5120  1.9890
    7SAPS  H10S  855   3.089   1.145  21.768  0.3650  0.2437  0.3208
    7SAPS  C211  856   3.147   1.317  21.662  0.4151  0.1473  0.6045
    7SAPS  H11R  857   3.240   1.285  21.612 -0.8247  0.1996 -1.9056
    7SAPS  C212  858   3.057   1.396  21.598  0.3429 -0.1043 -0.1653
    7SAPS  H12R  859   3.080   1.430  21.496  0.3840 -1.5198 -0.6495
    7SAPS  C213  860   2.922   1.446  21.653  0.6624 -0.4083 -0.2667
    7SAPS  H13R  861   2.918   1.555  21.630  1.6068 -0.3076 -0.0025
    7SAPS  H13S  862   2.920   1.445  21.764 -0.7160 -3.7943 -0.2282
    7SAPS  C214  863   2.805   1.369  21.598  0.6470 -0.0510  0.5120
    7SAPS  H14R  864   2.838   1.271  21.561 -0.7404 -0.5097  0.4187
    7SAPS  C215  865   2.675   1.384  21.625 -0.3567 -0.1546 -0.1746
    7SAPS  H15R  866   2.603   1.310  21.588 -1.9056  0.6159  1.1442
    7SAPS  C216  867   2.615   1.508  21.690  0.2517 -0.3924 -0.6613
    7SAPS  H16R  868   2.700   1.574  21.717  0.5293 -1.1049  0.2860
    7SAPS  H16S  869   2.557   1.472  21.778 -1.0338 -0.5955 -1.5548
    7SAPS  C217  870   2.512   1.571  21.582 -0.5166  0.1058  0.2351
    7SAPS  H17R  871   2.434   1.492  21.588  0.0946 -0.4342  1.6587
    7SAPS  H17S  872   2.558   1.571  21.481  0.4143 -3.3717  0.5427
    7SAPS  C218  873   2.457   1.711  21.630 -0.1274  0.6904 -0.1637
    7SAPS  H18R  874   2.462   1.705  21.741 -1.6249  0.0983 -0.1034
    7SAPS  H18S  875   2.355   1.735  21.593  0.4030  0.7478 -1.6251
    7SAPS  C219  876   2.538   1.819  21.576 -0.1604  0.4890  0.2966
    7SAPS  H19R  877   2.543   1.820  21.465  0.9087 -1.1187  0.2960
    7SAPS  H19S  878   2.639   1.788  21.608 -1.2463 -2.7550  0.9173
    7SAPS  C220  879   2.493   1.964  21.631 -0.2763  0.7088 -0.1756
    7SAPS  H20R  880   2.386   1.962  21.658 -1.0579  0.1309 -3.0612
    7SAPS  H20S  881   2.506   2.037  21.548 -2.1094  0.5681 -0.6219
    7SAPS  H20T  882   2.549   1.995  21.722  0.4761 -0.5735 -0.1832
    7SAPS   C33  883   3.242   0.476  21.590  0.2865 -0.3674  0.2033
    7SAPS   H3X  884   3.258   0.426  21.492  0.4963  0.5535 -0.2490
    7SAPS   H3Y  885   3.300   0.570  21.602  0.7234 -0.8422  2.1499
    7SAPS   C34  886   3.088   0.503  21.582  0.4089  0.5082  0.4635
    7SAPS   H4X  887   3.076   0.560  21.488  2.3513 -1.1273 -0.8363
    7SAPS   H4Y  888   3.065   0.569  21.669 -1.8546 -0.7191  0.8603
    7SAPS   C35  889   3.009   0.373  21.595  0.3907  0.1153 -0.4380
    7SAPS   H5X  890   3.027   0.336  21.698  1.7487 -2.0638 -1.3986
    7SAPS   H5Y  891   3.045   0.299  21.521 -0.7216 -0.0980 -0.7930
    7SAPS   C36  892   2.859   0.390  21.567  0.2805  0.5815 -0.2322
    7SAPS   H6X  893   2.828   0.297  21.515  0.6879 -0.8054  1.8609
    7SAPS   H6Y  894   2.840   0.477  21.501 -2.1180 -0.4376 -1.0071
    7SAPS   C37  895   2.782   0.408  21.707 -1.3810  0.1143  0.0774
    7SAPS   H7X  896   2.804   0.506  21.756 -0.1629 -0.1463  0.0882
    7SAPS   H7Y  897   2.824   0.340  21.784 -0.5559  1.8045  1.1882
    7SAPS   C38  898   2.636   0.381  21.708 -1.0331 -0.0010  0.7260
    7SAPS   H8X  899   2.608   0.355  21.812  1.6969  0.1865  1.6058
    7SAPS   H8Y  900   2.624   0.297  21.636  0.8400  1.4549 -1.4597
    7SAPS   C39  901   2.557   0.487  21.641  0.2701  0.1522  0.2649
    7SAPS   H9X  902   2.593   0.512  21.539  2.3273  0.2305  0.9606
    7SAPS   H9Y  903   2.552   0.577  21.705  0.5013 -2.3074  4.0557
    7SAPS  C310  904   2.416   0.439  21.613  0.7474  0.2420  0.5025
    7SAPS  H10X  905   2.384   0.422  21.718 -2.9061 -1.3315 -0.7386
    7SAPS  H10Y  906   2.405   0.338  21.568  1.1074  0.5947 -0.4093
    7SAPS  C311  907   2.320   0.541  21.558 -0.1329 -0.9057 -0.2382
    7SAPS  H11X  908   2.346   0.644  21.590 -0.1489 -0.5650 -1.2919
    7SAPS  H11Y  909   2.217   0.527  21.596  0.1451 -2.8745 -0.0861
    7SAPS  C312  910   2.315   0.532  21.406  0.0294 -0.6187 -0.3982
    7SAPS  H12X  911   2.278   0.431  21.378  1.0947 -1.1774  0.1678
    7SAPS  H12Y  912   2.417   0.531  21.361  1.1753  1.0061  2.0098
    7SAPS  C313  913   2.229   0.642  21.341 -0.2006 -0.3502  0.1861
    7SAPS  H13X  914   2.257   0.746  21.369 -0.6580 -0.4139  0.9168
    7SAPS  H13Y  915   2.131   0.632  21.394 -1.7931  0.1009 -2.4943
    7SAPS  C314  916   2.206   0.640  21.190  0.4355 -0.4398 -0.1270
    7SAPS  H14X  917   2.214   0.541  21.140  0.4289  0.7111 -2.5510
    7SAPS  H14Y  918   2.293   0.699  21.154  0.0992  1.0793  1.4060
    7SAPS  C315  919   2.073   0.709  21.143 -0.8822  0.0434 -0.7635
    7SAPS  H15X  920   1.988   0.644  21.171 -0.4007 -0.5070 -0.5519
    7SAPS  H15Y  921   2.077   0.711  21.032 -1.5162 -0.7995 -0.8127
    7SAPS  C316  922   2.049   0.844  21.225  0.1891 -0.5073  0.4105
    7SAPS  H16X  923   2.138   0.911  21.222  1.1958 -1.8292 -2.0779
    7SAPS  H16Y  924   2.033   0.820  21.332 -1.5652 -1.7963 -0.0927
    7SAPS  C317  925   1.935   0.928  21.174 -0.1186  0.1612  0.0289
    7SAPS  H17X  926   1.951   0.975  21.074 -2.9101  0.4732 -0.3339
    7SAPS  H17Y  927   1.938   1.007  21.251  1.0093 -0.2794  0.4662
    7SAPS  C318  928   1.800   0.853  21.181 -0.3932 -0.7443  0.7134
    7SAPS  H18X  929   1.782   0.822  21.286 -0.9847 -1.3822  0.4307
    7SAPS  H18Y  930   1.790   0.768  21.111  2.5190 -1.6960  1.3162
    7SAPS  H18Z  931   1.724   0.931  21.157 -0.1319 -0.7199 -0.0507
    8SAPS     N  932   0.241   1.562  26.836  0.9809 -0.1535  0.0138
    8SAPS   HN1  933   0.156   1.621  26.838  0.5700 -0.7629  2.0026
    8SAPS   HN2  934   0.219   1.464  26.861  1.2245 -1.3784 -3.9410
    8SAPS   HN3  935   0.314   1.600  26.901 -1.0121  1.6997  1.3180
    8SAPS   C12  936   0.288   1.538  26.695 -0.3558  0.5262  0.5030
    8SAPS  H12A  937   0.395   1.524  26.706 -0.4271 -1.1793 -0.5942
    8SAPS   C13  938   0.248   1.406  26.635  0.0244  0.4747 -0.5118
    8SAPS  O13A  939   0.202   1.316  26.708 -0.0591  0.3385  0.1446
    8SAPS  O13B  940   0.300   1.378  26.523 -0.8149  0.0319 -0.5546
    8SAPS   C11  941   0.254   1.664  26.610 -0.0444 -0.2364 -0.5395
    8SAPS  H11A  942   0.143   1.668  26.614 -0.0220  0.1310 -0.2032
    8SAPS  H11B  943   0.269   1.644  26.502  1.1337 -0.0703 -0.4195
    8SAPS     P  944   0.408   1.877  26.589  0.3969 -0.0260 -0.2561
    8SAPS   O13  945   0.341   1.935  26.472 -0.0024 -0.4469  0.6169
    8SAPS   O14  946   0.478   1.972  26.673 -0.2618 -0.1496  0.0097
    8SAPS   O12  947   0.303   1.792  26.666  0.2604  0.0834 -0.6598
    8SAPS   O11  948   0.505   1.759  26.549 -0.0003 -0.4283  0.7653
    8SAPS    C1  949   0.527   1.710  26.420  0.4452 -0.1275 -0.5657
    8SAPS    HA  950   0.450   1.633  26.402  0.3508 -0.1555 -0.0644
    8SAPS    HB  951   0.513   1.789  26.342  3.4435  1.6742  0.5268
    8SAPS    C2  952   0.665   1.646  26.396 -0.3435  0.7740  0.1879
    8SAPS    HS  953   0.669   1.557  26.462 -1.0866  0.5018 -0.1302
    8SAPS   O21  954   0.770   1.741  26.425 -0.1413 -0.0050  0.1705
    8SAPS   C21  955   0.887   1.692  26.454  0.5173 -0.0751 -0.2849
    8SAPS   O22  956   0.910   1.573  26.479 -0.0040  0.0264  0.1294
    8SAPS   C22  957   0.987   1.804  26.442 -0.1765 -0.6302  0.0635
    8SAPS   H2R  958   0.944   1.887  26.382 -0.3249 -1.0355 -0.3972
    8SAPS   H2S  959   1.000   1.834  26.548 -0.3825  0.9305 -0.3255
    8SAPS    C3  960   0.673   1.582  26.251 -0.1037  0.7631 -0.3310
    8SAPS    HX  961   0.682   1.662  26.174 -1.4275  1.5446  0.2786
    8SAPS    HY  962   0.577   1.527  26.245  1.9627 -3.1656 -0.3410
    8SAPS   O31  963   0.766   1.478  26.249  0.0930 -0.3384  0.7710
    8SAPS   C31  964   0.778   1.425  26.128  0.0793  0.3704  0.8976
    8SAPS   O32  965   0.695   1.430  26.036 -0.8384  0.1439  0.5830
    8SAPS   C32  966   0.914   1.357  26.106 -0.0673  0.3412 -0.4436
    8SAPS   H2X  967   0.899   1.249  26.129  1.8131  0.3043  0.8431
    8SAPS   H2Y  968   0.985   1.393  26.184  2.1690 -2.3459 -1.0469
    8SAPS   C23  969   1.126   1.761  26.380 -0.4528 -0.5461 -0.3590
    8SAPS   H3R  970   1.148   1.668  26.436 -1.4828 -1.2377 -1.0659
    8SAPS   H3S  971   1.207   1.834  26.400 -0.3406 -0.9557  0.7760
    8SAPS   C24  972   1.108   1.734  26.224 -0.7167 -0.5577 -0.4273
    8SAPS   H4R  973   1.044   1.644  26.216 -0.8268 -0.4164 -1.3440
    8SAPS   H4S  974   1.199   1.681  26.189  0.7045  1.0487  0.6679
    8SAPS   C25  975   1.053   1.845  26.133 -0.1802  0.3603  0.2281
    8SAPS   H5R  976   0.945   1.848  26.113 -0.0121  1.7833 -0.6399
    8SAPS   C26  977   1.137   1.907  26.043 -0.6744 -0.6317  0.4705
    8SAPS   H6R  978   1.095   1.982  25.974  0.2250 -0.0320  0.5634
    8SAPS   C27  979   1.284   1.914  26.048 -0.0992 -0.4548  0.0260
    8SAPS   H7R  980   1.313   1.876  26.149 -1.3774  1.6289  1.2542
    8SAPS   H7S  981   1.320   2.018  26.033  0.9291 -1.0336 -1.7663
    8SAPS   C28  982   1.354   1.827  25.945 -0.1670 -0.2777 -0.5361
    8SAPS   H8R  983   1.383   1.726  25.976 -0.4297 -0.6729 -1.5379
    8SAPS   C29  984   1.380   1.860  25.816 -0.4312 -0.2788  0.6127
    8SAPS   H9R  985   1.417   1.782  25.748  0.7681  0.9549 -0.2024
    8SAPS  C210  986   1.353   1.999  25.751  0.2032 -0.3582 -0.1704
    8SAPS  H10R  987   1.310   2.084  25.809  2.2836  0.7468 -0.1461
    8SAPS  H10S  988   1.279   1.989  25.669  1.0688  2.4244 -1.3939
    8SAPS  C211  989   1.474   2.058  25.688  0.6304 -0.1812 -0.7287
    8SAPS  H11R  990   1.516   2.139  25.750 -0.0873 -1.8069  2.0114
    8SAPS  C212  991   1.531   2.026  25.571  0.2663 -0.0720 -0.8735
    8SAPS  H12R  992   1.613   2.095  25.546 -2.0750  3.5725  0.5476
    8SAPS  C213  993   1.488   1.915  25.473  0.0429  0.0452 -0.0383
    8SAPS  H13R  994   1.379   1.897  25.481  0.2674 -1.2717  0.2563
    8SAPS  H13S  995   1.546   1.826  25.504  0.9290  0.0390 -1.6160
    8SAPS  C214  996   1.520   1.927  25.322  0.3109 -0.2534  0.2454
    8SAPS  H14R  997   1.620   1.905  25.281 -0.6328 -4.5109 -0.2656
    8SAPS  C215  998   1.424   1.963  25.237  0.4038 -0.3600 -0.1199
    8SAPS  H15R  999   1.450   1.968  25.131 -0.2253  2.1368 -0.2171
    8SAPS  C216 1000   1.281   2.003  25.269  0.1783 -0.1945 -0.1382
    8SAPS  H16R 1001   1.245   2.090  25.209  1.7351  2.6870  2.7865
    8SAPS  H16S 1002   1.261   2.033  25.374  1.5719 -2.4643  0.8444
    8SAPS  C217 1003   1.172   1.896  25.245 -0.0260 -0.3751  0.5733
    8SAPS  H17R 1004   1.197   1.802  25.298 -0.6197 -0.5948  0.4718
    8SAPS  H17S 1005   1.162   1.870  25.138 -1.0020  1.1667  0.2560
    8SAPS  C218 1006   1.032   1.951  25.285 -0.5490  0.2826  0.4505
    8SAPS  H18R 1007   0.993   2.008  25.198  0.5677  1.8077  0.9135
    8SAPS  H18S 1008   1.044   2.020  25.371  2.7818  0.5232 -0.0668
    8SAPS  C219 1009   0.945   1.833  25.329  0.3610  0.6305 -0.5728
    8SAPS  H19R 1010   0.845   1.870  25.360 -1.2475 -1.6784 -2.6469
    8SAPS  H19S 1011   0.995   1.793  25.419  0.9764 -0.3314 -1.3280
    8SAPS  C220 1012   0.924   1.707  25.247  0.3451 -0.3875  0.3213
    8SAPS  H20R 1013   0.870   1.731  25.153  0.0032 -0.2291  0.5585
    8SAPS  H20S 1014   0.869   1.629  25.304  0.9000 -2.1329 -1.4126
    8SAPS  H20T 1015   1.020   1.658  25.219  0.9427  1.5908 -1.2894
    8SAPS   C33 1016   0.975   1.383  25.963  0.2129  0.2723  0.7053
    8SAPS   H3X 1017   0.894   1.340  25.900 -0.5301  0.5543  1.4498
    8SAPS   H3Y 1018   1.065   1.318  25.955 -0.0217 -0.4385  3.0462
    8SAPS   C34 1019   1.028   1.520  25.939  0.1635  0.0248  0.3890
    8SAPS   H4X 1020   1.103   1.540  26.018 -1.7263  3.4701  1.5254
    8SAPS   H4Y 1021   0.955   1.599  25.968  0.1288 -0.0844  0.6012
    8SAPS   C35 1022   1.086   1.533  25.800 -0.0148 -0.3453  0.6488
    8SAPS   H5X 1023   1.111   1.641  25.792 -2.0533  0.3296  2.3237
    8SAPS   H5Y 1024   1.009   1.515  25.721  1.6092  2.9784 -1.9835
    8SAPS   C36 1025   1.206   1.442  25.762 -0.2267 -0.3961  0.5123
    8SAPS   H6X 1026   1.162   1.343  25.735  1.3502 -0.4958 -2.0474
    8SAPS   H6Y 1027   1.281   1.447  25.844 -1.0879  2.1650  1.2335
    8SAPS   C37 1028   1.273   1.502  25.639 -0.3075  0.3874 -0.0271
    8SAPS   H7X 1029   1.374   1.456  25.628 -0.3346  0.6639 -1.8757
    8SAPS   H7Y 1030   1.285   1.609  25.667  1.0744 -0.0238  1.0676
    8SAPS   C38 1031   1.195   1.487  25.507  0.4612 -0.0892  0.0082
    8SAPS   H8X 1032   1.099   1.544  25.508  0.3924 -0.1872 -0.5996
    8SAPS   H8Y 1033   1.166   1.381  25.491 -0.1402  0.0537  0.1248
    8SAPS   C39 1034   1.275   1.540  25.396 -0.3992 -0.8847  1.4259
    8SAPS   H9X 1035   1.352   1.612  25.431 -1.5240  1.1912 -0.1085
    8SAPS   H9Y 1036   1.212   1.601  25.327  2.2960 -0.1057 -0.5136
    8SAPS  C310 1037   1.342   1.433  25.312 -0.3820 -0.5714  0.1201
    8SAPS  H10X 1038   1.273   1.351  25.283  0.2790 -2.0350  2.3590
    8SAPS  H10Y 1039   1.421   1.387  25.376  0.6984  0.0239 -0.7585
    8SAPS  C311 1040   1.421   1.496  25.194  0.0479  0.5311 -0.2008
    8SAPS  H11X 1041   1.472   1.589  25.229  0.1264  0.1461  0.7205
    8SAPS  H11Y 1042   1.349   1.536  25.119 -1.8561 -0.3889  1.0719
    8SAPS  C312 1043   1.532   1.408  25.128  0.0382 -0.2860 -0.3254
    8SAPS  H12X 1044   1.579   1.358  25.215 -0.2105  2.7129  1.6531
    8SAPS  H12Y 1045   1.597   1.478  25.071  1.1807 -0.0341  1.2418
    8SAPS  C313 1046   1.479   1.300  25.036  0.4356  0.3490  0.1703
    8SAPS  H13X 1047   1.413   1.346  24.958  0.1123 -1.0005 -0.3712
    8SAPS  H13Y 1048   1.418   1.226  25.091  1.5213 -1.0072 -0.3960
    8SAPS  C314 1049   1.599   1.228  24.961 -0.0408 -0.4702  0.3574
    8SAPS  H14X 1050   1.554   1.149  24.896 -2.8846  0.1456  1.4462
    8SAPS  H14Y 1051   1.667   1.184  25.036  2.4208 -0.7854 -1.8835
    8SAPS  C315 1052   1.688   1.314  24.877 -0.8716  0.4005 -0.0418
    8SAPS  H15X 1053   1.713   1.410  24.927  1.4889 -0.7514  1.1292
    8SAPS  H15Y 1054   1.630   1.339  24.785 -0.8604  2.2520  0.4083
    8SAPS  C316 1055   1.811   1.233  24.835 -0.6049  0.5980  0.1520
    8SAPS  H16X 1056   1.765   1.134  24.813 -1.2499  1.2405 -1.5012
    8SAPS  H16Y 1057   1.870   1.213  24.928  3.0598  0.9882 -1.8849
    8SAPS  C317 1058   1.916   1.300  24.742  0.6435 -1.1462  0.0171
    8SAPS  H17X 1059   1.991   1.221  24.720  1.1462 -0.3823 -1.1210
    8SAPS  H17Y 1060   1.953   1.395  24.785 -0.6767  0.0728 -1.4104
    8SAPS  C318 1061   1.854   1.322  24.607  0.5378  0.1429 -0.1227
    8SAPS  H18X 1062   1.824   1.220  24.576  0.8323  0.4629 -1.5487
    8SAPS  H18Y 1063   1.940   1.346  24.541  1.9008  1.9296  2.1576
    8SAPS  H18Z 1064   1.773   1.398  24.599  0.1276 -0.2178  0.4974
    9SAPS     N 1065   1.657   3.721  19.215  0.1755  0.3545 -0.0216
    9SAPS   HN1 1066   1.623   3.651  19.284  0.1658  0.3000 -0.0816
    9SAPS   HN2 1067   1.750   3.760  19.239 -0.2191  1.1564  0.2469
    9SAPS   HN3 1068   1.600   3.807  19.222 -1.8266 -0.9264  0.4782
    9SAPS   C12 1069   1.647   3.665  19.072 -0.3782 -0.2383 -0.2112
    9SAPS  H12A 1070   1.548   3.691  19.038 -0.7950 -1.4997 -0.0169
    9SAPS   C13 1071   1.743   3.749  18.997  0.0786 -0.3133 -0.1698
    9SAPS  O13A 1072   1.815   3.841  19.044  0.1000  0.2417  0.2877
    9SAPS  O13B 1073   1.735   3.741  18.871  0.2845 -0.3018 -0.3888
    9SAPS   C11 1074   1.677   3.514  19.072 -0.3325 -0.6329 -0.6985
    9SAPS  H11A 1075   1.668   3.475  18.969 -1.0642 -0.3710 -0.7409
    9SAPS  H11B 1076   1.600   3.460  19.131 -3.1249  2.7013 -0.9584
    9SAPS     P 1077   1.871   3.348  19.109 -0.2130  0.0126  0.2094
    9SAPS   O13 1078   1.836   3.278  18.981  1.0198  0.0232  0.2686
    9SAPS   O14 1079   2.019   3.344  19.144 -0.3638 -0.1057  0.7684
    9SAPS   O12 1080   1.821   3.495  19.110  0.7511  0.1663  0.0344
    9SAPS   O11 1081   1.782   3.277  19.218  0.3908 -0.1273  0.1403
    9SAPS    C1 1082   1.806   3.147  19.281  0.6144  0.5363 -0.0673
    9SAPS    HA 1083   1.762   3.068  19.217  0.2493  0.1941  0.5922
    9SAPS    HB 1084   1.914   3.126  19.292  0.5493  0.9586  1.6569
    9SAPS    C2 1085   1.744   3.150  19.427 -0.3156  0.1331  0.4187
    9SAPS    HS 1086   1.745   3.046  19.465 -0.1263  0.4781  1.3724
    9SAPS   O21 1087   1.605   3.194  19.424 -0.3694  0.4190  0.1778
    9SAPS   C21 1088   1.523   3.098  19.393  0.4770  0.2548  0.1821
    9SAPS   O22 1089   1.545   2.980  19.385  0.1937  0.0427 -0.9731
    9SAPS   C22 1090   1.387   3.171  19.361 -0.5435  0.2526 -0.0670
    9SAPS   H2R 1091   1.352   3.195  19.464  1.6066 -1.4169  1.1426
    9SAPS   H2S 1092   1.401   3.259  19.296  1.4098  2.2056  2.7547
    9SAPS    C3 1093   1.832   3.229  19.514  0.5053  0.6318 -0.5548
    9SAPS    HX 1094   1.843   3.325  19.459 -1.5882  0.9219 -0.5641
    9SAPS    HY 1095   1.933   3.188  19.535 -0.5013 -0.5906  2.3746
    9SAPS   O31 1096   1.760   3.252  19.641 -0.3192  0.0809 -0.1951
    9SAPS   C31 1097   1.825   3.337  19.719  0.2844  0.0510  0.3081
    9SAPS   O32 1098   1.932   3.392  19.692 -0.0207 -0.6399 -0.1695
    9SAPS   C32 1099   1.757   3.347  19.844 -0.0292  0.3910 -0.3512
    9SAPS   H2X 1100   1.778   3.254  19.900  1.3632 -0.3473 -1.9963
    9SAPS   H2Y 1101   1.649   3.366  19.825 -0.0524 -0.4756 -1.1555
    9SAPS   C23 1102   1.276   3.090  19.280 -0.1423  0.5765 -0.4228
    9SAPS   H3R 1103   1.288   2.980  19.296 -0.8156  0.6591  0.7610
    9SAPS   H3S 1104   1.300   3.105  19.172 -1.4732  1.5685 -0.6113
    9SAPS   C24 1105   1.141   3.143  19.317 -0.5199 -0.0463 -0.4914
    9SAPS   H4R 1106   1.147   3.254  19.316  0.8529 -0.0995 -0.1826
    9SAPS   H4S 1107   1.124   3.108  19.421  0.9395 -1.8084 -0.7937
    9SAPS   C25 1108   1.023   3.100  19.230 -0.3047  0.0721 -0.7630
    9SAPS   H5R 1109   1.019   3.148  19.130 -0.3734 -0.9036 -1.2383
    9SAPS   C26 1110   0.915   3.031  19.260  0.1168 -0.5516  0.4431
    9SAPS   H6R 1111   0.840   3.025  19.179 -0.6887 -0.2419  1.1509
    9SAPS   C27 1112   0.874   2.963  19.385  0.0667  0.5997  0.3672
    9SAPS   H7R 1113   0.773   2.996  19.419  0.2789 -1.1743  2.9486
    9SAPS   H7S 1114   0.932   2.986  19.477 -0.4759 -2.5649  1.6357
    9SAPS   C28 1115   0.872   2.815  19.370 -0.0907  0.3446 -0.0520
    9SAPS   H8R 1116   0.967   2.776  19.331 -0.2534  0.0482 -0.1587
    9SAPS   C29 1117   0.787   2.723  19.420  0.7019  0.9355  0.0110
    9SAPS   H9R 1118   0.804   2.617  19.394  0.0523  0.7294  0.3830
    9SAPS  C210 1119   0.671   2.749  19.515  0.0792 -0.1212 -0.2324
    9SAPS  H10R 1120   0.581   2.730  19.453  0.5886  0.6302 -1.2385
    9SAPS  H10S 1121   0.665   2.858  19.534  0.6791  0.5498 -3.2574
    9SAPS  C211 1122   0.656   2.656  19.630 -0.7616 -0.3961 -0.5417
    9SAPS  H11R 1123   0.754   2.635  19.676 -1.3552 -1.0857  0.4529
    9SAPS  C212 1124   0.549   2.581  19.671  0.8891  0.5938 -0.4444
    9SAPS  H12R 1125   0.554   2.511  19.756 -3.4342 -0.7823 -1.0494
    9SAPS  C213 1126   0.407   2.596  19.625 -0.0083 -0.3198 -0.2962
    9SAPS  H13R 1127   0.390   2.698  19.586 -3.6100 -1.4975 -2.3348
    9SAPS  H13S 1128   0.335   2.576  19.707  0.9852 -0.5154  0.5543
    9SAPS  C214 1129   0.401   2.486  19.519  0.3222  0.2268  0.0807
    9SAPS  H14R 1130   0.493   2.452  19.469 -0.5768  1.0397 -2.2964
    9SAPS  C215 1131   0.293   2.437  19.472  0.2745  0.1926  0.4034
    9SAPS  H15R 1132   0.303   2.359  19.395  0.7047  1.1477 -0.5567
    9SAPS  C216 1133   0.151   2.459  19.526  0.3923 -0.2582 -0.0077
    9SAPS  H16R 1134   0.147   2.496  19.631 -1.1198 -1.5191  0.4254
    9SAPS  H16S 1135   0.106   2.357  19.520 -0.3813  0.0196  0.8492
    9SAPS  C217 1136   0.063   2.557  19.442 -1.0809  0.6204 -0.3998
    9SAPS  H17R 1137  -0.040   2.548  19.481 -0.7485  1.0425  0.6198
    9SAPS  H17S 1138   0.072   2.527  19.336  4.2738  2.3812 -0.7765
    9SAPS  C218 1139   0.131   2.699  19.437  0.5251  1.0391  0.3542
    9SAPS  H18R 1140   0.242   2.691  19.428  0.3409  1.1260 -3.1169
    9SAPS  H18S 1141   0.111   2.743  19.537 -1.6000 -0.4175  0.6514
    9SAPS  C219 1142   0.080   2.795  19.325 -0.2379  0.0650 -0.3494
    9SAPS  H19R 1143   0.131   2.891  19.349 -1.0136  0.4430 -0.1594
    9SAPS  H19S 1144  -0.030   2.812  19.332 -0.1295  0.5823  0.2253
    9SAPS  C220 1145   0.123   2.761  19.181 -0.6059 -0.3348  0.5498
    9SAPS  H20R 1146   0.095   2.841  19.110  2.8937 -0.8304 -1.6471
    9SAPS  H20S 1147   0.081   2.661  19.156  1.2576 -1.1588  0.5630
    9SAPS  H20T 1148   0.233   2.768  19.167 -0.6464  1.6730  0.9865
    9SAPS   C33 1149   1.806   3.461  19.938  0.4331  0.3417 -0.7941
    9SAPS   H3X 1150   1.721   3.492  20.003 -0.3332 -0.4298 -1.4113
    9SAPS   H3Y 1151   1.842   3.548  19.881  1.6775  1.8740  2.1038
    9SAPS   C34 1152   1.928   3.421  20.027 -0.1951  0.3157  0.0391
    9SAPS   H4X 1153   1.975   3.515  20.063 -2.0747  0.7295  1.5990
    9SAPS   H4Y 1154   1.990   3.359  19.958 -2.0381 -1.2940 -0.2468
    9SAPS   C35 1155   1.880   3.334  20.149  0.0113 -0.1457  0.3704
    9SAPS   H5X 1156   1.837   3.239  20.108  1.0962 -0.2790 -0.4977
    9SAPS   H5Y 1157   1.811   3.378  20.224  0.4236 -0.0653  0.7063
    9SAPS   C36 1158   2.001   3.289  20.235  1.1883 -0.0693  0.1724
    9SAPS   H6X 1159   2.050   3.376  20.283  1.4805  0.2239 -0.6290
    9SAPS   H6Y 1160   2.077   3.244  20.168  1.9988 -0.5276  1.3633
    9SAPS   C37 1161   1.970   3.174  20.336  0.1500  0.6543  0.6515
    9SAPS   H7X 1162   1.943   3.080  20.282  1.4604  0.7950 -0.3093
    9SAPS   H7Y 1163   1.885   3.203  20.401 -0.3124 -0.5662  0.6139
    9SAPS   C38 1164   2.093   3.127  20.408  0.2126 -0.5603 -0.4444
    9SAPS   H8X 1165   2.114   3.195  20.493 -1.5579  0.8200 -1.0641
    9SAPS   H8Y 1166   2.185   3.121  20.346  2.2271 -1.4154  2.4342
    9SAPS   C39 1167   2.090   2.980  20.461 -0.2818 -0.0640 -0.0588
    9SAPS   H9X 1168   2.086   2.921  20.366  0.2073  2.5793 -1.8280
    9SAPS   H9Y 1169   1.996   2.946  20.511 -0.3248 -0.5403 -0.4509
    9SAPS  C310 1170   2.214   2.933  20.532 -0.3170 -0.5420 -1.0334
    9SAPS  H10X 1171   2.309   2.939  20.476 -0.2450 -1.0215 -0.9680
    9SAPS  H10Y 1172   2.211   2.823  20.549  3.2577 -0.4263  1.4235
    9SAPS  C311 1173   2.229   2.997  20.677  0.4159  0.7889 -0.1968
    9SAPS  H11X 1174   2.136   3.001  20.737 -0.6802  0.1711 -1.7883
    9SAPS  H11Y 1175   2.252   3.103  20.655 -0.4040  1.0504  0.2087
    9SAPS  C312 1176   2.342   2.933  20.751  0.2517  0.0506 -0.2971
    9SAPS  H12X 1177   2.436   2.941  20.692  0.0878  3.4685 -0.3215
    9SAPS  H12Y 1178   2.322   2.825  20.763 -2.0427  0.4245 -0.3949
    9SAPS  C313 1179   2.384   3.004  20.885 -0.2985 -0.0295 -0.2489
    9SAPS  H13X 1180   2.410   3.108  20.855 -3.1497  0.3508 -1.7988
    9SAPS  H13Y 1181   2.479   2.954  20.915  1.6327  1.9062 -2.7637
    9SAPS  C314 1182   2.268   3.015  20.991 -0.2212  0.1327 -0.5837
    9SAPS  H14X 1183   2.185   3.080  20.957  0.5054  0.3041 -2.1380
    9SAPS  H14Y 1184   2.303   3.066  21.083 -2.0032 -1.3215  0.9754
    9SAPS  C315 1185   2.204   2.880  21.029  0.0862  0.0970 -0.4418
    9SAPS  H15X 1186   2.285   2.808  21.057  0.7120  0.8807 -0.2026
    9SAPS  H15Y 1187   2.149   2.852  20.937 -1.2614  1.1590  0.0192
    9SAPS  C316 1188   2.106   2.898  21.148  0.8844  0.0992 -0.7963
    9SAPS  H16X 1189   2.061   3.000  21.143  0.8006  0.3189  2.5948
    9SAPS  H16Y 1190   2.164   2.898  21.242  1.4373 -2.6173 -1.0497
    9SAPS  C317 1191   2.003   2.788  21.160  0.0291  0.0331 -0.0453
    9SAPS  H17X 1192   2.045   2.685  21.156 -0.7433 -0.2738 -0.3800
    9SAPS  H17Y 1193   1.949   2.788  21.063  0.0218  2.1159 -0.0970
    9SAPS  C318 1194   1.912   2.794  21.290 -0.2236 -0.4753  0.6116
    9SAPS  H18X 1195   1.835   2.714  21.299 -1.1625  0.1424 -1.5098
    9SAPS  H18Y 1196   1.866   2.894  21.300 -1.7839 -1.1674  0.6795
    9SAPS  H18Z 1197   1.979   2.790  21.379  4.2490 -0.7490 -2.4660
   10SAPS     N 1198   0.994   0.484  14.785 -0.2732  0.0910  0.2732
   10SAPS   HN1 1199   0.965   0.449  14.879 -0.5707  1.7189  0.8051
   10SAPS   HN2 1200   0.921   0.476  14.711  1.3675  0.1590 -1.4477
   10SAPS   HN3 1201   1.079   0.437  14.748 -0.8170  0.1704 -1.1394
   10SAPS   C12 1202   1.019   0.629  14.824 -0.6530 -0.9959  0.0670
   10SAPS  H12A 1203   0.936   0.672  14.879  0.4496  0.3133  0.7725
   10SAPS   C13 1204   1.142   0.661  14.914 -0.5846 -0.1885 -0.7254
   10SAPS  O13A 1205   1.222   0.570  14.945  0.2123  0.4917 -0.2291
   10SAPS  O13B 1206   1.174   0.780  14.938 -0.0221 -0.1200  0.3213
   10SAPS   C11 1207   1.028   0.721  14.702  0.1331 -0.1463 -0.0274
   10SAPS  H11A 1208   1.118   0.694  14.643 -0.0383 -2.9841  0.8961
   10SAPS  H11B 1209   1.055   0.827  14.723 -0.4043  0.0162 -0.1623
   10SAPS     P 1210   0.808   0.818  14.615  0.0242 -0.2398  0.1499
   10SAPS   O13 1211   0.866   0.953  14.594  0.3058  0.6162  0.0387
   10SAPS   O14 1212   0.691   0.774  14.535 -0.1267  0.4308  0.2872
   10SAPS   O12 1213   0.916   0.699  14.615 -0.1288 -0.6613  0.0715
   10SAPS   O11 1214   0.771   0.810  14.768 -0.8117 -0.1207 -0.0708
   10SAPS    C1 1215   0.662   0.878  14.819  0.3828 -0.1425 -0.3032
   10SAPS    HA 1216   0.655   0.980  14.776 -1.7152 -0.1679 -0.1229
   10SAPS    HB 1217   0.564   0.830  14.797 -2.0793  3.2142  2.3132
   10SAPS    C2 1218   0.674   0.894  14.966 -0.0001 -0.3899 -1.0914
   10SAPS    HS 1219   0.772   0.934  14.999 -0.6581  0.0838  0.3718
   10SAPS   O21 1220   0.645   0.756  15.017 -1.0112  0.5844  0.4738
   10SAPS   C21 1221   0.730   0.711  15.103  0.1320  0.3927  0.2430
   10SAPS   O22 1222   0.826   0.772  15.150  0.7497  0.7364  0.2731
   10SAPS   C22 1223   0.673   0.573  15.133  0.7638  0.1503  0.3423
   10SAPS   H2R 1224   0.569   0.569  15.094  0.2317  1.2090  1.5791
   10SAPS   H2S 1225   0.735   0.501  15.074  1.2128  0.3162  0.6014
   10SAPS    C3 1226   0.560   0.992  15.014  0.2950 -0.2900 -0.4986
   10SAPS    HX 1227   0.542   0.990  15.124  2.2710 -0.0247 -0.1321
   10SAPS    HY 1228   0.461   0.962  14.975 -0.4204 -1.6952  2.1993
   10SAPS   O31 1229   0.590   1.120  14.976  0.3420 -0.7747 -0.5265
   10SAPS   C31 1230   0.674   1.179  15.055 -0.5813  0.3884 -0.4115
   10SAPS   O32 1231   0.729   1.137  15.158 -0.0049  0.3428  0.3094
   10SAPS   C32 1232   0.692   1.327  15.009  0.0382 -0.3686 -0.1015
   10SAPS   H2X 1233   0.792   1.361  15.043  0.3652 -2.2856  0.9757
   10SAPS   H2Y 1234   0.615   1.388  15.059 -0.9881 -1.8820  0.2309
   10SAPS   C23 1235   0.675   0.532  15.277 -0.3040  0.5922  0.1654
   10SAPS   H3R 1236   0.775   0.541  15.324  0.5905 -3.0373 -0.7245
   10SAPS   H3S 1237   0.656   0.423  15.281  2.4634 -0.1324 -2.6630
   10SAPS   C24 1238   0.547   0.592  15.346  0.0679  0.0222  0.4768
   10SAPS   H4R 1239   0.530   0.535  15.440  1.0564 -1.0027  0.0528
   10SAPS   H4S 1240   0.457   0.571  15.285 -0.5328 -1.0130  1.6815
   10SAPS   C25 1241   0.566   0.741  15.373 -0.5607  0.1441 -0.1921
   10SAPS   H5R 1242   0.659   0.782  15.416 -0.9989  2.7283 -1.5262
   10SAPS   C26 1243   0.458   0.824  15.352 -0.3083 -0.4264 -0.4825
   10SAPS   H6R 1244   0.468   0.930  15.379 -2.8174  0.3524 -2.2991
   10SAPS   C27 1245   0.320   0.789  15.308 -0.0200 -0.5126 -0.8132
   10SAPS   H7R 1246   0.320   0.720  15.220  3.5554  0.2450 -1.5307
   10SAPS   H7S 1247   0.270   0.874  15.257  0.5980 -1.1334 -2.5153
   10SAPS   C28 1248   0.244   0.708  15.418 -0.0561 -0.2246  0.0412
   10SAPS   H8R 1249   0.285   0.615  15.461  0.9729  0.6559  1.0611
   10SAPS   C29 1250   0.126   0.743  15.473  0.1768 -0.1453 -0.4767
   10SAPS   H9R 1251   0.073   0.676  15.543 -0.0808  1.3647  0.8257
   10SAPS  C210 1252   0.039   0.861  15.433 -0.3334  0.0757  0.2262
   10SAPS  H10R 1253  -0.059   0.813  15.411 -1.0436  0.3794  2.4235
   10SAPS  H10S 1254   0.077   0.898  15.336  0.2702 -1.3405 -0.1077
   10SAPS  C211 1255   0.029   0.981  15.531  0.0776 -0.1349  0.1489
   10SAPS  H11R 1256   0.096   0.977  15.618  0.3929 -0.1906 -0.0977
   10SAPS  C212 1257  -0.064   1.081  15.536  0.3444  0.3224 -0.7377
   10SAPS  H12R 1258  -0.060   1.153  15.620 -2.2761  1.5545 -1.5627
   10SAPS  C213 1259  -0.174   1.109  15.443  0.4109 -0.4733  0.5342
   10SAPS  H13R 1260  -0.141   1.069  15.345  1.1693 -0.4669  0.7820
   10SAPS  H13S 1261  -0.184   1.217  15.423  2.6914 -0.6654 -2.1857
   10SAPS  C214 1262  -0.300   1.036  15.473  0.1932 -0.2472 -0.1724
   10SAPS  H14R 1263  -0.309   0.926  15.471  1.2197 -0.3803  0.9262
   10SAPS  C215 1264  -0.403   1.100  15.535 -0.6860  0.2174 -0.1553
   10SAPS  H15R 1265  -0.489   1.037  15.563 -1.4735  1.5018  0.3931
   10SAPS  C216 1266  -0.408   1.245  15.591  0.6904  0.6493  0.1926
   10SAPS  H16R 1267  -0.486   1.303  15.536 -2.2007 -1.2184  2.0664
   10SAPS  H16S 1268  -0.314   1.303  15.580  0.0225  1.7238 -0.0077
   10SAPS  C217 1269  -0.445   1.232  15.738  0.3893  0.0549  0.5226
   10SAPS  H17R 1270  -0.439   1.330  15.790 -0.6137  1.0905 -1.1966
   10SAPS  H17S 1271  -0.383   1.156  15.790 -0.3781 -0.3016  0.9218
   10SAPS  C218 1272  -0.596   1.205  15.765  0.4054  0.5675  0.2747
   10SAPS  H18R 1273  -0.616   1.107  15.716 -0.8985  0.5183  0.8691
   10SAPS  H18S 1274  -0.661   1.284  15.721  0.4863  0.1125 -0.6928
   10SAPS  C219 1275  -0.614   1.177  15.913  0.2602 -0.2187  0.1062
   10SAPS  H19R 1276  -0.557   1.085  15.938 -2.8665 -1.9351  1.6639
   10SAPS  H19S 1277  -0.721   1.147  15.919  0.0618 -0.1300 -2.3028
   10SAPS  C220 1278  -0.590   1.306  16.004 -0.3469 -0.1204  0.4691
   10SAPS  H20R 1279  -0.679   1.372  16.004 -1.2581 -1.2328  2.5489
   10SAPS  H20S 1280  -0.493   1.357  15.989 -0.5892  0.6288  1.3560
   10SAPS  H20T 1281  -0.584   1.281  16.112 -0.6404  1.0800  0.7710
   10SAPS   C33 1282   0.687   1.358  14.854 -0.3437 -0.1578 -0.0869
   10SAPS   H3X 1283   0.695   1.259  14.804  2.4692 -0.6827  1.1880
   10SAPS   H3Y 1284   0.789   1.393  14.829  0.9050 -2.9330  0.7100
   10SAPS   C34 1285   0.587   1.463  14.802 -0.1513  0.4061  0.6886
   10SAPS   H4X 1286   0.489   1.429  14.843  0.5162  0.2872  2.2781
   10SAPS   H4Y 1287   0.581   1.462  14.692 -1.3872 -1.4662  0.7164
   10SAPS   C35 1288   0.617   1.609  14.845 -0.2246 -0.6199 -0.2693
   10SAPS   H5X 1289   0.715   1.640  14.801 -0.3800  1.5546  0.7701
   10SAPS   H5Y 1290   0.647   1.622  14.951  0.6248  1.1299 -0.6853
   10SAPS   C36 1291   0.502   1.699  14.791 -0.8269  0.3748  0.2296
   10SAPS   H6X 1292   0.409   1.640  14.803 -0.3735 -0.7689 -1.4882
   10SAPS   H6Y 1293   0.509   1.708  14.680  0.1487  0.5286  0.2933
   10SAPS   C37 1294   0.489   1.842  14.856  0.4272 -0.3037 -0.4683
   10SAPS   H7X 1295   0.395   1.889  14.820  0.7288 -0.9969 -2.2664
   10SAPS   H7Y 1296   0.580   1.899  14.828  0.4261 -0.7327 -1.3755
   10SAPS   C38 1297   0.473   1.835  15.008  0.5189 -1.2551 -0.4770
   10SAPS   H8X 1298   0.568   1.795  15.050  0.6027 -0.0510  0.5134
   10SAPS   H8Y 1299   0.387   1.773  15.039 -2.1074  1.9637 -0.8231
   10SAPS   C39 1300   0.458   1.971  15.082  0.2346  0.0495  0.7259
   10SAPS   H9X 1301   0.363   2.019  15.050 -1.0401 -1.9186  1.3512
   10SAPS   H9Y 1302   0.546   2.037  15.072  0.3618  0.1349  2.1459
   10SAPS  C310 1303   0.444   1.936  15.228  0.3487  0.6988 -0.1005
   10SAPS  H10X 1304   0.529   1.877  15.269  1.2122  3.1146  1.8260
   10SAPS  H10Y 1305   0.351   1.877  15.242 -0.6811  2.5114  0.9998
   10SAPS  C311 1306   0.434   2.044  15.334  0.3596 -0.0954 -0.2496
   10SAPS  H11X 1307   0.351   2.111  15.302 -0.2311  0.0936  1.5618
   10SAPS  H11Y 1308   0.519   2.115  15.336  1.5878 -1.5056  2.2085
   10SAPS  C312 1309   0.398   1.986  15.473  0.7027 -0.1026  0.6399
   10SAPS  H12X 1310   0.482   1.921  15.507  0.3667 -0.7701  0.2303
   10SAPS  H12Y 1311   0.300   1.933  15.461  1.9068 -2.1246 -1.0476
   10SAPS  C313 1312   0.389   2.089  15.582 -0.4289  0.5181 -0.3505
   10SAPS  H13X 1313   0.318   2.170  15.556  1.7382  1.9437 -2.2120
   10SAPS  H13Y 1314   0.485   2.145  15.579 -0.8416  1.2627  0.1126
   10SAPS  C314 1315   0.365   2.027  15.725  0.4662 -0.3884  0.0601
   10SAPS  H14X 1316   0.453   1.975  15.769  0.1080 -1.3201 -0.2998
   10SAPS  H14Y 1317   0.290   1.946  15.712 -0.7317  0.4619  1.4554
   10SAPS  C315 1318   0.316   2.128  15.833  0.2096  0.2093  0.1253
   10SAPS  H15X 1319   0.393   2.208  15.826 -0.2367  0.6279  0.0076
   10SAPS  H15Y 1320   0.334   2.073  15.928  2.2564  0.7221  0.1003
   10SAPS  C316 1321   0.183   2.200  15.822  0.9748  0.3083 -0.6980
   10SAPS  H16X 1322   0.164   2.228  15.716 -0.4567 -0.0187 -0.5498
   10SAPS  H16Y 1323   0.190   2.282  15.896  1.0103 -1.8026  1.7708
   10SAPS  C317 1324   0.060   2.102  15.861 -0.9637 -0.9113  0.4377
   10SAPS  H17X 1325   0.061   2.017  15.790 -1.9794 -0.6028  0.0509
   10SAPS  H17Y 1326  -0.042   2.145  15.852  0.3190  2.1930 -0.7737
   10SAPS  C318 1327   0.068   2.050  16.004 -0.5605 -0.6963 -0.3350
   10SAPS  H18X 1328   0.137   1.963  16.004  2.3667  1.4698  0.2535
   10SAPS  H18Y 1329  -0.034   2.027  16.041 -0.4855 -0.0880  0.2648
   10SAPS  H18Z 1330   0.105   2.128  16.074 -3.5948  1.0724 -0.4958
   11SAPS     N 1331   1.737   0.706  18.344  0.3069  0.5434 -0.4764
   11SAPS   HN1 1332   1.826   0.654  18.329 -1.2761 -2.6647  0.1924
   11SAPS   HN2 1333   1.746   0.761  18.431 -0.3452  0.7450 -0.5329
   11SAPS   HN3 1334   1.666   0.630  18.351 -1.2617  1.8151 -1.7628
   11SAPS   C12 1335   1.706   0.809  18.236 -0.4468 -0.5457  0.1891
   11SAPS  H12A 1336   1.775   0.892  18.242 -0.1328 -0.8634  1.1495
   11SAPS   C13 1337   1.733   0.754  18.091  0.3080  0.4519  0.5447
   11SAPS  O13A 1338   1.753   0.634  18.065  0.0753  0.4798 -0.1247
   11SAPS  O13B 1339   1.744   0.840  18.002 -0.1208  0.1142 -0.3044
   11SAPS   C11 1340   1.561   0.848  18.238  0.3915 -0.8858 -0.0734
   11SAPS  H11A 1341   1.490   0.767  18.212 -0.7733  0.1109 -0.1117
   11SAPS  H11B 1342   1.540   0.924  18.160 -1.0403 -1.3237 -0.1318
   11SAPS     P 1343   1.442   0.859  18.478 -0.0452  0.1017 -0.1947
   11SAPS   O13 1344   1.474   0.725  18.531  0.4023  0.0981 -0.1895
   11SAPS   O14 1345   1.415   0.975  18.565 -0.4641 -0.2768  0.1368
   11SAPS   O12 1346   1.539   0.913  18.368 -0.0748 -0.2265  0.4828
   11SAPS   O11 1347   1.305   0.838  18.397 -0.0265  0.2805  0.0665
   11SAPS    C1 1348   1.252   0.944  18.315 -0.0291  0.6820 -0.3092
   11SAPS    HA 1349   1.309   1.039  18.319 -0.9601  1.3117 -1.3037
   11SAPS    HB 1350   1.266   0.913  18.209  0.3941 -3.1286  0.7335
   11SAPS    C2 1351   1.106   0.967  18.357  0.1985 -0.1452  0.2676
   11SAPS    HS 1352   1.109   0.995  18.465 -1.2545  1.9769 -0.1804
   11SAPS   O21 1353   1.035   0.842  18.335  0.5631 -0.3195 -0.7444
   11SAPS   C21 1354   0.951   0.806  18.424  0.3186  0.0608 -0.7252
   11SAPS   O22 1355   0.890   0.872  18.506  0.6587  0.2315 -0.5458
   11SAPS   C22 1356   0.938   0.654  18.419  0.0425  0.3114  0.2008
   11SAPS   H2R 1357   0.964   0.609  18.321  3.6913  0.8873  0.7705
   11SAPS   H2S 1358   1.013   0.612  18.490  0.6608 -2.1690 -1.7817
   11SAPS    C3 1359   1.051   1.092  18.283  1.0316 -0.3243 -0.2128
   11SAPS    HX 1360   1.055   1.062  18.176 -1.1794 -3.3548  0.3981
   11SAPS    HY 1361   1.112   1.181  18.306  0.5640  0.5195 -2.0733
   11SAPS   O31 1362   0.913   1.122  18.306 -0.8114  0.0120 -0.1377
   11SAPS   C31 1363   0.886   1.166  18.426  0.3990 -0.0457 -0.6283
   11SAPS   O32 1364   0.971   1.185  18.516  0.6006 -0.3483  0.7497
   11SAPS   C32 1365   0.735   1.172  18.457 -0.4496  0.2276 -0.1895
   11SAPS   H2X 1366   0.704   1.073  18.497  2.1791 -0.4130  0.4452
   11SAPS   H2Y 1367   0.686   1.203  18.362 -0.1181 -0.7262 -0.6857
   11SAPS   C23 1368   0.795   0.607  18.445 -0.3551  0.1066 -0.2086
   11SAPS   H3R 1369   0.729   0.620  18.357  0.3864  2.8170 -0.4560
   11SAPS   H3S 1370   0.746   0.669  18.523 -0.4298 -1.0547  0.7008
   11SAPS   C24 1371   0.783   0.463  18.485  0.5399 -0.2724  0.3868
   11SAPS   H4R 1372   0.674   0.446  18.498  0.5311  0.7947  2.0662
   11SAPS   H4S 1373   0.841   0.450  18.579  3.5616  1.8726 -0.9721
   11SAPS   C25 1374   0.848   0.371  18.384  0.2917 -0.1667 -0.1397
   11SAPS   H5R 1375   0.945   0.331  18.419  0.3358  0.2528  0.2264
   11SAPS   C26 1376   0.798   0.316  18.269  0.0854 -0.0578 -0.3994
   11SAPS   H6R 1377   0.870   0.252  18.216  1.2123  0.1497  0.8254
   11SAPS   C27 1378   0.654   0.331  18.227 -1.0650 -0.8673 -0.3379
   11SAPS   H7R 1379   0.634   0.439  18.210  1.9626 -0.6333 -3.5558
   11SAPS   H7S 1380   0.591   0.291  18.309  0.6416 -1.1887  0.8542
   11SAPS   C28 1381   0.633   0.257  18.093 -0.2724 -0.6429 -1.0309
   11SAPS   H8R 1382   0.718   0.269  18.025  1.3462  0.3590  1.0386
   11SAPS   C29 1383   0.531   0.169  18.063 -0.4123 -0.1522 -0.4065
   11SAPS   H9R 1384   0.545   0.108  17.972  0.4863  1.0473 -1.1019
   11SAPS  C210 1385   0.409   0.136  18.144 -0.2949  0.0542 -0.3711
   11SAPS  H10R 1386   0.382   0.219  18.213 -0.5263  0.5995 -1.1155
   11SAPS  H10S 1387   0.430   0.049  18.211 -1.3258  0.5501  0.6230
   11SAPS  C211 1388   0.281   0.120  18.068 -0.1133 -0.7710  0.8342
   11SAPS  H11R 1389   0.295   0.121  17.959 -1.1464  2.4453  0.6189
   11SAPS  C212 1390   0.152   0.097  18.113 -0.7564 -0.3975  0.5238
   11SAPS  H12R 1391   0.080   0.081  18.031 -0.9726  1.2473  0.3527
   11SAPS  C213 1392   0.106   0.105  18.251 -0.2374  0.5153  0.0503
   11SAPS  H13R 1393   0.111   0.210  18.286 -0.0170  0.5866 -0.1920
   11SAPS  H13S 1394   0.160   0.035  18.319 -3.5400 -0.8748  1.4171
   11SAPS  C214 1395  -0.030   0.053  18.233 -0.3241  0.5263 -1.0485
   11SAPS  H14R 1396  -0.048  -0.055  18.232  0.9767  0.2946 -1.0884
   11SAPS  C215 1397  -0.141   0.127  18.218  0.5424 -0.1111  0.2694
   11SAPS  H15R 1398  -0.236   0.075  18.197 -0.5545  1.6930  0.5210
   11SAPS  C216 1399  -0.148   0.276  18.217 -0.3119 -0.0941 -0.0567
   11SAPS  H16R 1400  -0.096   0.321  18.130 -1.7329  2.9871  0.5439
   11SAPS  H16S 1401  -0.084   0.313  18.300 -0.7350  0.5690 -0.0180
   11SAPS  C217 1402  -0.288   0.334  18.227  0.3344 -0.3821 -0.5524
   11SAPS  H17R 1403  -0.262   0.438  18.197  1.9117 -0.4163  0.5663
   11SAPS  H17S 1404  -0.336   0.322  18.326  0.2168  0.0192 -0.5628
   11SAPS  C218 1405  -0.381   0.276  18.117 -0.0700  0.6202 -0.1549
   11SAPS  H18R 1406  -0.433   0.183  18.150  2.1109 -0.3292  0.8611
   11SAPS  H18S 1407  -0.326   0.242  18.026 -1.2458 -2.6501  0.2350
   11SAPS  C219 1408  -0.488   0.378  18.070  0.2671 -0.1429 -0.0424
   11SAPS  H19R 1409  -0.441   0.468  18.026 -1.0343 -0.4041 -2.0944
   11SAPS  H19S 1410  -0.546   0.408  18.160  3.3807 -2.0054  2.7886
   11SAPS  C220 1411  -0.585   0.322  17.971 -0.2718  1.0625 -0.3164
   11SAPS  H20R 1412  -0.654   0.402  17.937  0.0643  0.9800 -1.2250
   11SAPS  H20S 1413  -0.647   0.238  18.010  1.5312 -1.5541 -2.6342
   11SAPS  H20T 1414  -0.536   0.284  17.879  5.4160  0.9483  2.3487
   11SAPS   C33 1415   0.699   1.266  18.573  0.0663 -0.1918  0.5644
   11SAPS   H3X 1416   0.723   1.372  18.552 -0.3877 -0.2131 -0.0872
   11SAPS   H3Y 1417   0.754   1.238  18.666  0.3747 -0.9923  0.1488
   11SAPS   C34 1418   0.549   1.249  18.604 -0.6348  0.5900  0.2944
   11SAPS   H4X 1419   0.535   1.145  18.639  2.8249 -0.3984 -0.8605
   11SAPS   H4Y 1420   0.494   1.277  18.512 -0.7913 -1.5014 -0.2896
   11SAPS   C35 1421   0.497   1.346  18.711  0.4321 -0.0702  0.1816
   11SAPS   H5X 1422   0.527   1.445  18.670 -0.6986 -0.7593 -2.5305
   11SAPS   H5Y 1423   0.548   1.346  18.810  0.3907  2.8079  0.2831
   11SAPS   C36 1424   0.342   1.357  18.735 -0.9601  0.2719  0.0544
   11SAPS   H6X 1425   0.306   1.257  18.767  1.1783 -1.3024 -2.0717
   11SAPS   H6Y 1426   0.292   1.369  18.636 -3.2070  4.3324  1.4560
   11SAPS   C37 1427   0.303   1.471  18.828  0.1894  0.1881 -0.3288
   11SAPS   H7X 1428   0.321   1.577  18.799 -1.5378  1.2093  1.9522
   11SAPS   H7Y 1429   0.362   1.463  18.922 -0.4266  0.7311  0.1179
   11SAPS   C38 1430   0.156   1.466  18.873 -0.2907  0.1302 -0.2112
   11SAPS   H8X 1431   0.100   1.498  18.783  0.2429 -1.4639 -1.1641
   11SAPS   H8Y 1432   0.122   1.536  18.952 -0.5389  1.6236 -1.6072
   11SAPS   C39 1433   0.111   1.330  18.932  0.3583  0.0651  0.3008
   11SAPS   H9X 1434   0.190   1.296  19.003 -1.7559  0.7525  3.1649
   11SAPS   H9Y 1435   0.102   1.264  18.844  0.0664  2.5854 -1.6674
   11SAPS  C310 1436  -0.023   1.341  19.008 -0.5312  1.1106 -0.0393
   11SAPS  H10X 1437  -0.106   1.337  18.934 -1.3167 -0.7189  0.8818
   11SAPS  H10Y 1438  -0.026   1.429  19.075 -0.0426 -0.3957  2.0369
   11SAPS  C311 1439  -0.054   1.209  19.090 -0.1031 -0.1840  0.3310
   11SAPS  H11X 1440  -0.009   1.124  19.035 -2.3626  0.0995 -2.1801
   11SAPS  H11Y 1441  -0.163   1.189  19.102 -0.8552  1.6469 -2.3161
   11SAPS  C312 1442   0.012   1.216  19.234  0.1168 -0.4571  0.6898
   11SAPS  H12X 1443  -0.015   1.119  19.283 -0.6497 -0.4745  0.2476
   11SAPS  H12Y 1444  -0.039   1.293  19.296 -1.1002  0.3476 -1.2408
   11SAPS  C313 1445   0.164   1.226  19.251 -0.4924  0.1740  0.8713
   11SAPS  H13X 1446   0.198   1.325  19.215 -0.2221  0.1640  1.0966
   11SAPS  H13Y 1447   0.207   1.152  19.180 -3.2604 -1.5932  0.8711
   11SAPS  C314 1448   0.213   1.199  19.396  0.0046  0.9523  0.4904
   11SAPS  H14X 1449   0.323   1.187  19.390  0.0404  2.0089 -1.4003
   11SAPS  H14Y 1450   0.178   1.096  19.422 -1.0784  0.9576 -0.8648
   11SAPS  C315 1451   0.156   1.293  19.496 -0.7467 -0.4224  0.2636
   11SAPS  H15X 1452   0.045   1.288  19.488 -0.8747 -0.6703  1.8236
   11SAPS  H15Y 1453   0.185   1.394  19.461 -0.1434 -0.4968  0.5331
   11SAPS  C316 1454   0.191   1.276  19.643 -0.0967  0.4134 -0.1636
   11SAPS  H16X 1455   0.298   1.252  19.660 -0.3895  0.0126  1.2255
   11SAPS  H16Y 1456   0.143   1.203  19.710 -0.2030  1.8687  1.4243
   11SAPS  C317 1457   0.172   1.412  19.714 -0.0489  0.0437  0.2496
   11SAPS  H17X 1458   0.068   1.438  19.742  0.9291  2.7666  1.7107
   11SAPS  H17Y 1459   0.178   1.486  19.632  1.7371  1.2485  1.3935
   11SAPS  C318 1460   0.275   1.437  19.826  0.2328  0.3781 -0.3265
   11SAPS  H18X 1461   0.374   1.462  19.783  0.4477  1.5717  0.8126
   11SAPS  H18Y 1462   0.268   1.347  19.891 -3.0838  0.1555 -0.7891
   11SAPS  H18Z 1463   0.242   1.526  19.884 -2.2920  0.7855 -2.2206
   12SAPS     N 1464   1.410   0.472  18.529  0.2026  0.3200 -0.5043
   12SAPS   HN1 1465   1.368   0.436  18.441  2.4078 -1.6043 -0.8707
   12SAPS   HN2 1466   1.337   0.484  18.602  0.1292 -0.4165 -0.4534
   12SAPS   HN3 1467   1.447   0.568  18.516 -0.4501  1.0648  2.3850
   12SAPS   C12 1468   1.531   0.392  18.565 -0.3430  0.3945 -0.5805
   12SAPS  H12A 1469   1.496   0.292  18.582 -1.0770  0.7517  0.1124
   12SAPS   C13 1470   1.635   0.379  18.448 -0.3744 -0.8724 -0.5191
   12SAPS  O13A 1471   1.608   0.441  18.342  0.1145 -0.0828 -0.5270
   12SAPS  O13B 1472   1.752   0.335  18.468  0.4829 -0.1026  0.1235
   12SAPS   C11 1473   1.599   0.439  18.693  0.0427 -0.1673  0.0928
   12SAPS  H11A 1474   1.628   0.546  18.686  1.6369 -0.6884 -2.7663
   12SAPS  H11B 1475   1.690   0.375  18.699 -0.0899 -1.1063 -4.2454
   12SAPS     P 1476   1.555   0.479  18.941  0.0029 -0.5867 -0.3675
   12SAPS   O13 1477   1.520   0.387  19.045  0.9957 -0.1336 -0.6829
   12SAPS   O14 1478   1.690   0.539  18.941  0.0603  0.1600 -0.2062
   12SAPS   O12 1479   1.515   0.414  18.805 -0.7433  0.0126  0.4164
   12SAPS   O11 1480   1.450   0.595  18.955  0.1501 -0.4207 -0.4063
   12SAPS    C1 1481   1.383   0.653  18.844 -0.2027 -0.9508  0.1475
   12SAPS    HA 1482   1.428   0.754  18.832 -2.4889  0.1706  0.5425
   12SAPS    HB 1483   1.406   0.600  18.749  3.1350 -1.9004  1.3508
   12SAPS    C2 1484   1.237   0.682  18.880  0.8856 -0.9360 -0.5939
   12SAPS    HS 1485   1.234   0.736  18.977 -0.8093  0.8596 -1.5817
   12SAPS   O21 1486   1.166   0.559  18.914 -0.1873 -0.1084 -0.5790
   12SAPS   C21 1487   1.184   0.451  18.834  0.0253 -0.2265  1.0070
   12SAPS   O22 1488   1.211   0.462  18.713 -0.5644 -0.0473  0.3027
   12SAPS   C22 1489   1.149   0.313  18.903 -0.5571 -0.3008 -0.4589
   12SAPS   H2R 1490   1.244   0.266  18.937  0.1403  0.5846 -1.1238
   12SAPS   H2S 1491   1.091   0.332  18.996  0.7396  0.7615  0.1628
   12SAPS    C3 1492   1.159   0.760  18.767  0.0137  0.7633 -1.0272
   12SAPS    HX 1493   1.143   0.698  18.677 -1.7139 -0.9091  0.3461
   12SAPS    HY 1494   1.221   0.840  18.722  1.5654 -0.2701 -0.7909
   12SAPS   O31 1495   1.021   0.801  18.809 -0.0572  0.2501  0.3449
   12SAPS   C31 1496   1.011   0.926  18.850  0.2478  0.0902  0.2304
   12SAPS   O32 1497   1.104   1.010  18.854  0.3514  0.6795 -0.0226
   12SAPS   C32 1498   0.863   0.962  18.880  0.3261  0.5918  0.6383
   12SAPS   H2X 1499   0.817   0.878  18.937  2.2509  0.3486  1.9150
   12SAPS   H2Y 1500   0.811   0.956  18.782  0.8105 -2.1188  0.4810
   12SAPS   C23 1501   1.057   0.238  18.805 -0.5697  0.1165  0.3370
   12SAPS   H3R 1502   1.059   0.129  18.825  0.3059 -0.0749 -0.6616
   12SAPS   H3S 1503   1.095   0.258  18.702  0.9443  0.6462  0.9650
   12SAPS   C24 1504   0.914   0.283  18.822 -0.4008 -0.5592  0.0048
   12SAPS   H4R 1505   0.919   0.392  18.801  3.0535 -0.5032  0.6061
   12SAPS   H4S 1506   0.894   0.255  18.928  2.5360 -0.9998  0.5255
   12SAPS   C25 1507   0.811   0.226  18.731  0.5867 -0.7261  0.5590
   12SAPS   H5R 1508   0.845   0.156  18.653  1.3140  0.2416 -0.0229
   12SAPS   C26 1509   0.681   0.265  18.736 -0.1697 -0.0932 -0.2663
   12SAPS   H6R 1510   0.612   0.215  18.667 -0.1114 -2.0309  0.9990
   12SAPS   C27 1511   0.608   0.364  18.832  0.4066  0.7910 -0.7259
   12SAPS   H7R 1512   0.613   0.321  18.935 -1.6041  1.3426 -0.3560
   12SAPS   H7S 1513   0.498   0.350  18.820  0.3773 -0.6527  0.7576
   12SAPS   C28 1514   0.650   0.503  18.811 -0.3761 -0.4791  0.1415
   12SAPS   H8R 1515   0.660   0.537  18.707  0.7983 -2.3620 -0.4236
   12SAPS   C29 1516   0.675   0.592  18.911 -0.4361  0.3094  1.3874
   12SAPS   H9R 1517   0.718   0.691  18.889  2.5793 -1.2047 -0.1582
   12SAPS  C210 1518   0.673   0.550  19.060  0.4608 -0.7650  0.0643
   12SAPS  H10R 1519   0.713   0.451  19.090  0.4232 -0.1437  2.3887
   12SAPS  H10S 1520   0.567   0.534  19.089  0.6603 -1.7973  0.2845
   12SAPS  C211 1521   0.731   0.648  19.149  0.6046  0.3388 -0.1790
   12SAPS  H11R 1522   0.835   0.671  19.121  1.6991 -2.4879  1.1960
   12SAPS  C212 1523   0.678   0.682  19.270 -0.3450 -0.5948  0.4223
   12SAPS  H12R 1524   0.724   0.757  19.337 -0.5185 -0.1442  0.0478
   12SAPS  C213 1525   0.559   0.633  19.349  0.4042 -0.7879  0.4784
   12SAPS  H13R 1526   0.573   0.592  19.451 -0.1499 -3.4665 -0.4442
   12SAPS  H13S 1527   0.516   0.537  19.313 -0.6208 -0.1295 -0.1208
   12SAPS  C214 1528   0.442   0.726  19.338 -1.0734  0.6297 -0.1506
   12SAPS  H14R 1529   0.408   0.748  19.236  1.7195  1.0875 -1.0437
   12SAPS  C215 1530   0.400   0.794  19.445  0.2072 -1.3481 -0.2412
   12SAPS  H15R 1531   0.313   0.861  19.436 -0.2407 -2.1026 -1.7934
   12SAPS  C216 1532   0.456   0.791  19.586  0.1266 -0.0747 -0.1641
   12SAPS  H16R 1533   0.538   0.716  19.592 -1.0586 -1.2938  2.1488
   12SAPS  H16S 1534   0.380   0.756  19.659  1.7728  2.2363  2.8879
   12SAPS  C217 1535   0.508   0.926  19.632  0.5333 -0.4382  0.0373
   12SAPS  H17R 1536   0.435   1.009  19.621  0.6076 -0.3143  0.4728
   12SAPS  H17S 1537   0.586   0.958  19.559  1.3962  0.9287  1.5015
   12SAPS  C218 1538   0.538   0.928  19.777 -0.4922 -0.0770 -0.0164
   12SAPS  H18R 1539   0.448   0.888  19.828 -0.4179 -2.0725 -1.3828
   12SAPS  H18S 1540   0.537   1.033  19.814  0.9566 -1.1231  3.3293
   12SAPS  C219 1541   0.674   0.871  19.817 -0.4367 -0.0898 -0.5392
   12SAPS  H19R 1542   0.748   0.950  19.791  0.9871 -0.3076  2.5119
   12SAPS  H19S 1543   0.695   0.785  19.749  1.2125 -0.3113  0.1948
   12SAPS  C220 1544   0.685   0.841  19.969 -0.4830 -0.5336 -0.5880
   12SAPS  H20R 1545   0.617   0.759  20.001 -0.9631  0.5001  1.1967
   12SAPS  H20S 1546   0.670   0.931  20.033  0.2176  0.3494 -1.6364
   12SAPS  H20T 1547   0.790   0.811  19.992  0.0151  0.6966 -1.1339
   12SAPS   C33 1548   0.844   1.095  18.946 -0.5148  0.7517 -0.2680
   12SAPS   H3X 1549   0.890   1.174  18.882  0.6566  0.3387  0.0523
   12SAPS   H3Y 1550   0.883   1.111  19.048 -2.5097 -0.5202  0.7484
   12SAPS   C34 1551   0.700   1.144  18.954  0.2499  0.5155 -0.0415
   12SAPS   H4X 1552   0.622   1.074  18.990  0.6435 -0.6313 -1.3590
   12SAPS   H4Y 1553   0.657   1.159  18.853  0.7960 -0.8688 -0.5040
   12SAPS   C35 1554   0.699   1.272  19.029 -0.0740  0.1084  0.0276
   12SAPS   H5X 1555   0.621   1.339  18.989  0.1403  1.2811  1.4862
   12SAPS   H5Y 1556   0.799   1.316  19.008  0.1781 -1.2803 -1.9246
   12SAPS   C36 1557   0.682   1.249  19.178 -0.4253  0.8108 -0.2411
   12SAPS   H6X 1558   0.769   1.193  19.219 -1.0630  0.9547  1.3778
   12SAPS   H6Y 1559   0.585   1.196  19.190 -0.7447  1.1819 -1.0948
   12SAPS   C37 1560   0.673   1.379  19.270 -0.0737 -1.3464  0.0329
   12SAPS   H7X 1561   0.596   1.440  19.219  2.0636  0.5249 -1.1026
   12SAPS   H7Y 1562   0.761   1.448  19.273 -1.0977  0.0228 -0.4664
   12SAPS   C38 1563   0.638   1.357  19.421  0.9064 -0.1017 -0.0166
   12SAPS   H8X 1564   0.542   1.300  19.427 -0.6015  2.2891 -0.2612
   12SAPS   H8Y 1565   0.601   1.456  19.454 -0.8482 -0.6373 -0.2333
   12SAPS   C39 1566   0.755   1.307  19.499  0.6134 -0.3488  0.3068
   12SAPS   H9X 1567   0.830   1.389  19.502 -0.1493  0.5309 -2.1479
   12SAPS   H9Y 1568   0.816   1.228  19.451  2.4173  0.0517  1.8128
   12SAPS  C310 1569   0.701   1.252  19.633  1.0498  0.6083 -0.2581
   12SAPS  H10X 1570   0.790   1.211  19.685  0.9632 -0.6437 -1.0562
   12SAPS  H10Y 1571   0.631   1.169  19.610  2.2315  0.2104 -2.8376
   12SAPS  C311 1572   0.644   1.372  19.714 -0.2378 -0.2718  0.0181
   12SAPS  H11X 1573   0.545   1.404  19.674 -0.0842  2.2978  1.5268
   12SAPS  H11Y 1574   0.718   1.453  19.705 -0.9871  0.2718 -1.7609
   12SAPS  C312 1575   0.623   1.328  19.853 -0.0290 -0.1941 -0.0322
   12SAPS  H12X 1576   0.706   1.259  19.880  0.1670  1.0539  2.8594
   12SAPS  H12Y 1577   0.528   1.271  19.851  0.1333 -0.4498 -0.6859
   12SAPS  C313 1578   0.623   1.441  19.964 -0.1991  0.5579  0.4152
   12SAPS  H13X 1579   0.556   1.521  19.925  1.4791  1.1193 -1.5455
   12SAPS  H13Y 1580   0.729   1.474  19.966  0.0359 -0.2435  1.6833
   12SAPS  C314 1581   0.573   1.388  20.094 -0.3577  0.0410 -0.2848
   12SAPS  H14X 1582   0.483   1.324  20.079 -0.5326  0.3816 -0.7191
   12SAPS  H14Y 1583   0.524   1.467  20.154 -0.9190 -0.5600  0.0600
   12SAPS  C315 1584   0.677   1.310  20.176 -0.2269  0.1406  0.7714
   12SAPS  H15X 1585   0.754   1.387  20.197 -0.9211  1.0225  0.1706
   12SAPS  H15Y 1586   0.727   1.236  20.109 -0.8504 -1.2168  1.7654
   12SAPS  C316 1587   0.607   1.244  20.297 -0.7145 -0.7928 -0.5260
   12SAPS  H16X 1588   0.538   1.169  20.253 -1.5010 -0.9950  0.9947
   12SAPS  H16Y 1589   0.556   1.332  20.342 -2.5124 -1.4790 -1.1291
   12SAPS  C317 1590   0.699   1.181  20.403 -0.0165  0.0823  0.0155
   12SAPS  H17X 1591   0.656   1.138  20.497  2.2492  2.3421  2.2232
   12SAPS  H17Y 1592   0.777   1.252  20.436 -0.4394 -1.1816  4.3630
   12SAPS  C318 1593   0.770   1.061  20.332  0.3742 -0.6481  0.0474
   12SAPS  H18X 1594   0.825   1.014  20.416  0.1539  0.4328  0.8117
   12SAPS  H18Y 1595   0.844   1.094  20.256 -0.5715  0.3328 -0.4869
   12SAPS  H18Z 1596   0.699   0.981  20.300 -1.1644  0.0866  1.4734
   13SAPS     N 1597   1.945   4.061  19.021 -0.1835 -0.2029 -0.1071
   13SAPS   HN1 1598   2.033   4.063  19.077  0.8735 -0.5824 -1.6772
   13SAPS   HN2 1599   1.887   3.983  19.058  0.5219 -2.6756 -3.6937
   13SAPS   HN3 1600   1.974   4.046  18.923  0.2127  0.6336 -0.1233
   13SAPS   C12 1601   1.877   4.193  19.043  0.0879  0.0200  0.4115
   13SAPS  H12A 1602   1.960   4.261  19.054 -0.6716  1.3171 -1.3873
   13SAPS   C13 1603   1.795   4.251  18.929 -1.1747  0.4675 -0.2657
   13SAPS  O13A 1604   1.786   4.184  18.822  0.5257  0.4584  0.1252
   13SAPS  O13B 1605   1.730   4.357  18.942 -0.1160 -0.0902 -0.4935
   13SAPS   C11 1606   1.798   4.171  19.174 -0.4639 -0.3983 -0.3088
   13SAPS  H11A 1607   1.748   4.268  19.195  1.2433  0.3843  0.3639
   13SAPS  H11B 1608   1.875   4.153  19.252 -0.3452 -2.6619 -0.8932
   13SAPS     P 1609   1.563   4.072  19.159 -0.0689 -0.5122 -0.4347
   13SAPS   O13 1610   1.536   4.123  19.022  0.6977  0.2477 -0.3920
   13SAPS   O14 1611   1.502   3.948  19.204  0.1305  0.2229 -0.0585
   13SAPS   O12 1612   1.717   4.059  19.169 -0.6718 -0.4736  0.2306
   13SAPS   O11 1613   1.524   4.189  19.262 -0.5766  0.0865  0.0480
   13SAPS    C1 1614   1.540   4.163  19.402  0.1791  0.0790 -0.0279
   13SAPS    HA 1615   1.443   4.133  19.448  1.1063 -3.2734 -0.0094
   13SAPS    HB 1616   1.605   4.075  19.422  0.9599  0.1233 -2.1362
   13SAPS    C2 1617   1.586   4.291  19.473  0.0799  0.6079  0.3621
   13SAPS    HS 1618   1.658   4.345  19.407  2.4768 -2.7121 -0.0018
   13SAPS   O21 1619   1.653   4.267  19.596  0.0699  0.2029 -0.1076
   13SAPS   C21 1620   1.744   4.363  19.631 -0.3534 -0.5604 -0.5148
   13SAPS   O22 1621   1.788   4.458  19.564 -0.2580 -0.0336  0.7881
   13SAPS   C22 1622   1.802   4.332  19.767 -0.0402  0.3593  0.2035
   13SAPS   H2R 1623   1.716   4.330  19.838 -1.2426  3.6000 -0.9824
   13SAPS   H2S 1624   1.848   4.231  19.764 -1.2003 -0.1995  0.3644
   13SAPS    C3 1625   1.462   4.391  19.495 -1.0721 -0.8865 -0.2978
   13SAPS    HX 1626   1.433   4.440  19.399  0.6148 -1.8776 -1.3755
   13SAPS    HY 1627   1.504   4.477  19.551 -0.4341 -0.7602 -0.9552
   13SAPS   O31 1628   1.352   4.339  19.562  0.3579  0.0411  0.0901
   13SAPS   C31 1629   1.358   4.332  19.694 -0.4428  0.6253 -0.0335
   13SAPS   O32 1630   1.449   4.379  19.760  0.0823  0.2757 -0.7288
   13SAPS   C32 1631   1.230   4.259  19.743 -0.2086  0.4137  0.3448
   13SAPS   H2X 1632   1.268   4.205  19.833 -1.3624 -3.0014 -1.0465
   13SAPS   H2Y 1633   1.211   4.180  19.668  0.0934  2.1571 -1.6482
   13SAPS   C23 1634   1.901   4.435  19.823  0.0554 -0.4604  0.0600
   13SAPS   H3R 1635   1.856   4.529  19.860  0.6301  0.1209 -0.6961
   13SAPS   H3S 1636   1.971   4.469  19.744 -1.4971  1.5410 -0.5174
   13SAPS   C24 1637   1.989   4.384  19.939  0.6246  0.2761  0.5211
   13SAPS   H4R 1638   2.062   4.465  19.957 -1.0763  1.6181  1.7387
   13SAPS   H4S 1639   2.039   4.296  19.893 -2.8448 -0.1329 -3.0604
   13SAPS   C25 1640   1.918   4.354  20.068 -0.3740  0.8757 -0.1709
   13SAPS   H5R 1641   1.817   4.309  20.065  0.1746 -0.5168  0.9737
   13SAPS   C26 1642   1.958   4.374  20.193  0.3986 -0.0018  0.5101
   13SAPS   H6R 1643   1.897   4.336  20.276  0.3389  1.6622  1.2735
   13SAPS   C27 1644   2.085   4.442  20.221  0.0964  0.6402 -0.2158
   13SAPS   H7R 1645   2.066   4.551  20.234 -0.8164  0.1731  3.8610
   13SAPS   H7S 1646   2.151   4.435  20.133 -1.0065 -0.8684 -0.9819
   13SAPS   C28 1647   2.148   4.381  20.346 -0.1262 -0.2373  0.0226
   13SAPS   H8R 1648   2.217   4.298  20.324 -2.3310 -2.2894  0.3981
   13SAPS   C29 1649   2.136   4.417  20.474 -0.3282  0.1783 -0.7737
   13SAPS   H9R 1650   2.178   4.346  20.547  0.4138 -0.7789 -2.0902
   13SAPS  C210 1651   2.052   4.529  20.538 -0.2754 -0.1189  0.8013
   13SAPS  H10R 1652   1.978   4.499  20.615 -0.8038  0.0204  0.3555
   13SAPS  H10S 1653   1.987   4.577  20.462 -0.3142  0.7413  1.3548
   13SAPS  C211 1654   2.149   4.626  20.607  1.2776  0.3149  0.5887
   13SAPS  H11R 1655   2.218   4.581  20.680  1.9019 -1.6367 -1.1194
   13SAPS  C212 1656   2.166   4.755  20.571  0.5698  0.0266 -0.3196
   13SAPS  H12R 1657   2.245   4.810  20.623 -0.4069 -1.7673  3.3889
   13SAPS  C213 1658   2.089   4.845  20.469  0.0576  0.3511 -0.2800
   13SAPS  H13R 1659   2.033   4.782  20.397 -1.2539  1.6910 -0.4893
   13SAPS  H13S 1660   2.155   4.913  20.410 -0.4469  0.1108 -1.1356
   13SAPS  C214 1661   1.979   4.925  20.537 -1.0676 -0.5398  0.3450
   13SAPS  H14R 1662   1.914   4.864  20.602 -3.7567  0.6387 -1.0410
   13SAPS  C215 1663   1.941   5.057  20.516 -0.1633 -0.4211 -0.0373
   13SAPS  H15R 1664   1.858   5.100  20.574 -0.5679  1.6274 -2.0262
   13SAPS  C216 1665   2.008   5.146  20.419  0.1311 -0.8035  0.2212
   13SAPS  H16R 1666   2.069   5.087  20.346  1.0466 -0.3836  0.6229
   13SAPS  H16S 1667   2.081   5.216  20.464  0.8282  0.4000 -2.5203
   13SAPS  C217 1668   1.895   5.225  20.349 -0.2345 -0.1743 -0.6697
   13SAPS  H17R 1669   1.822   5.270  20.418  1.2088 -1.0636  1.5532
   13SAPS  H17S 1670   1.835   5.172  20.272 -0.3906  0.5916 -1.0836
   13SAPS  C218 1671   1.965   5.336  20.268  0.8550  0.1072 -0.3236
   13SAPS  H18R 1672   2.033   5.295  20.190  0.4768 -0.7706 -0.2027
   13SAPS  H18S 1673   2.026   5.405  20.330 -2.1985  1.0759  1.8007
   13SAPS  C219 1674   1.865   5.431  20.202  0.0492  0.2072 -0.6146
   13SAPS  H19R 1675   1.793   5.375  20.139 -0.1900 -0.0615 -0.1092
   13SAPS  H19S 1676   1.914   5.506  20.136 -1.1525  1.2234 -0.4048
   13SAPS  C220 1677   1.787   5.529  20.295  0.0255 -0.4256  0.3690
   13SAPS  H20R 1678   1.708   5.589  20.244  0.6704  0.5518  0.4881
   13SAPS  H20S 1679   1.858   5.600  20.342  0.0338  0.4348 -0.8919
   13SAPS  H20T 1680   1.733   5.485  20.381 -0.8269 -1.2315 -0.5513
   13SAPS   C33 1681   1.098   4.343  19.766 -0.5653  0.8653  0.4085
   13SAPS   H3X 1682   1.074   4.421  19.691  0.9204 -1.0300 -2.2098
   13SAPS   H3Y 1683   1.097   4.401  19.861 -1.4772  2.2598 -0.4214
   13SAPS   C34 1684   0.982   4.244  19.748 -0.2586 -0.0507  0.4501
   13SAPS   H4X 1685   0.994   4.151  19.807 -0.2241 -0.0792  0.3971
   13SAPS   H4Y 1686   0.975   4.226  19.639  0.5382  1.1291  0.1819
   13SAPS   C35 1687   0.840   4.301  19.771 -0.6233 -0.7678 -0.4456
   13SAPS   H5X 1688   0.845   4.357  19.866  3.1572 -0.0618 -0.8818
   13SAPS   H5Y 1689   0.772   4.213  19.776  0.8117 -1.8742  0.4874
   13SAPS   C36 1690   0.798   4.409  19.671  0.4096  0.3991  0.4335
   13SAPS   H6X 1691   0.773   4.365  19.572 -0.5543  0.0594  0.8234
   13SAPS   H6Y 1692   0.863   4.498  19.659  0.4373  0.2799 -0.4126
   13SAPS   C37 1693   0.660   4.468  19.720 -0.1674 -0.1216 -0.0513
   13SAPS   H7X 1694   0.658   4.578  19.713  3.2957  0.3230  2.9831
   13SAPS   H7Y 1695   0.646   4.452  19.829  0.1919  1.4828  0.2527
   13SAPS   C38 1696   0.542   4.407  19.646 -0.7581  0.4086 -0.4227
   13SAPS   H8X 1697   0.548   4.298  19.669  0.1971  0.6550  0.5877
   13SAPS   H8Y 1698   0.551   4.419  19.536 -0.1140  1.2140 -0.2912
   13SAPS   C39 1699   0.400   4.456  19.690 -0.2907  0.0893  0.2222
   13SAPS   H9X 1700   0.327   4.406  19.623  2.1975 -1.0141 -1.8423
   13SAPS   H9Y 1701   0.381   4.563  19.666 -3.4461 -0.1661  1.1580
   13SAPS  C310 1702   0.352   4.459  19.837  0.1208 -0.6358 -0.2189
   13SAPS  H10X 1703   0.403   4.537  19.897 -1.0848 -0.2915  0.3775
   13SAPS  H10Y 1704   0.378   4.358  19.876  2.6193  0.1415  0.2942
   13SAPS  C311 1705   0.205   4.472  19.865  0.0068 -0.2460  0.1313
   13SAPS  H11X 1706   0.158   4.385  19.815  0.6825  0.7029 -2.3084
   13SAPS  H11Y 1707   0.159   4.565  19.825  2.1221  2.1277  2.7183
   13SAPS  C312 1708   0.174   4.462  20.014 -0.6577 -0.2636 -0.4401
   13SAPS  H12X 1709   0.229   4.531  20.081 -1.9042  1.4777 -1.1182
   13SAPS  H12Y 1710   0.204   4.364  20.057 -0.8384 -0.2063 -0.1808
   13SAPS  C313 1711   0.025   4.479  20.051 -0.9376 -0.6254  0.1912
   13SAPS  H13X 1712  -0.028   4.397  19.998 -1.4928  0.1991 -0.5515
   13SAPS  H13Y 1713  -0.012   4.572  20.003 -0.7348 -0.2609  0.7401
   13SAPS  C314 1714   0.005   4.486  20.200  0.4376 -0.4147 -0.0043
   13SAPS  H14X 1715   0.064   4.575  20.232 -2.0889  0.7912  1.6612
   13SAPS  H14Y 1716   0.050   4.392  20.238 -0.1370 -1.2864 -1.4288
   13SAPS  C315 1717  -0.132   4.504  20.259  0.1742  0.1726 -0.3040
   13SAPS  H15X 1718  -0.162   4.610  20.243  0.1247  0.1996 -0.0335
   13SAPS  H15Y 1719  -0.129   4.477  20.366 -0.2043 -1.7557 -0.7403
   13SAPS  C316 1720  -0.242   4.411  20.203  0.0604  0.0829  0.4462
   13SAPS  H16X 1721  -0.209   4.305  20.215  0.2621 -0.1269 -1.5647
   13SAPS  H16Y 1722  -0.256   4.422  20.093 -1.4781  1.1016  0.7213
   13SAPS  C317 1723  -0.372   4.412  20.278  0.3861 -0.0401  0.6957
   13SAPS  H17X 1724  -0.408   4.517  20.282 -2.0634 -0.8564  1.5281
   13SAPS  H17Y 1725  -0.348   4.373  20.380  0.3962 -3.9696 -0.6390
   13SAPS  C318 1726  -0.485   4.324  20.215  0.6080  0.4070  0.4929
   13SAPS  H18X 1727  -0.448   4.219  20.217  1.8014  0.8137  1.0179
   13SAPS  H18Y 1728  -0.502   4.352  20.109 -0.2268 -0.0629  0.4975
   13SAPS  H18Z 1729  -0.584   4.338  20.263  0.9944  1.8472  0.9360
   14SAPS     N 1730   1.621   3.977  18.807 -0.3583 -0.5406 -0.0527
   14SAPS   HN1 1731   1.583   4.026  18.891  2.0422 -0.8446  1.2850
   14SAPS   HN2 1732   1.661   3.886  18.837 -2.1381 -1.0334  0.9966
   14SAPS   HN3 1733   1.702   4.038  18.783 -1.2454  0.4602 -0.5975
   14SAPS   C12 1734   1.531   3.958  18.694  0.2114  0.9952 -0.2462
   14SAPS  H12A 1735   1.457   4.038  18.691 -0.5249  0.3260 -0.2745
   14SAPS   C13 1736   1.611   3.961  18.563 -0.9115 -0.1073  0.5990
   14SAPS  O13A 1737   1.737   3.951  18.559 -0.5676  0.0788  0.2346
   14SAPS  O13B 1738   1.545   3.937  18.455 -0.6947  0.1405 -0.3904
   14SAPS   C11 1739   1.444   3.831  18.705 -0.0978  0.0981 -0.0812
   14SAPS  H11A 1740   1.510   3.745  18.681  0.8374  1.2172 -1.7134
   14SAPS  H11B 1741   1.369   3.845  18.624 -1.0879  1.9207  1.0628
   14SAPS     P 1742   1.252   3.728  18.854 -0.1124 -0.3091  0.1279
   14SAPS   O13 1743   1.225   3.650  18.732  0.3835  0.0157  0.1241
   14SAPS   O14 1744   1.263   3.654  18.976 -0.3669  0.0853 -0.4735
   14SAPS   O12 1745   1.377   3.816  18.830  0.6663  0.1320 -1.0069
   14SAPS   O11 1746   1.128   3.826  18.858  0.2422 -0.3460  0.2432
   14SAPS    C1 1747   1.113   3.911  18.967  0.2738 -1.0799 -0.4206
   14SAPS    HA 1748   1.004   3.922  18.987  0.4900  1.0114 -0.1703
   14SAPS    HB 1749   1.145   3.857  19.058  0.2786 -1.2286 -0.5106
   14SAPS    C2 1750   1.168   4.056  18.953  0.5328  0.1084 -0.6666
   14SAPS    HS 1751   1.278   4.049  18.962  0.8869 -0.4254 -4.1338
   14SAPS   O21 1752   1.112   4.131  19.064  0.5682  0.0936  0.3576
   14SAPS   C21 1753   1.172   4.245  19.096 -0.3170  0.3412  0.1763
   14SAPS   O22 1754   1.271   4.295  19.040  0.3748 -0.1084 -0.0837
   14SAPS   C22 1755   1.076   4.306  19.199  0.7717 -0.3087 -0.1146
   14SAPS   H2R 1756   1.029   4.389  19.143  3.8500  2.2428  0.8374
   14SAPS   H2S 1757   0.999   4.232  19.233 -0.5205  1.1260  0.1701
   14SAPS    C3 1758   1.127   4.131  18.819 -0.3762 -0.0051  0.6165
   14SAPS    HX 1759   1.187   4.072  18.746  1.0339 -0.5185  2.1297
   14SAPS    HY 1760   1.172   4.231  18.833 -0.2525  0.0598 -0.2002
   14SAPS   O31 1761   0.985   4.115  18.808 -0.3480  0.1459 -0.2167
   14SAPS   C31 1762   0.923   4.227  18.786  0.1444 -0.0513  0.0763
   14SAPS   O32 1763   0.964   4.326  18.730 -0.6148 -0.1495  0.3294
   14SAPS   C32 1764   0.777   4.217  18.838  0.3277  0.3999 -0.4128
   14SAPS   H2X 1765   0.723   4.142  18.778  0.2462  0.5115 -0.4795
   14SAPS   H2Y 1766   0.722   4.312  18.820  0.2840  0.4621  0.0254
   14SAPS   C23 1767   1.151   4.361  19.325  0.3961  0.0637  0.2660
   14SAPS   H3R 1768   1.255   4.381  19.291 -0.4607  0.5870 -2.2323
   14SAPS   H3S 1769   1.169   4.280  19.399 -0.6535  1.2669  1.9273
   14SAPS   C24 1770   1.082   4.481  19.396 -0.0506  0.3526 -0.2994
   14SAPS   H4R 1771   1.147   4.506  19.483  1.9871  0.6017 -1.8296
   14SAPS   H4S 1772   0.977   4.453  19.420 -1.0027  1.4176 -2.8254
   14SAPS   C25 1773   1.072   4.598  19.303 -0.6397 -0.1483 -0.1908
   14SAPS   H5R 1774   1.167   4.646  19.277 -0.1551 -1.1613 -0.3399
   14SAPS   C26 1775   0.961   4.674  19.278 -0.0617 -0.4947  0.2766
   14SAPS   H6R 1776   0.973   4.754  19.203 -0.0159 -1.0857 -0.3545
   14SAPS   C27 1777   0.821   4.650  19.348 -0.0568  0.0335  0.9610
   14SAPS   H7R 1778   0.749   4.734  19.339  0.1847  0.3023  1.5059
   14SAPS   H7S 1779   0.815   4.625  19.456 -0.1157 -0.5766  0.8235
   14SAPS   C28 1780   0.750   4.532  19.280 -0.4321 -0.7275 -0.5083
   14SAPS   H8R 1781   0.821   4.454  19.249  2.0144  0.9308  0.6221
   14SAPS   C29 1782   0.628   4.518  19.238 -0.6136  0.2320 -0.5239
   14SAPS   H9R 1783   0.590   4.417  19.216  0.2156  0.0099 -0.9968
   14SAPS  C210 1784   0.523   4.616  19.264  0.1806  0.7017 -0.5680
   14SAPS  H10R 1785   0.557   4.721  19.258 -0.8995  1.0070 -1.9000
   14SAPS  H10S 1786   0.494   4.615  19.371 -0.0354 -0.6053 -0.6194
   14SAPS  C211 1787   0.408   4.604  19.166  0.0713 -0.1062  0.6301
   14SAPS  H11R 1788   0.428   4.633  19.062 -1.1327 -0.7270  0.2127
   14SAPS  C212 1789   0.282   4.564  19.184  0.3499 -0.2609  0.6255
   14SAPS  H12R 1790   0.218   4.569  19.094  2.8362 -0.0590 -1.2424
   14SAPS  C213 1791   0.222   4.523  19.316 -0.3272  1.1746 -0.5726
   14SAPS  H13R 1792   0.287   4.552  19.401  0.8466  0.2387 -1.1114
   14SAPS  H13S 1793   0.209   4.413  19.317 -1.5599  1.3059 -0.4166
   14SAPS  C214 1794   0.086   4.578  19.341  0.1921 -0.5356 -0.6636
   14SAPS  H14R 1795   0.007   4.504  19.326 -0.5683 -0.3742  1.9777
   14SAPS  C215 1796   0.058   4.701  19.387  0.0948 -0.8146 -0.0673
   14SAPS  H15R 1797  -0.047   4.734  19.394  0.1674 -0.1597 -1.6809
   14SAPS  C216 1798   0.160   4.804  19.439 -0.1327 -0.0164 -0.7118
   14SAPS  H16R 1799   0.143   4.907  19.401  0.1323  2.3961  4.7510
   14SAPS  H16S 1800   0.260   4.770  19.405  0.8654 -0.0087  1.9598
   14SAPS  C217 1801   0.154   4.803  19.597 -0.4856  0.2534 -0.7372
   14SAPS  H17R 1802   0.137   4.704  19.644  0.0377  0.2554 -0.5395
   14SAPS  H17S 1803   0.069   4.865  19.633 -0.8911  0.2256 -1.6046
   14SAPS  C218 1804   0.283   4.864  19.647  0.8395  0.9703 -0.3824
   14SAPS  H18R 1805   0.289   4.969  19.613 -1.2550  1.3236  0.1930
   14SAPS  H18S 1806   0.370   4.803  19.614 -0.2218  0.5357 -2.6057
   14SAPS  C219 1807   0.289   4.856  19.797  0.5532  0.0161 -0.5382
   14SAPS  H19R 1808   0.269   4.751  19.827 -1.3395  0.5528  0.2085
   14SAPS  H19S 1809   0.206   4.915  19.842  1.1202  1.7144 -1.6230
   14SAPS  C220 1810   0.430   4.893  19.855  0.3380  0.0468 -0.0270
   14SAPS  H20R 1811   0.503   4.812  19.834 -1.0711 -1.5747  1.0527
   14SAPS  H20S 1812   0.425   4.911  19.965 -1.0764  0.1490 -0.0884
   14SAPS  H20T 1813   0.479   4.983  19.813  2.1262 -0.9770 -0.2551
   14SAPS   C33 1814   0.771   4.183  18.990 -0.0779 -0.1933  0.2541
   14SAPS   H3X 1815   0.838   4.253  19.046  0.2084  2.0538 -2.6878
   14SAPS   H3Y 1816   0.808   4.081  19.014  0.4477  0.3367  1.8758
   14SAPS   C34 1817   0.627   4.209  19.040  0.6570  0.1928 -0.3324
   14SAPS   H4X 1818   0.550   4.175  18.967  1.1378  1.9137 -1.6931
   14SAPS   H4Y 1819   0.623   4.320  19.036 -1.4099  0.1642 -0.1411
   14SAPS   C35 1820   0.596   4.156  19.178  0.1675  0.3384  0.0682
   14SAPS   H5X 1821   0.654   4.220  19.248 -1.1946  1.5734  0.1260
   14SAPS   H5Y 1822   0.632   4.052  19.188 -0.7769  0.0076  0.1316
   14SAPS   C36 1823   0.450   4.180  19.224 -0.5696  0.6189  0.0514
   14SAPS   H6X 1824   0.369   4.137  19.161 -1.8119  0.1454  1.8691
   14SAPS   H6Y 1825   0.436   4.290  19.211  0.5604  0.7883  0.1929
   14SAPS   C37 1826   0.439   4.149  19.374 -0.0446  0.0161 -0.5710
   14SAPS   H7X 1827   0.493   4.229  19.428 -2.5931  1.0909  0.5529
   14SAPS   H7Y 1828   0.486   4.049  19.390 -0.3073 -0.0434 -0.1613
   14SAPS   C38 1829   0.296   4.141  19.437  0.1281 -0.0391  0.4034
   14SAPS   H8X 1830   0.244   4.076  19.363 -0.0382  1.1467 -0.5542
   14SAPS   H8Y 1831   0.251   4.240  19.415 -0.3576 -0.4076 -0.3387
   14SAPS   C39 1832   0.291   4.104  19.581 -0.3255 -0.3177 -0.3705
   14SAPS   H9X 1833   0.358   4.181  19.625 -2.7082  1.3139  0.5869
   14SAPS   H9Y 1834   0.348   4.011  19.605  0.7264  0.4429  0.1662
   14SAPS  C310 1835   0.154   4.095  19.648  0.1027 -0.3495 -0.1552
   14SAPS  H10X 1836   0.111   4.002  19.607 -1.8941  1.0925 -1.5157
   14SAPS  H10Y 1837   0.094   4.187  19.630  1.6559  0.7291 -0.1197
   14SAPS  C311 1838   0.171   4.077  19.802 -0.2687  0.0631 -0.2867
   14SAPS  H11X 1839   0.204   4.176  19.839 -1.9077  1.5267 -2.5444
   14SAPS  H11Y 1840   0.262   4.014  19.815  2.2757  3.0863 -1.9409
   14SAPS  C312 1841   0.048   4.034  19.875  0.3657 -0.3550 -0.4078
   14SAPS  H12X 1842   0.011   3.933  19.851  2.8945 -2.0459  2.1347
   14SAPS  H12Y 1843  -0.027   4.113  19.854  1.0767 -0.1479 -2.4405
   14SAPS  C313 1844   0.064   4.032  20.030  0.0563 -0.1127  0.6174
   14SAPS  H13X 1845   0.125   4.117  20.069 -0.9608  0.1084  1.7694
   14SAPS  H13Y 1846   0.118   3.938  20.051  1.2762  0.7310  1.4054
   14SAPS  C314 1847  -0.079   4.021  20.095 -0.1617  0.1977  0.7255
   14SAPS  H14X 1848  -0.123   3.931  20.048  0.6900 -1.3678  2.7821
   14SAPS  H14Y 1849  -0.139   4.106  20.056  0.5126  0.1960 -0.3274
   14SAPS  C315 1850  -0.081   4.017  20.252  0.0114 -0.2455 -0.2525
   14SAPS  H15X 1851  -0.036   4.106  20.302  2.2894 -1.3699 -0.1727
   14SAPS  H15Y 1852  -0.025   3.922  20.266  0.6261  0.3635  1.6688
   14SAPS  C316 1853  -0.221   3.995  20.307 -0.9472 -0.2245  0.2939
   14SAPS  H16X 1854  -0.236   3.885  20.315  1.9659 -1.1917 -4.2517
   14SAPS  H16Y 1855  -0.303   4.043  20.249 -0.7763 -1.9485 -1.4591
   14SAPS  C317 1856  -0.234   4.053  20.447 -0.2929  0.6239 -0.4385
   14SAPS  H17X 1857  -0.196   4.158  20.444  0.2323  0.5713  2.3011
   14SAPS  H17Y 1858  -0.167   3.991  20.510 -0.8608  0.3608 -0.0879
   14SAPS  C318 1859  -0.380   4.072  20.513  0.5891 -0.0854  0.4912
   14SAPS  H18X 1860  -0.425   4.158  20.459 -1.4419 -1.5901 -0.3474
   14SAPS  H18Y 1861  -0.370   4.099  20.620 -0.3074  1.9965  0.1128
   14SAPS  H18Z 1862  -0.426   3.974  20.490  0.9937  0.3266 -2.5599
   15SAPS     N 1863   1.592   2.960  16.574 -0.0622  0.8120 -0.4784
   15SAPS   HN1 1864   1.616   2.864  16.605  1.9773  0.9883 -1.2973
   15SAPS   HN2 1865   1.510   2.988  16.631  0.2963 -2.0538  1.6662
   15SAPS   HN3 1866   1.569   2.950  16.473  3.6446 -0.5686 -1.3773
   15SAPS   C12 1867   1.706   3.051  16.592 -0.3834  0.0064 -0.4308
   15SAPS  H12A 1868   1.784   3.025  16.521  0.4269 -2.2988  1.1736
   15SAPS   C13 1869   1.661   3.196  16.566 -0.4141  0.1722 -0.5082
   15SAPS  O13A 1870   1.541   3.229  16.590  0.0119 -0.1958  0.2916
   15SAPS  O13B 1871   1.746   3.286  16.539  0.8060 -0.5459  0.2588
   15SAPS   C11 1872   1.776   3.021  16.740  0.3354  0.1470  0.1120
   15SAPS  H11A 1873   1.689   3.011  16.808  0.4183  2.3855  0.5907
   15SAPS  H11B 1874   1.834   3.112  16.765 -2.3058  2.0930 -0.3694
   15SAPS     P 1875   1.994   2.892  16.691 -0.0422  0.0751 -0.0178
   15SAPS   O13 1876   2.021   2.751  16.653 -0.4975 -0.2787  0.3457
   15SAPS   O14 1877   2.003   2.997  16.589  0.5700 -0.1883  0.1615
   15SAPS   O12 1878   1.850   2.893  16.745 -0.0326  0.5002  0.8474
   15SAPS   O11 1879   2.083   2.924  16.819  0.0680 -0.1227  0.2633
   15SAPS    C1 1880   2.095   2.843  16.931 -0.6089  0.6918 -0.4712
   15SAPS    HA 1881   2.031   2.892  17.008  0.8485  0.6592  0.8107
   15SAPS    HB 1882   2.040   2.748  16.918  0.8683 -0.1658 -0.6323
   15SAPS    C2 1883   2.237   2.832  16.988 -0.5021 -0.5277  0.1774
   15SAPS    HS 1884   2.255   2.937  17.022  2.3255 -0.1863 -2.0401
   15SAPS   O21 1885   2.354   2.812  16.891  0.1999  0.2468 -0.7731
   15SAPS   C21 1886   2.336   2.722  16.791 -0.6479 -0.0935 -0.2885
   15SAPS   O22 1887   2.261   2.629  16.794 -0.0785  0.1936  0.1413
   15SAPS   C22 1888   2.423   2.773  16.668  0.3186  0.5496 -0.0885
   15SAPS   H2R 1889   2.371   2.860  16.624  3.2184  0.6968 -3.6317
   15SAPS   H2S 1890   2.515   2.823  16.703  1.2191 -0.7545 -0.5064
   15SAPS    C3 1891   2.239   2.728  17.104  0.1207  0.3629 -0.0370
   15SAPS    HX 1892   2.218   2.629  17.057  0.6733  0.9964 -1.6979
   15SAPS    HY 1893   2.158   2.746  17.178  0.0984 -0.4451  0.1356
   15SAPS   O31 1894   2.369   2.728  17.165  0.0646 -0.0055  0.0085
   15SAPS   C31 1895   2.389   2.824  17.256  0.0463 -0.8388  0.5657
   15SAPS   O32 1896   2.314   2.923  17.271 -0.1693 -0.0830 -0.2211
   15SAPS   C32 1897   2.505   2.782  17.340  0.9730  0.0664  0.1538
   15SAPS   H2X 1898   2.592   2.761  17.274  0.6431 -0.2771 -0.1749
   15SAPS   H2Y 1899   2.485   2.680  17.381  0.0080 -0.3059 -1.1723
   15SAPS   C23 1900   2.467   2.655  16.585  0.3798 -0.3158 -0.4543
   15SAPS   H3R 1901   2.508   2.701  16.492 -0.1944  0.6078 -0.2622
   15SAPS   H3S 1902   2.380   2.588  16.567 -0.2059 -0.3671  2.1901
   15SAPS   C24 1903   2.574   2.564  16.649 -0.5566 -0.7579  0.3620
   15SAPS   H4R 1904   2.590   2.482  16.576  2.0327 -0.2420  0.2559
   15SAPS   H4S 1905   2.532   2.507  16.734 -1.2459  1.3830  1.5179
   15SAPS   C25 1906   2.708   2.626  16.681  0.0259 -0.0479  0.8708
   15SAPS   H5R 1907   2.775   2.649  16.597  0.3601 -2.4126  0.4105
   15SAPS   C26 1908   2.754   2.651  16.802 -0.3729  0.3210  0.8389
   15SAPS   H6R 1909   2.852   2.701  16.801  0.0429 -0.4063 -1.3056
   15SAPS   C27 1910   2.703   2.621  16.937  0.2478 -0.8028 -0.5192
   15SAPS   H7R 1911   2.717   2.514  16.965 -0.6609 -1.3675 -2.0917
   15SAPS   H7S 1912   2.592   2.615  16.941  0.0379  1.7063 -1.2177
   15SAPS   C28 1913   2.735   2.724  17.044  0.0672 -0.2255 -0.2053
   15SAPS   H8R 1914   2.646   2.777  17.083  0.7233 -1.8802  4.0728
   15SAPS   C29 1915   2.856   2.755  17.093 -0.7737  0.0345  0.7986
   15SAPS   H9R 1916   2.860   2.840  17.162  1.0232  0.7027 -0.0674
   15SAPS  C210 1917   2.988   2.689  17.056  0.3240 -0.0939 -0.3073
   15SAPS  H10R 1918   3.071   2.756  17.089  0.4842 -0.7059  0.5771
   15SAPS  H10S 1919   3.007   2.677  16.947 -0.1541 -0.2946 -0.3699
   15SAPS  C211 1920   3.012   2.550  17.114 -0.6043 -0.7638  0.7999
   15SAPS  H11R 1921   2.920   2.506  17.154 -0.0469 -1.0470  1.8322
   15SAPS  C212 1922   3.120   2.465  17.119 -0.4996  0.5515  0.2294
   15SAPS  H12R 1923   3.101   2.377  17.182 -0.4542  2.4610  3.0622
   15SAPS  C213 1924   3.266   2.491  17.077  0.7047 -0.0669 -0.7895
   15SAPS  H13R 1925   3.339   2.481  17.160  2.9264  0.8632 -2.5628
   15SAPS  H13S 1926   3.272   2.600  17.054 -1.4773  0.1497 -0.5506
   15SAPS  C214 1927   3.296   2.409  16.961 -0.3250  0.4892 -0.5065
   15SAPS  H14R 1928   3.225   2.411  16.877 -0.3484  1.3179 -0.4790
   15SAPS  C215 1929   3.406   2.327  16.946 -0.3223 -0.8540 -0.2033
   15SAPS  H15R 1930   3.412   2.256  16.863 -2.5242  0.3210 -1.4855
   15SAPS  C216 1931   3.513   2.325  17.049 -0.4123 -0.5488 -0.5636
   15SAPS  H16R 1932   3.530   2.420  17.105  0.6343 -1.4864  0.7631
   15SAPS  H16S 1933   3.615   2.306  17.009 -0.4828 -1.4800 -0.3207
   15SAPS  C217 1934   3.488   2.222  17.167 -0.0699  0.2582 -0.1657
   15SAPS  H17R 1935   3.471   2.116  17.138 -1.9831 -0.2887  2.6202
   15SAPS  H17S 1936   3.387   2.244  17.206 -1.2565  1.1813 -3.4357
   15SAPS  C218 1937   3.595   2.231  17.277  0.6287  0.6100 -0.1628
   15SAPS  H18R 1938   3.588   2.145  17.346  0.3277  0.8778  0.1467
   15SAPS  H18S 1939   3.577   2.323  17.337 -2.3577 -0.4271  0.7102
   15SAPS  C219 1940   3.738   2.238  17.231 -0.0518 -0.5385 -0.0179
   15SAPS  H19R 1941   3.759   2.337  17.185  2.2523 -0.3195  1.3444
   15SAPS  H19S 1942   3.751   2.153  17.160 -2.6918 -2.5462  1.7215
   15SAPS  C220 1943   3.841   2.230  17.351  0.1318 -0.5002  0.4781
   15SAPS  H20R 1944   3.824   2.304  17.432 -2.4282 -0.7465  0.2457
   15SAPS  H20S 1945   3.944   2.238  17.309  0.2413 -1.7931  0.4578
   15SAPS  H20T 1946   3.828   2.132  17.402 -2.1338  0.1067  1.1656
   15SAPS   C33 1947   2.557   2.892  17.440  0.3504  0.2376  0.0005
   15SAPS   H3X 1948   2.490   2.906  17.527 -0.2762 -1.1953 -0.2195
   15SAPS   H3Y 1949   2.573   2.981  17.376 -4.1820  0.0809 -1.7351
   15SAPS   C34 1950   2.700   2.871  17.498 -0.7391  0.4325 -0.5526
   15SAPS   H4X 1951   2.769   2.843  17.416 -2.6223  2.1878 -2.8754
   15SAPS   H4Y 1952   2.719   2.788  17.569  1.9745 -0.0859 -1.7598
   15SAPS   C35 1953   2.761   3.002  17.555  0.0257 -0.3625  0.0245
   15SAPS   H5X 1954   2.707   3.025  17.648 -0.3217  0.2118 -0.3190
   15SAPS   H5Y 1955   2.751   3.091  17.489 -0.4729 -0.6172 -0.2448
   15SAPS   C36 1956   2.911   2.986  17.575 -0.2448  0.0522  1.0580
   15SAPS   H6X 1957   2.940   2.927  17.486 -2.7124  1.4422 -0.7681
   15SAPS   H6Y 1958   2.927   2.920  17.663  0.0823  0.5391  1.3680
   15SAPS   C37 1959   2.989   3.114  17.586 -0.4795 -0.1162  0.4156
   15SAPS   H7X 1960   2.979   3.157  17.688 -1.0362  0.3138  0.1835
   15SAPS   H7Y 1961   2.958   3.189  17.510  1.4224  0.3374  0.0196
   15SAPS   C38 1962   3.138   3.088  17.549 -0.0565  0.3135  1.2419
   15SAPS   H8X 1963   3.169   2.989  17.588 -1.1029 -0.4758  0.1754
   15SAPS   H8Y 1964   3.206   3.166  17.587  1.3166  0.7881 -1.8527
   15SAPS   C39 1965   3.159   3.085  17.397 -0.4814 -0.0157  0.5396
   15SAPS   H9X 1966   3.134   3.181  17.346  2.1120  0.1818 -0.5196
   15SAPS   H9Y 1967   3.094   3.011  17.345 -0.0864  1.5490 -2.3848
   15SAPS  C310 1968   3.305   3.057  17.351 -0.4278 -0.0249 -0.4190
   15SAPS  H10X 1969   3.328   2.954  17.385  1.5460  0.3319 -0.5682
   15SAPS  H10Y 1970   3.374   3.122  17.409 -0.4844 -1.6055  1.5418
   15SAPS  C311 1971   3.328   3.071  17.205 -0.3117  0.3247 -0.1015
   15SAPS  H11X 1972   3.234   3.035  17.158 -1.3231  2.5776  0.0344
   15SAPS  H11Y 1973   3.410   3.000  17.185  0.9694  0.6380  3.3486
   15SAPS  C312 1974   3.372   3.214  17.166  0.7569  0.2119 -0.0227
   15SAPS  H12X 1975   3.321   3.296  17.221  0.3360 -0.2197  0.2414
   15SAPS  H12Y 1976   3.352   3.243  17.061 -1.6372  0.5852  0.4809
   15SAPS  C313 1977   3.525   3.230  17.188  0.5661  0.3312 -0.1376
   15SAPS  H13X 1978   3.578   3.179  17.105  0.3104 -1.5441  0.8042
   15SAPS  H13Y 1979   3.553   3.187  17.287  0.0074  0.1130 -0.0709
   15SAPS  C314 1980   3.562   3.383  17.191  0.7216 -0.0980  0.3243
   15SAPS  H14X 1981   3.519   3.425  17.285 -2.8734 -1.1380 -0.7053
   15SAPS  H14Y 1982   3.494   3.426  17.115  1.6499 -0.1304 -0.5370
   15SAPS  C315 1983   3.709   3.427  17.164  0.2230  0.4623  0.7464
   15SAPS  H15X 1984   3.714   3.536  17.142  0.8861  0.4179  0.6405
   15SAPS  H15Y 1985   3.738   3.378  17.069  2.0712 -1.9146  2.4092
   15SAPS  C316 1986   3.805   3.383  17.272  0.8831  0.6575 -0.2155
   15SAPS  H16X 1987   3.830   3.275  17.265  0.0648  0.5623 -2.4991
   15SAPS  H16Y 1988   3.750   3.419  17.362  1.2823  0.8561 -0.0451
   15SAPS  C317 1989   3.938   3.457  17.268 -1.5316 -0.2257  0.1239
   15SAPS  H17X 1990   3.941   3.543  17.339  2.1937 -0.1158  0.0216
   15SAPS  H17Y 1991   3.946   3.493  17.164 -0.1540 -1.1736 -0.1290
   15SAPS  C318 1992   4.065   3.371  17.287 -0.0412  0.2485  0.0415
   15SAPS  H18X 1993   4.156   3.434  17.277  1.9378 -2.3961  0.4035
   15SAPS  H18Y 1994   4.075   3.286  17.216 -0.1618 -0.1193  0.4563
   15SAPS  H18Z 1995   4.076   3.333  17.391  1.1532 -1.8983 -0.8124
   16SAPS     N 1996   1.579   4.142  14.771  0.1473 -0.6820 -0.2217
   16SAPS   HN1 1997   1.498   4.163  14.710  0.2780 -0.8225 -0.4474
   16SAPS   HN2 1998   1.546   4.071  14.840  2.0335 -0.2448  1.2366
   16SAPS   HN3 1999   1.599   4.232  14.819  2.0979  0.0119 -2.1977
   16SAPS   C12 2000   1.706   4.102  14.706  0.1555  0.5827  0.6079
   16SAPS  H12A 2001   1.717   3.998  14.732 -0.8796 -0.1054 -1.4724
   16SAPS   C13 2002   1.715   4.126  14.551  0.0972 -0.1444  0.0383
   16SAPS  O13A 2003   1.623   4.177  14.488  0.0553 -0.0662  0.1381
   16SAPS  O13B 2004   1.828   4.109  14.501 -0.9073 -0.4127 -0.2459
   16SAPS   C11 2005   1.820   4.187  14.759 -0.3630 -0.3610 -0.3171
   16SAPS  H11A 2006   1.806   4.293  14.732  3.0553  0.4788  0.6624
   16SAPS  H11B 2007   1.921   4.167  14.717 -1.0407 -0.2079 -2.1058
   16SAPS     P 2008   1.794   4.289  15.007 -0.1305  0.2394  0.2611
   16SAPS   O13 2009   1.656   4.330  14.976  0.6640  0.1230  0.4105
   16SAPS   O14 2010   1.824   4.257  15.145  0.2963 -0.1389  0.1213
   16SAPS   O12 2011   1.832   4.170  14.904  0.3218  0.4596  0.3475
   16SAPS   O11 2012   1.880   4.409  14.962 -0.2302  0.7293  0.1387
   16SAPS    C1 2013   2.009   4.446  14.996 -0.3981  0.9104 -0.2487
   16SAPS    HA 2014   2.027   4.549  14.960 -0.0026  1.2550  0.9162
   16SAPS    HB 2015   2.018   4.439  15.106 -0.7495 -0.7748 -0.3022
   16SAPS    C2 2016   2.122   4.363  14.921  1.2991  0.2531 -1.2424
   16SAPS    HS 2017   2.099   4.377  14.814 -1.0057  1.2677 -0.6723
   16SAPS   O21 2018   2.136   4.224  14.977  0.0764 -0.2685  0.1571
   16SAPS   C21 2019   2.190   4.133  14.887 -0.8133  0.6118  0.6651
   16SAPS   O22 2020   2.207   4.154  14.768 -0.3563  0.1236  0.2512
   16SAPS   C22 2021   2.234   4.007  14.957  0.2236 -0.3702 -0.0668
   16SAPS   H2R 2022   2.281   4.044  15.050 -0.1655 -0.2192  0.0703
   16SAPS   H2S 2023   2.139   3.953  14.981  0.3831  0.3102  2.3238
   16SAPS    C3 2024   2.260   4.431  14.955 -0.1270 -0.4644  0.5081
   16SAPS    HX 2025   2.269   4.529  14.903 -0.2787 -1.0321 -0.6326
   16SAPS    HY 2026   2.341   4.368  14.913  0.3264  0.4415 -0.0028
   16SAPS   O31 2027   2.275   4.464  15.090  0.3080  0.2380  0.0218
   16SAPS   C31 2028   2.348   4.383  15.175 -0.8498 -0.3606 -0.2227
   16SAPS   O32 2029   2.404   4.278  15.134  0.3432  0.7554  0.0850
   16SAPS   C32 2030   2.375   4.448  15.300 -0.2212  0.0852 -1.1965
   16SAPS   H2X 2031   2.327   4.383  15.377  2.5956 -2.2232 -1.2245
   16SAPS   H2Y 2032   2.337   4.552  15.301 -0.0213  0.1560 -0.2361
   16SAPS   C23 2033   2.329   3.924  14.871  0.5854 -0.8425 -0.1921
   16SAPS   H3R 2034   2.424   3.972  14.841  0.8621 -1.1848  0.1233
   16SAPS   H3S 2035   2.275   3.914  14.774  1.7599  0.4851 -1.0141
   16SAPS   C24 2036   2.354   3.785  14.931 -0.5422  0.4629  0.4439
   16SAPS   H4R 2037   2.386   3.715  14.851 -3.9062  0.6154 -1.2049
   16SAPS   H4S 2038   2.262   3.741  14.975 -0.4888  0.0876  0.1852
   16SAPS   C25 2039   2.457   3.783  15.043  0.0930  0.0170  1.0494
   16SAPS   H5R 2040   2.463   3.883  15.088  0.3236 -0.0836  1.2442
   16SAPS   C26 2041   2.538   3.680  15.083  0.1344 -0.5197  0.1957
   16SAPS   H6R 2042   2.607   3.686  15.169  0.4124  2.3913 -0.1193
   16SAPS   C27 2043   2.549   3.549  15.013  0.2910 -0.0500 -0.1744
   16SAPS   H7R 2044   2.451   3.521  14.970  0.9499 -1.6829 -0.6892
   16SAPS   H7S 2045   2.568   3.459  15.074  3.1193  0.5455 -0.0353
   16SAPS   C28 2046   2.657   3.534  14.901 -0.7252 -0.1300  0.8990
   16SAPS   H8R 2047   2.644   3.609  14.822  0.2207 -1.4548 -0.5815
   16SAPS   C29 2048   2.768   3.463  14.908 -0.2917  0.0720  0.1527
   16SAPS   H9R 2049   2.837   3.461  14.823 -0.5385 -0.9906 -0.0395
   16SAPS  C210 2050   2.814   3.375  15.025  0.3708  0.6876  1.1911
   16SAPS  H10R 2051   2.742   3.356  15.107 -0.1575  0.0586  0.5981
   16SAPS  H10S 2052   2.902   3.423  15.073 -0.1766  0.6954  2.2051
   16SAPS  C211 2053   2.858   3.241  14.961 -0.5720 -0.9857 -0.4166
   16SAPS  H11R 2054   2.808   3.207  14.870  1.7928 -0.4188 -2.0307
   16SAPS  C212 2055   2.968   3.166  15.005 -0.2039  0.4087  0.2064
   16SAPS  H12R 2056   2.987   3.067  14.962 -0.5798 -0.4212  1.8631
   16SAPS  C213 2057   3.053   3.186  15.128 -0.4239  0.2409  0.4315
   16SAPS  H13R 2058   3.014   3.125  15.212 -0.1623 -0.9094 -0.2519
   16SAPS  H13S 2059   3.057   3.295  15.150  0.1539  0.2218  0.4393
   16SAPS  C214 2060   3.195   3.133  15.119  0.1801 -0.2128 -0.5391
   16SAPS  H14R 2061   3.249   3.169  15.030 -0.9718 -0.0771 -1.1972
   16SAPS  C215 2062   3.272   3.069  15.215 -0.0356 -0.7207 -0.3942
   16SAPS  H15R 2063   3.375   3.036  15.193  0.4996  1.9328 -2.4365
   16SAPS  C216 2064   3.223   3.015  15.347  0.1384  0.0273 -0.0608
   16SAPS  H16R 2065   3.227   2.905  15.329  0.5601  0.2903 -1.7321
   16SAPS  H16S 2066   3.126   3.054  15.386  0.3987  0.9734 -0.3437
   16SAPS  C217 2067   3.324   3.062  15.456 -0.3850  0.6800 -0.3355
   16SAPS  H17R 2068   3.319   3.173  15.452  1.8235  0.8031 -0.8397
   16SAPS  H17S 2069   3.428   3.035  15.430 -1.2377 -1.5869 -1.7034
   16SAPS  C218 2070   3.284   3.021  15.598  0.9404 -0.3701 -0.2194
   16SAPS  H18R 2071   3.266   2.912  15.600 -0.4417 -0.1561  0.6961
   16SAPS  H18S 2072   3.190   3.079  15.609  0.3819 -1.4534  0.9604
   16SAPS  C219 2073   3.384   3.074  15.707 -0.2651 -0.2177  0.2270
   16SAPS  H19R 2074   3.322   3.142  15.769  1.1198  3.1434 -1.8132
   16SAPS  H19S 2075   3.462   3.141  15.665 -0.1384  1.0884  2.3963
   16SAPS  C220 2076   3.426   2.967  15.797 -0.2779  0.4187  0.5972
   16SAPS  H20R 2077   3.345   2.938  15.868  0.3950 -1.0225  0.8217
   16SAPS  H20S 2078   3.512   3.004  15.857  0.8383 -3.4831  1.7257
   16SAPS  H20T 2079   3.472   2.881  15.743 -1.3881  1.6624 -2.5439
   16SAPS   C33 2080   2.529   4.454  15.333 -0.1508  0.2885  0.3126
   16SAPS   H3X 2081   2.565   4.491  15.234  2.0033  0.0099  0.9262
   16SAPS   H3Y 2082   2.575   4.354  15.347  0.5849  0.6264  0.3782
   16SAPS   C34 2083   2.559   4.536  15.457 -0.4443 -0.0893  0.0888
   16SAPS   H4X 2084   2.514   4.637  15.441  2.8787  1.3298 -1.4058
   16SAPS   H4Y 2085   2.666   4.566  15.465  0.5316 -3.2770  0.1487
   16SAPS   C35 2086   2.510   4.484  15.594  0.0601 -0.1138 -0.2439
   16SAPS   H5X 2087   2.415   4.426  15.586 -0.1853  0.0667  1.1068
   16SAPS   H5Y 2088   2.503   4.573  15.660 -0.6820 -0.4063  0.0815
   16SAPS   C36 2089   2.615   4.383  15.656 -0.6176 -0.7920 -0.5945
   16SAPS   H6X 2090   2.659   4.326  15.572 -0.9626  0.9139 -1.9952
   16SAPS   H6Y 2091   2.566   4.312  15.726 -3.8550  0.6747 -1.1980
   16SAPS   C37 2092   2.735   4.458  15.726 -0.2496  0.5310  0.7123
   16SAPS   H7X 2093   2.778   4.533  15.657  1.1642  0.6839  1.7066
   16SAPS   H7Y 2094   2.814   4.385  15.753 -0.3760  0.1466  0.0566
   16SAPS   C38 2095   2.694   4.518  15.861  0.1811 -0.5929  0.2841
   16SAPS   H8X 2096   2.698   4.431  15.930  0.2454  0.0726  1.1468
   16SAPS   H8Y 2097   2.590   4.558  15.868  1.1369  1.8530  4.4930
   16SAPS   C39 2098   2.783   4.639  15.917 -0.0517  0.5193  0.5848
   16SAPS   H9X 2099   2.885   4.597  15.931 -0.0118  0.3841 -0.0739
   16SAPS   H9Y 2100   2.731   4.656  16.014 -1.1858  0.4433  0.0056
   16SAPS  C310 2101   2.792   4.765  15.815  0.2662  0.3267  0.2935
   16SAPS  H10X 2102   2.705   4.768  15.746  0.4814 -1.9473 -0.1537
   16SAPS  H10Y 2103   2.880   4.763  15.748 -0.6354 -0.5060 -0.9194
   16SAPS  C311 2104   2.799   4.900  15.889  0.3007  0.6040 -0.2155
   16SAPS  H11X 2105   2.879   4.877  15.962 -0.6284  1.0282  0.9711
   16SAPS  H11Y 2106   2.701   4.925  15.935  0.4281 -1.1445  1.1124
   16SAPS  C312 2107   2.835   5.009  15.795  0.4697 -0.5154 -0.2214
   16SAPS  H12X 2108   2.760   5.032  15.716  1.6182  0.6251 -1.0171
   16SAPS  H12Y 2109   2.929   4.984  15.741  0.3181 -1.2315 -0.1626
   16SAPS  C313 2110   2.866   5.138  15.872  0.3691 -0.0097  0.0302
   16SAPS  H13X 2111   2.949   5.137  15.946  1.8548  3.2439 -1.3886
   16SAPS  H13Y 2112   2.783   5.168  15.939 -0.9000 -2.4841 -0.3138
   16SAPS  C314 2113   2.888   5.261  15.779  0.3840  0.5360 -0.9508
   16SAPS  H14X 2114   2.788   5.288  15.741 -0.3416 -1.1159 -0.2893
   16SAPS  H14Y 2115   2.952   5.231  15.693 -3.0119  0.1268 -3.5086
   16SAPS  C315 2116   2.952   5.375  15.855  0.5769 -0.1712 -0.4362
   16SAPS  H15X 2117   3.042   5.338  15.909  0.7168  0.7386 -0.0363
   16SAPS  H15Y 2118   2.881   5.412  15.932 -0.0167  1.3529 -1.6637
   16SAPS  C316 2119   3.009   5.482  15.766  0.3453 -0.8064 -0.3675
   16SAPS  H16X 2120   3.061   5.436  15.679  3.0961 -2.0386  1.7778
   16SAPS  H16Y 2121   3.085   5.525  15.834  0.6631 -3.0229  0.7653
   16SAPS  C317 2122   2.914   5.595  15.730  0.0555  0.1631 -0.0651
   16SAPS  H17X 2123   2.969   5.682  15.687 -1.2111  0.4152 -1.2512
   16SAPS  H17Y 2124   2.854   5.622  15.819 -0.0888 -0.4026  0.0142
   16SAPS  C318 2125   2.825   5.546  15.617  0.0228 -1.2835 -0.1199
   16SAPS  H18X 2126   2.774   5.453  15.650  1.1409 -1.8027  0.2009
   16SAPS  H18Y 2127   2.876   5.531  15.520  2.0967 -1.2198  0.8979
   16SAPS  H18Z 2128   2.753   5.626  15.590  3.0656  1.8184  0.1946
   17SAPC     N 2129   0.455   1.375  22.440 -0.0770  0.3716  0.0685
   17SAPC   C12 2130   0.525   1.309  22.556 -0.5873 -0.5794  0.6169
   17SAPC  H12A 2131   0.463   1.317  22.644 -1.5741 -0.0495 -0.1081
   17SAPC  H12B 2132   0.614   1.364  22.584 -0.8219  0.5682 -0.7992
   17SAPC   C13 2133   0.327   1.311  22.394 -0.2571 -0.0991  0.5202
   17SAPC  H13A 2134   0.245   1.329  22.463 -0.7272  0.9147 -0.2761
   17SAPC  H13B 2135   0.297   1.369  22.308 -0.4829 -0.7948  0.1233
   17SAPC  H13C 2136   0.340   1.205  22.380  0.5397  0.0098  0.4318
   17SAPC   C14 2137   0.427   1.518  22.463  0.6232 -0.4041  0.1725
   17SAPC  H14A 2138   0.347   1.516  22.535 -0.7586 -1.3270 -1.3115
   17SAPC  H14B 2139   0.508   1.585  22.487 -1.9522  2.8048  0.6147
   17SAPC  H14C 2140   0.380   1.572  22.382 -0.4219  0.9177  1.6101
   17SAPC   C15 2141   0.535   1.371  22.310 -0.0291 -0.1909 -0.2389
   17SAPC  H15A 2142   0.635   1.408  22.326  0.8147 -2.5659  0.3764
   17SAPC  H15B 2143   0.550   1.270  22.273 -0.9578 -1.1368  1.7932
   17SAPC  H15C 2144   0.485   1.429  22.234  0.5827 -1.5263 -1.7297
   17SAPC   C11 2145   0.570   1.160  22.548  0.0236 -0.4273 -0.0027
   17SAPC  H11A 2146   0.625   1.136  22.641 -0.4850 -2.9456 -0.2968
   17SAPC  H11B 2147   0.643   1.153  22.465  0.8947  0.2398  0.6875
   17SAPC     P 2148   0.467   0.957  22.429  0.0902  0.3435 -0.0886
   17SAPC   O13 2149   0.362   0.855  22.468  0.3156 -1.1858  0.1296
   17SAPC   O14 2150   0.466   1.005  22.289  0.3488 -0.0060  0.1922
   17SAPC   O12 2151   0.454   1.077  22.533 -0.4288  0.7523 -0.2109
   17SAPC   O11 2152   0.611   0.899  22.458 -0.2796 -0.1532  1.3385
   17SAPC    C1 2153   0.633   0.817  22.575  0.0372  0.0509  0.6057
   17SAPC    HA 2154   0.678   0.886  22.651  0.3154  1.0846 -0.4687
   17SAPC    HB 2155   0.541   0.781  22.625 -0.2980 -0.7887 -0.5691
   17SAPC    C2 2156   0.723   0.697  22.561 -0.5993  0.3214 -0.1842
   17SAPC    HS 2157   0.735   0.668  22.668 -1.5735  1.2295  0.1845
   17SAPC   O21 2158   0.849   0.734  22.501  0.4677  0.2386  0.3447
   17SAPC   C21 2159   0.929   0.806  22.574 -0.5424  0.1843  0.2073
   17SAPC   O22 2160   0.913   0.850  22.687  0.4779  0.5727 -0.1569
   17SAPC   C22 2161   1.051   0.841  22.495  0.6394 -0.4852  0.0379
   17SAPC   H2R 2162   1.072   0.763  22.418 -0.8578 -1.1072  0.2262
   17SAPC   H2S 2163   1.047   0.944  22.453  1.9407 -0.6225 -0.4721
   17SAPC    C3 2164   0.664   0.584  22.482  0.2521 -0.0406 -0.7460
   17SAPC    HX 2165   0.658   0.612  22.374 -1.8909  1.2440 -0.3644
   17SAPC    HY 2166   0.562   0.574  22.524 -0.3276 -0.0576 -2.0953
   17SAPC   O31 2167   0.742   0.464  22.495 -0.1023  0.0768  0.1417
   17SAPC   C31 2168   0.728   0.386  22.607  0.4981 -0.5597 -0.6177
   17SAPC   O32 2169   0.668   0.420  22.706  0.2200 -0.5509 -0.2109
   17SAPC   C32 2170   0.809   0.257  22.585  0.4183  0.3973 -0.2473
   17SAPC   H2X 2171   0.883   0.266  22.502  0.6077  0.5100 -0.0693
   17SAPC   H2Y 2172   0.732   0.179  22.569 -0.3966  0.8652  1.2015
   17SAPC   C23 2173   1.169   0.833  22.592 -0.0171 -0.3248 -0.3118
   17SAPC   H3R 2174   1.174   0.739  22.651 -2.1437 -0.8308 -0.8763
   17SAPC   H3S 2175   1.152   0.917  22.663 -0.1197 -0.7948  0.2296
   17SAPC   C24 2176   1.314   0.848  22.530 -0.5173  0.7973  0.2170
   17SAPC   H4R 2177   1.321   0.778  22.444 -1.1874 -1.2440  1.7532
   17SAPC   H4S 2178   1.396   0.813  22.596 -1.3379 -0.4818  0.5956
   17SAPC   C25 2179   1.323   0.992  22.492  0.1974 -0.2556  0.3483
   17SAPC   H5R 2180   1.348   1.061  22.574  2.3862 -1.0410  0.4197
   17SAPC   C26 2181   1.323   1.058  22.366  0.0706  0.5707  0.0913
   17SAPC   H6R 2182   1.336   1.167  22.369  0.3805  0.5154  2.4439
   17SAPC   C27 2183   1.289   0.974  22.242  0.1462 -0.9168 -0.9176
   17SAPC   H7R 2184   1.228   1.034  22.171  0.7854  0.6572 -0.2073
   17SAPC   H7S 2185   1.214   0.900  22.277  0.4575  0.1270  2.3421
   17SAPC   C28 2186   1.399   0.909  22.160 -0.2993 -0.3695 -0.3317
   17SAPC   H8R 2187   1.502   0.941  22.182 -0.0198 -0.5823 -1.3026
   17SAPC   C29 2188   1.384   0.806  22.071 -0.1366 -0.0489 -0.3207
   17SAPC   H9R 2189   1.475   0.759  22.030 -1.9556 -3.7754 -0.4965
   17SAPC  C210 2190   1.258   0.743  22.015  0.2803 -0.0349  0.4343
   17SAPC  H10R 2191   1.216   0.794  21.926 -1.2154  0.2172  1.2296
   17SAPC  H10S 2192   1.174   0.725  22.087  0.0264  0.9183  0.3932
   17SAPC  C211 2193   1.291   0.612  21.954 -0.1800 -0.1357  0.1559
   17SAPC  H11R 2194   1.252   0.525  22.009  0.6498 -1.6421 -1.5126
   17SAPC  C212 2195   1.368   0.590  21.846 -0.8821  0.2409 -0.1405
   17SAPC  H12R 2196   1.388   0.484  21.822  3.0723  1.1602 -1.7175
   17SAPC  C213 2197   1.437   0.686  21.755  0.4389  0.3428  0.0322
   17SAPC  H13R 2198   1.543   0.658  21.774 -0.1548 -3.7163 -1.5730
   17SAPC  H13S 2199   1.431   0.796  21.770 -4.2701  0.2736  0.2630
   17SAPC  C214 2200   1.400   0.685  21.612 -0.1933 -0.1721 -0.6502
   17SAPC  H14R 2201   1.300   0.726  21.593  0.5140  2.2260  0.4327
   17SAPC  C215 2202   1.478   0.663  21.507 -0.3482  0.3502  0.1549
   17SAPC  H15R 2203   1.444   0.681  21.404  0.1482  0.5100  0.0150
   17SAPC  C216 2204   1.624   0.611  21.513  0.1569  0.7087  0.0788
   17SAPC  H16R 2205   1.667   0.599  21.615  1.3713 -1.7764 -0.6478
   17SAPC  H16S 2206   1.684   0.693  21.468  0.1005  0.2496 -0.8567
   17SAPC  C217 2207   1.648   0.480  21.445 -0.4152  0.2981 -0.0444
   17SAPC  H17R 2208   1.584   0.475  21.354 -0.3634  0.7579 -0.1077
   17SAPC  H17S 2209   1.627   0.386  21.501 -1.1682  0.1527 -0.5607
   17SAPC  C218 2210   1.784   0.480  21.386  0.1375 -0.7076  1.0378
   17SAPC  H18R 2211   1.859   0.499  21.466 -2.9527  0.6504  3.8091
   17SAPC  H18S 2212   1.798   0.567  21.318 -0.0629  0.6476  2.6666
   17SAPC  C219 2213   1.810   0.352  21.306  0.7312 -0.4030 -0.5218
   17SAPC  H19R 2214   1.715   0.308  21.267 -0.1134  1.1166 -0.2769
   17SAPC  H19S 2215   1.841   0.274  21.378 -1.5144 -0.9092 -0.0063
   17SAPC  C220 2216   1.904   0.381  21.179 -0.3254  0.3103 -0.2317
   17SAPC  H20R 2217   2.009   0.396  21.210 -0.6143 -0.3884  1.1887
   17SAPC  H20S 2218   1.857   0.465  21.123  0.3554  1.2305  0.5449
   17SAPC  H20T 2219   1.904   0.296  21.108  0.7496  0.5746 -0.5627
   17SAPC   C33 2220   0.894   0.204  22.705 -0.2864 -0.5353  0.4912
   17SAPC   H3X 2221   0.918   0.095  22.703  0.3208 -0.4291  1.4110
   17SAPC   H3Y 2222   0.851   0.222  22.806  4.2486 -1.4308  2.8174
   17SAPC   C34 2223   1.028   0.277  22.725  0.4362 -0.3179 -1.0291
   17SAPC   H4X 2224   1.082   0.241  22.816 -0.7994  1.7417  0.6156
   17SAPC   H4Y 2225   1.015   0.385  22.745  1.7129 -0.6015  1.8707
   17SAPC   C35 2226   1.128   0.245  22.612 -0.7464  0.4455  0.7092
   17SAPC   H5X 2227   1.072   0.210  22.523  0.5159 -0.8324  0.3928
   17SAPC   H5Y 2228   1.193   0.164  22.653 -0.5850  0.8657  1.3034
   17SAPC   C36 2229   1.207   0.369  22.561  0.3635  0.1326  0.8321
   17SAPC   H6X 2230   1.263   0.418  22.643  1.0409 -0.0992  0.5104
   17SAPC   H6Y 2231   1.149   0.450  22.512  3.4661  1.4401 -0.9978
   17SAPC   C37 2232   1.307   0.326  22.452 -0.3344 -0.3702  0.0757
   17SAPC   H7X 2233   1.242   0.307  22.364  0.5246 -1.3858 -0.3617
   17SAPC   H7Y 2234   1.360   0.236  22.491  2.7051  1.4172  0.3604
   17SAPC   C38 2235   1.409   0.433  22.434 -0.0350 -0.1656  0.1870
   17SAPC   H8X 2236   1.468   0.439  22.528  0.1637  2.7052 -0.0390
   17SAPC   H8Y 2237   1.359   0.531  22.418  0.6713  0.1053 -0.4506
   17SAPC   C39 2238   1.497   0.412  22.306  0.3927 -0.4299 -0.6468
   17SAPC   H9X 2239   1.428   0.407  22.219 -1.3913 -4.2334  0.7350
   17SAPC   H9Y 2240   1.541   0.311  22.321  1.4313  0.2539  1.3029
   17SAPC  C310 2241   1.593   0.525  22.296 -1.0564  0.3634 -0.6030
   17SAPC  H10X 2242   1.661   0.527  22.384  0.3699 -1.9585 -1.5533
   17SAPC  H10Y 2243   1.526   0.613  22.288 -2.4702 -0.7783 -1.9304
   17SAPC  C311 2244   1.682   0.510  22.167  0.4828 -0.7084  0.9210
   17SAPC  H11X 2245   1.614   0.501  22.079  0.6836 -2.2970  0.9056
   17SAPC  H11Y 2246   1.740   0.416  22.178  2.4181 -0.0456 -2.1338
   17SAPC  C312 2247   1.763   0.632  22.134  0.6647  0.5187 -0.6945
   17SAPC  H12X 2248   1.837   0.659  22.212 -1.5146  2.4031  0.8722
   17SAPC  H12Y 2249   1.699   0.723  22.140 -2.4404 -1.5433 -0.4353
   17SAPC  C313 2250   1.815   0.631  21.992 -0.7380 -0.2441  0.3063
   17SAPC  H13X 2251   1.733   0.605  21.923  0.0289  0.3648 -0.8547
   17SAPC  H13Y 2252   1.877   0.538  21.992  0.7886  0.6962 -1.6268
   17SAPC  C314 2253   1.898   0.754  21.965  0.2093  0.0771 -0.1209
   17SAPC  H14X 2254   1.978   0.719  21.896 -1.1323 -1.7963 -0.8028
   17SAPC  H14Y 2255   1.947   0.774  22.063  1.1518 -1.2209 -0.3005
   17SAPC  C315 2256   1.829   0.881  21.918  0.5424 -0.2815  0.0966
   17SAPC  H15X 2257   1.896   0.969  21.926  0.6143 -0.3285  0.0193
   17SAPC  H15Y 2258   1.738   0.903  21.978  0.1285  0.6671 -0.8519
   17SAPC  C316 2259   1.778   0.861  21.775  0.4935 -0.2393  0.3064
   17SAPC  H16X 2260   1.699   0.935  21.751  1.0349  0.7748  1.4992
   17SAPC  H16Y 2261   1.728   0.763  21.766  1.3261 -0.8716  2.0396
   17SAPC  C317 2262   1.881   0.869  21.660 -0.0290  0.6947  0.1527
   17SAPC  H17X 2263   1.897   0.771  21.610  1.7029  0.2630  1.4435
   17SAPC  H17Y 2264   1.978   0.905  21.700 -0.9733  1.0183  2.2946
   17SAPC  C318 2265   1.848   0.987  21.564 -0.1932  0.6294  0.2703
   17SAPC  H18X 2266   1.745   0.997  21.524  0.4763  2.0503 -1.2249
   17SAPC  H18Y 2267   1.868   1.087  21.609 -1.3424  0.2758  1.6404
   17SAPC  H18Z 2268   1.918   0.986  21.477 -0.7406  2.8367 -0.2515
   18SAPC     N 2269   2.059   1.358  27.604 -0.2162 -0.4705  0.1200
   18SAPC   C12 2270   2.020   1.469  27.501  0.6384 -0.3260 -0.3153
   18SAPC  H12A 2271   2.099   1.481  27.428 -1.2146  2.1260 -2.0796
   18SAPC  H12B 2272   2.007   1.566  27.546  0.6529 -0.5111  0.0865
   18SAPC   C13 2273   2.089   1.228  27.544 -0.2315  0.0220 -0.4978
   18SAPC  H13A 2274   2.086   1.144  27.613  1.2472 -0.4434 -0.9845
   18SAPC  H13B 2275   2.008   1.209  27.475  0.5808  3.8227 -2.7569
   18SAPC  H13C 2276   2.181   1.226  27.488  0.3474  1.3450  0.3486
   18SAPC   C14 2277   2.177   1.409  27.686 -0.4557  0.0747 -0.5815
   18SAPC  H14A 2278   2.208   1.322  27.741 -1.8532 -0.1050 -0.0358
   18SAPC  H14B 2279   2.267   1.426  27.628  0.3853  1.0398  0.9215
   18SAPC  H14C 2280   2.143   1.493  27.745  0.5291  0.7476 -0.9492
   18SAPC   C15 2281   1.933   1.341  27.694 -0.4465  0.2568 -0.6125
   18SAPC  H15A 2282   1.953   1.275  27.777 -2.6283 -0.1783 -0.3723
   18SAPC  H15B 2283   1.921   1.439  27.738  0.2986 -0.1582  0.5520
   18SAPC  H15C 2284   1.840   1.304  27.653 -2.6315  0.5607  3.4971
   18SAPC   C11 2285   1.899   1.436  27.414  0.4086 -0.1366 -0.7442
   18SAPC  H11A 2286   1.870   1.525  27.353 -0.8337 -0.0714 -0.1004
   18SAPC  H11B 2287   1.805   1.412  27.469  1.1636 -3.0083 -0.5439
   18SAPC     P 2288   1.994   1.345  27.193  0.0224  0.2746  0.1027
   18SAPC   O13 2289   2.130   1.391  27.225  0.3704 -0.0368 -0.2642
   18SAPC   O14 2290   1.981   1.225  27.107 -0.0588 -0.3397  0.4164
   18SAPC   O12 2291   1.918   1.315  27.328  0.2236 -0.1313 -0.6913
   18SAPC   O11 2292   1.903   1.457  27.131  0.2884 -0.1473 -0.4771
   18SAPC    C1 2293   1.767   1.434  27.105  0.4675  0.1409 -0.1164
   18SAPC    HA 2294   1.723   1.332  27.109 -0.6656  0.6320  0.1352
   18SAPC    HB 2295   1.704   1.493  27.174 -0.4379  0.2125 -0.9861
   18SAPC    C2 2296   1.735   1.467  26.957 -0.1497  1.3807  0.6481
   18SAPC    HS 2297   1.633   1.440  26.921  1.6322 -0.7754 -3.4014
   18SAPC   O21 2298   1.822   1.388  26.867  0.1884 -0.5573  0.4558
   18SAPC   C21 2299   1.817   1.259  26.860 -0.1718 -0.1476 -0.6664
   18SAPC   O22 2300   1.732   1.191  26.915  0.5537  0.3649 -0.0642
   18SAPC   C22 2301   1.920   1.202  26.769 -0.0837  0.2618 -0.5609
   18SAPC   H2R 2302   2.001   1.277  26.758 -2.6262  3.6515  1.7922
   18SAPC   H2S 2303   1.960   1.109  26.815 -2.4123 -2.1199 -2.9768
   18SAPC    C3 2304   1.755   1.613  26.924 -0.2022 -0.4713 -0.1295
   18SAPC    HX 2305   1.863   1.635  26.916 -0.8790  2.6946 -2.5352
   18SAPC    HY 2306   1.711   1.680  27.000  2.1377  0.5508  0.4105
   18SAPC   O31 2307   1.704   1.647  26.789 -0.5643  0.1325  0.4853
   18SAPC   C31 2308   1.570   1.666  26.785  0.0358  0.0088 -0.1916
   18SAPC   O32 2309   1.497   1.671  26.882  0.1629  0.4947  0.0093
   18SAPC   C32 2310   1.523   1.701  26.642 -0.0111  0.4212  0.4760
   18SAPC   H2X 2311   1.586   1.786  26.609  1.5352 -0.6548  0.5467
   18SAPC   H2Y 2312   1.417   1.732  26.657 -1.6513 -3.7169 -1.0339
   18SAPC   C23 2313   1.854   1.142  26.644  0.1672 -0.1344 -0.1806
   18SAPC   H3R 2314   1.759   1.101  26.683  0.2749  0.2618  0.5053
   18SAPC   H3S 2315   1.898   1.053  26.595 -3.4515 -2.0748 -0.2019
   18SAPC   C24 2316   1.814   1.245  26.534 -0.3850 -1.0028  0.4892
   18SAPC   H4R 2317   1.903   1.296  26.493 -0.3928  2.1926  3.9579
   18SAPC   H4S 2318   1.756   1.332  26.570  2.6268  1.5630 -0.4868
   18SAPC   C25 2319   1.734   1.170  26.431  0.1177 -0.2204  0.9595
   18SAPC   H5R 2320   1.638   1.142  26.477 -1.6834  0.1794 -2.2406
   18SAPC   C26 2321   1.765   1.138  26.307  0.2140  0.4069  0.2510
   18SAPC   H6R 2322   1.700   1.069  26.251  1.1942  1.1271 -1.9029
   18SAPC   C27 2323   1.891   1.181  26.234 -0.0990  0.0920  0.0778
   18SAPC   H7R 2324   1.931   1.280  26.262 -0.6217  0.3499 -0.0779
   18SAPC   H7S 2325   1.852   1.205  26.132  1.1988 -1.6169 -0.8787
   18SAPC   C28 2326   2.007   1.084  26.233  0.3999  0.2967  0.0955
   18SAPC   H8R 2327   2.037   1.054  26.334  0.7637 -0.1730 -0.1494
   18SAPC   C29 2328   2.079   1.034  26.126 -0.8183 -0.0013 -0.4383
   18SAPC   H9R 2329   2.162   0.965  26.147 -2.3047 -1.2539  1.6854
   18SAPC  C210 2330   2.057   1.065  25.979 -0.8148  0.0077  0.9084
   18SAPC  H10R 2331   2.149   1.069  25.917 -1.6977  1.0464 -0.3945
   18SAPC  H10S 2332   2.009   1.164  25.962 -0.9980 -0.5910 -2.7442
   18SAPC  C211 2333   1.966   0.960  25.919  0.5180  0.5612  0.1639
   18SAPC  H11R 2334   1.904   0.907  25.993 -0.6978  0.3216 -0.9930
   18SAPC  C212 2335   1.965   0.929  25.789 -0.4852 -0.0531  0.0114
   18SAPC  H12R 2336   1.909   0.841  25.754  0.9731 -1.8079  1.8140
   18SAPC  C213 2337   2.043   1.002  25.675  0.2866 -0.0684 -0.4909
   18SAPC  H13R 2338   2.089   1.094  25.718 -0.0950  0.8528 -1.9720
   18SAPC  H13S 2339   1.974   1.043  25.598 -1.5615  0.9476  1.5748
   18SAPC  C214 2340   2.147   0.909  25.629 -0.0672  0.5040 -0.1720
   18SAPC  H14R 2341   2.236   0.913  25.693  1.6284 -0.2201 -2.3506
   18SAPC  C215 2342   2.150   0.841  25.512 -0.1123 -0.6116  0.5406
   18SAPC  H15R 2343   2.232   0.771  25.490  1.1325  0.4174  1.6979
   18SAPC  C216 2344   2.054   0.846  25.389  0.2677  0.0378  0.0261
   18SAPC  H16R 2345   2.111   0.879  25.299  0.8372 -1.8625 -0.3789
   18SAPC  H16S 2346   1.969   0.913  25.412  0.3095  0.1672 -0.1950
   18SAPC  C217 2347   1.999   0.711  25.328  0.0876  0.4601 -0.0540
   18SAPC  H17R 2348   2.087   0.650  25.299 -0.8450 -0.5116 -0.9505
   18SAPC  H17S 2349   1.954   0.737  25.230  0.7410  1.2824 -0.1500
   18SAPC  C218 2350   1.916   0.632  25.424  0.4893  0.0422 -0.3211
   18SAPC  H18R 2351   1.854   0.706  25.480  0.8394  0.0584  0.0461
   18SAPC  H18S 2352   1.984   0.592  25.501 -1.8608 -0.9509  1.3730
   18SAPC  C219 2353   1.826   0.518  25.354  0.0240 -0.0973 -0.1054
   18SAPC  H19R 2354   1.888   0.447  25.296  2.2610  0.5586  1.3594
   18SAPC  H19S 2355   1.764   0.570  25.278 -1.7967 -0.1001  1.3117
   18SAPC  C220 2356   1.725   0.451  25.451 -0.6097 -0.5277  0.2301
   18SAPC  H20R 2357   1.653   0.529  25.484 -0.0914 -0.2918  0.8340
   18SAPC  H20S 2358   1.780   0.413  25.540  0.7096  2.6339  0.9292
   18SAPC  H20T 2359   1.674   0.364  25.404 -1.4807  0.0323  0.1199
   18SAPC   C33 2360   1.543   1.576  26.553  0.0584  0.4558  0.5299
   18SAPC   H3X 2361   1.475   1.493  26.580 -0.1277  1.0939  2.1550
   18SAPC   H3Y 2362   1.640   1.525  26.568 -0.0008  0.3935  0.6937
   18SAPC   C34 2363   1.534   1.608  26.400 -0.9442 -0.8476 -0.3647
   18SAPC   H4X 2364   1.573   1.707  26.370 -3.3572 -0.0357 -1.0812
   18SAPC   H4Y 2365   1.425   1.615  26.383 -1.3491 -1.6257  1.6356
   18SAPC   C35 2366   1.577   1.505  26.295 -0.6906 -0.3666 -0.8958
   18SAPC   H5X 2367   1.549   1.399  26.314 -0.7435 -0.2892 -0.5274
   18SAPC   H5Y 2368   1.688   1.505  26.304 -0.6760 -2.1490 -0.6542
   18SAPC   C36 2369   1.520   1.521  26.161  0.0875 -0.8426  0.5448
   18SAPC   H6X 2370   1.518   1.628  26.132 -1.0229 -0.9013  0.3725
   18SAPC   H6Y 2371   1.414   1.487  26.161 -0.8707  1.7794 -1.4922
   18SAPC   C37 2372   1.610   1.458  26.057 -0.5573  0.6197  0.0747
   18SAPC   H7X 2373   1.590   1.350  26.050 -4.1156  1.0793  1.3289
   18SAPC   H7Y 2374   1.715   1.465  26.093 -0.4969 -0.1496  0.0521
   18SAPC   C38 2375   1.596   1.529  25.926 -0.1779  0.2744  0.3127
   18SAPC   H8X 2376   1.638   1.632  25.933  1.9887 -0.6592  2.2386
   18SAPC   H8Y 2377   1.488   1.540  25.901  0.1206 -0.1940 -1.2735
   18SAPC   C39 2378   1.658   1.448  25.808 -0.5610  0.2731  0.0121
   18SAPC   H9X 2379   1.609   1.348  25.807 -1.5647  0.5001  4.8927
   18SAPC   H9Y 2380   1.763   1.425  25.839 -0.9930 -0.9353  0.6477
   18SAPC  C310 2381   1.660   1.524  25.674 -0.6412 -0.1077 -0.8746
   18SAPC  H10X 2382   1.731   1.608  25.686  0.7088 -1.1770 -1.1541
   18SAPC  H10Y 2383   1.554   1.554  25.659 -1.4521 -1.3523  1.7690
   18SAPC  C311 2384   1.715   1.441  25.556  0.0620  0.4671 -0.0786
   18SAPC  H11X 2385   1.640   1.364  25.528  0.0697  0.4782 -0.1311
   18SAPC  H11Y 2386   1.801   1.375  25.581 -1.3023 -0.5095  2.2605
   18SAPC  C312 2387   1.759   1.540  25.445  0.2248 -0.5330 -0.3747
   18SAPC  H12X 2388   1.836   1.602  25.496 -1.1194 -0.7715  2.0903
   18SAPC  H12Y 2389   1.680   1.611  25.415  0.9164  0.3253 -0.1845
   18SAPC  C313 2390   1.833   1.486  25.324  0.2561  0.3053  0.1741
   18SAPC  H13X 2391   1.782   1.394  25.287 -1.5881 -0.1657  3.4622
   18SAPC  H13Y 2392   1.931   1.448  25.359 -0.2994 -0.3087  1.1113
   18SAPC  C314 2393   1.867   1.578  25.203 -0.0244 -0.3322 -0.3976
   18SAPC  H14X 2394   1.773   1.625  25.167  0.6258  1.3123 -0.0762
   18SAPC  H14Y 2395   1.909   1.517  25.120 -0.6253  0.4001 -1.2699
   18SAPC  C315 2396   1.974   1.682  25.252  0.1169  0.2003  0.2348
   18SAPC  H15X 2397   2.044   1.623  25.314  1.2723  0.0451 -1.1636
   18SAPC  H15Y 2398   1.938   1.753  25.330  0.9132  0.5051  0.3365
   18SAPC  C316 2399   2.044   1.762  25.153 -0.3103 -0.0524 -0.4208
   18SAPC  H16X 2400   1.971   1.823  25.094 -1.0369 -0.1743  0.3258
   18SAPC  H16Y 2401   2.103   1.697  25.085 -1.7289  0.0922 -1.8661
   18SAPC  C317 2402   2.151   1.858  25.216  0.2359 -0.5693 -0.0325
   18SAPC  H17X 2403   2.192   1.807  25.306 -1.1255  0.3459  1.1431
   18SAPC  H17Y 2404   2.094   1.947  25.250 -0.0015 -0.9786  0.6648
   18SAPC  C318 2405   2.268   1.899  25.126  0.6247 -0.1504 -0.5178
   18SAPC  H18X 2406   2.291   1.812  25.062  0.2174 -0.5615 -0.1168
   18SAPC  H18Y 2407   2.361   1.921  25.183 -0.7636  0.2741  1.7081
   18SAPC  H18Z 2408   2.240   1.985  25.061 -1.7994 -1.0870 -0.8115
   19SAPC     N 2409   0.143   2.854  23.809  0.0099  0.0275  0.2302
   19SAPC   C12 2410   0.183   2.971  23.899  0.1345  0.1682 -0.3568
   19SAPC  H12A 2411   0.254   2.952  23.978 -0.9288  1.5771  1.0114
   19SAPC  H12B 2412   0.084   2.997  23.932  0.4752  0.9468  0.0776
   19SAPC   C13 2413   0.257   2.798  23.735 -0.9919  0.2581 -0.0625
   19SAPC  H13A 2414   0.304   2.865  23.664  0.0596 -1.3042 -0.9132
   19SAPC  H13B 2415   0.336   2.766  23.801 -0.7933  0.7558 -0.0519
   19SAPC  H13C 2416   0.232   2.715  23.670  0.1125 -0.3219  0.2183
   19SAPC   C14 2417   0.087   2.743  23.899  0.2430  0.2986  0.2594
   19SAPC  H14A 2418   0.147   2.731  23.988 -1.2431  0.3979  1.3058
   19SAPC  H14B 2419  -0.015   2.767  23.926 -0.4532 -0.7268 -1.2605
   19SAPC  H14C 2420   0.091   2.648  23.847  0.0268  0.1719  0.4704
   19SAPC   C15 2421   0.026   2.884  23.719 -0.9845  0.4427 -0.0783
   19SAPC  H15A 2422  -0.053   2.933  23.774 -1.6305 -0.7347  0.0787
   19SAPC  H15B 2423   0.059   2.956  23.645  0.0176  1.0958  0.9644
   19SAPC  H15C 2424  -0.015   2.788  23.690  0.0826 -0.6724  1.8813
   19SAPC   C11 2425   0.237   3.100  23.827 -0.4642 -0.3760  0.5336
   19SAPC  H11A 2426   0.304   3.062  23.747 -1.6335  0.7352 -1.0359
   19SAPC  H11B 2427   0.303   3.163  23.890  1.6973 -2.4309  0.4890
   19SAPC     P 2428   0.045   3.275  23.811  0.3719 -0.1646 -0.6013
   19SAPC   O13 2429  -0.042   3.329  23.704  1.0048 -0.4415 -0.5587
   19SAPC   O14 2430  -0.030   3.205  23.920  0.0733  0.1878  0.1887
   19SAPC   O12 2431   0.139   3.171  23.753  0.3847  0.2052  1.0909
   19SAPC   O11 2432   0.150   3.378  23.874  0.4907  0.3582 -0.3277
   19SAPC    C1 2433   0.214   3.466  23.783 -0.7730  0.1409 -0.2135
   19SAPC    HA 2434   0.164   3.471  23.684 -0.9790 -2.5104 -0.3205
   19SAPC    HB 2435   0.206   3.568  23.826 -1.1954  0.7748 -1.7284
   19SAPC    C2 2436   0.364   3.439  23.759 -0.7741 -0.1909 -0.2195
   19SAPC    HS 2437   0.365   3.330  23.743 -1.5792 -0.2628  0.1440
   19SAPC   O21 2438   0.427   3.473  23.883 -0.2802  0.0652  0.7041
   19SAPC   C21 2439   0.534   3.393  23.904  0.2246  0.1008 -0.5070
   19SAPC   O22 2440   0.562   3.293  23.843  0.1126 -0.4510 -0.3508
   19SAPC   C22 2441   0.612   3.450  24.022 -0.0174  0.0325  0.3529
   19SAPC   H2R 2442   0.662   3.548  24.003 -1.1178  0.5250 -0.0811
   19SAPC   H2S 2443   0.543   3.477  24.105  1.6253  0.8286  1.5266
   19SAPC    C3 2444   0.422   3.524  23.642 -0.0575 -0.1152  0.2032
   19SAPC    HX 2445   0.437   3.624  23.688 -0.6658  0.5962 -1.0738
   19SAPC    HY 2446   0.343   3.539  23.564 -0.6015  2.9883  1.2068
   19SAPC   O31 2447   0.549   3.478  23.583  0.8694 -0.4456  0.0065
   19SAPC   C31 2448   0.549   3.364  23.514  0.2935  0.7412 -0.1775
   19SAPC   O32 2449   0.456   3.296  23.491 -0.3693 -0.3808 -0.0238
   19SAPC   C32 2450   0.691   3.341  23.453  0.3457  0.3104  0.4812
   19SAPC   H2X 2451   0.769   3.372  23.526 -0.7240  0.7682  1.4560
   19SAPC   H2Y 2452   0.697   3.419  23.374  1.5735  0.8962  1.1131
   19SAPC   C23 2453   0.714   3.343  24.079  0.7098 -0.5706  0.2953
   19SAPC   H3R 2454   0.750   3.279  23.996 -0.4259  0.3114 -0.9154
   19SAPC   H3S 2455   0.656   3.269  24.138 -1.3908 -0.3006 -1.2835
   19SAPC   C24 2456   0.820   3.406  24.165  0.0857  0.3375  0.2296
   19SAPC   H4R 2457   0.870   3.474  24.093 -0.7709 -0.8650 -1.5723
   19SAPC   H4S 2458   0.906   3.344  24.197  0.1596  0.3485  0.0549
   19SAPC   C25 2459   0.775   3.469  24.288  0.7322  0.1421 -0.1343
   19SAPC   H5R 2460   0.695   3.419  24.345  1.6120  0.1164  1.1156
   19SAPC   C26 2461   0.835   3.570  24.350 -0.2498 -1.3690 -0.2386
   19SAPC   H6R 2462   0.785   3.613  24.438 -0.0517  0.0887 -0.8179
   19SAPC   C27 2463   0.949   3.652  24.283 -0.1479  0.3345  0.1152
   19SAPC   H7R 2464   0.932   3.652  24.174 -2.2685 -1.9686  0.3425
   19SAPC   H7S 2465   1.053   3.619  24.302 -0.2542 -0.4249 -0.5812
   19SAPC   C28 2466   0.941   3.798  24.332  0.5874  0.4045 -0.2358
   19SAPC   H8R 2467   0.856   3.817  24.400 -0.3134 -3.9833  0.1962
   19SAPC   C29 2468   1.012   3.895  24.273  0.4808 -0.2805  0.1312
   19SAPC   H9R 2469   0.997   4.000  24.302  0.7000  0.2071 -1.4370
   19SAPC  C210 2470   1.103   3.864  24.163  0.7811  0.5471  0.0490
   19SAPC  H10R 2471   1.051   3.840  24.068  0.0442 -0.5668  0.7034
   19SAPC  H10S 2472   1.161   3.770  24.179 -2.4407 -1.8301 -1.1470
   19SAPC  C211 2473   1.190   3.982  24.126  0.5065  0.3678  0.1708
   19SAPC  H11R 2474   1.179   4.072  24.188  1.4493  1.4637 -1.2026
   19SAPC  C212 2475   1.277   3.981  24.025 -0.7084  0.2786 -0.0104
   19SAPC  H12R 2476   1.334   4.076  24.024  1.2104 -0.8131  0.4925
   19SAPC  C213 2477   1.324   3.862  23.946  0.3989 -0.4762 -0.4961
   19SAPC  H13R 2478   1.315   3.767  24.003  2.1542 -0.9744 -0.9866
   19SAPC  H13S 2479   1.431   3.884  23.926  0.8696 -1.1802  1.1167
   19SAPC  C214 2480   1.243   3.867  23.818  0.4284 -0.4016 -0.1306
   19SAPC  H14R 2481   1.134   3.868  23.835  0.4179 -1.6042  0.0186
   19SAPC  C215 2482   1.288   3.837  23.690  0.1168 -0.7292 -0.0340
   19SAPC  H15R 2483   1.227   3.863  23.602  0.3029  1.8765  0.5113
   19SAPC  C216 2484   1.434   3.811  23.649  0.6875  0.6210  0.2463
   19SAPC  H16R 2485   1.493   3.779  23.737  0.0571  2.1367  1.2631
   19SAPC  H16S 2486   1.479   3.907  23.615  2.1886  0.3578  1.3985
   19SAPC  C217 2487   1.478   3.713  23.534 -0.1053 -0.1618  0.1928
   19SAPC  H17R 2488   1.586   3.691  23.549  0.2777  0.4535 -1.4122
   19SAPC  H17S 2489   1.471   3.764  23.435  0.3118 -0.0954  0.1965
   19SAPC  C218 2490   1.390   3.590  23.540 -0.0130  0.0183 -0.2467
   19SAPC  H18R 2491   1.283   3.621  23.548 -0.6129 -2.3369  3.0587
   19SAPC  H18S 2492   1.407   3.540  23.638 -1.9259  2.9931  1.8192
   19SAPC  C219 2493   1.406   3.477  23.429 -0.0503  0.1992  0.1463
   19SAPC  H19R 2494   1.364   3.512  23.333  0.2082  0.5259  0.1471
   19SAPC  H19S 2495   1.357   3.383  23.460  0.3048 -0.4713 -1.2596
   19SAPC  C220 2496   1.559   3.448  23.406 -0.2356  0.1063  0.0276
   19SAPC  H20R 2497   1.615   3.530  23.356  0.0654  0.0520  0.2715
   19SAPC  H20S 2498   1.568   3.362  23.336  1.7812 -2.4773  3.1392
   19SAPC  H20T 2499   1.595   3.436  23.510  1.3172  0.2334 -0.4777
   19SAPC   C33 2500   0.715   3.195  23.395  0.8258 -0.2682  0.1809
   19SAPC   H3X 2501   0.646   3.208  23.309 -2.2369 -0.3676  2.4503
   19SAPC   H3Y 2502   0.679   3.121  23.469  0.8124  0.5481  1.0139
   19SAPC   C34 2503   0.848   3.147  23.341 -0.1402 -0.4376 -0.1737
   19SAPC   H4X 2504   0.876   3.217  23.260 -0.9213  1.2823  0.9565
   19SAPC   H4Y 2505   0.830   3.053  23.284  2.0341 -0.2351 -1.2730
   19SAPC   C35 2506   0.965   3.127  23.437 -1.1376 -0.3113 -0.4134
   19SAPC   H5X 2507   0.945   3.027  23.482 -0.7971 -0.0446  0.3368
   19SAPC   H5Y 2508   0.957   3.213  23.507  0.0419  0.4248 -1.1540
   19SAPC   C36 2509   1.104   3.118  23.366  0.5515  0.0184 -0.7173
   19SAPC   H6X 2510   1.131   3.225  23.353  1.2313 -0.0556  0.0101
   19SAPC   H6Y 2511   1.097   3.071  23.266  2.3755  0.0102 -0.8791
   19SAPC   C37 2512   1.213   3.040  23.443  0.2122  0.3773  0.9737
   19SAPC   H7X 2513   1.171   2.939  23.461  1.4436 -0.0971  1.3167
   19SAPC   H7Y 2514   1.231   3.081  23.545  0.0351 -1.5135  1.8143
   19SAPC   C38 2515   1.345   3.037  23.359  0.0277  0.1620  0.1772
   19SAPC   H8X 2516   1.361   3.142  23.328 -0.1764 -0.3473 -1.7779
   19SAPC   H8Y 2517   1.313   2.974  23.273  0.3374 -0.1560  0.2930
   19SAPC   C39 2518   1.462   2.983  23.437 -0.3281 -0.5949 -0.5285
   19SAPC   H9X 2519   1.449   2.877  23.468  2.0207 -1.3212 -1.8437
   19SAPC   H9Y 2520   1.467   3.044  23.529  3.2629  0.0882 -1.0660
   19SAPC  C310 2521   1.593   2.999  23.353  0.1955  0.7464 -0.5281
   19SAPC  H10X 2522   1.671   2.958  23.420 -0.3553 -2.2003 -1.5548
   19SAPC  H10Y 2523   1.602   3.108  23.332  1.0233  0.5167 -1.4220
   19SAPC  C311 2524   1.599   2.907  23.233  0.2038 -0.6664 -0.4032
   19SAPC  H11X 2525   1.545   2.948  23.146  1.6914 -1.5321 -1.7836
   19SAPC  H11Y 2526   1.554   2.811  23.264 -0.0349 -0.4752 -0.1470
   19SAPC  C312 2527   1.744   2.876  23.185  0.1668  0.2414 -0.2340
   19SAPC  H12X 2528   1.731   2.799  23.105  0.3857  2.2883 -2.3700
   19SAPC  H12Y 2529   1.800   2.829  23.268 -0.4406 -2.0721 -1.0621
   19SAPC  C313 2530   1.820   2.989  23.108 -0.0326  0.3343  0.0262
   19SAPC  H13X 2531   1.843   3.075  23.174  1.1868  0.3045 -0.3219
   19SAPC  H13Y 2532   1.753   3.026  23.028 -0.6729 -4.2159 -1.8724
   19SAPC  C314 2533   1.952   2.948  23.055 -0.2933 -0.1646 -0.1828
   19SAPC  H14X 2534   1.954   2.862  22.985  3.5693  0.6820 -1.3761
   19SAPC  H14Y 2535   2.004   2.894  23.137 -1.6080 -0.6903  0.3275
   19SAPC  C315 2536   2.046   3.063  23.002 -0.1715 -0.0393 -1.4051
   19SAPC  H15X 2537   2.059   3.144  23.077  2.6959 -1.9195  0.3009
   19SAPC  H15Y 2538   1.997   3.113  22.915  1.8626  1.4873 -1.7636
   19SAPC  C316 2539   2.177   3.012  22.954 -0.4524  0.0585  0.3320
   19SAPC  H16X 2540   2.153   2.957  22.861  1.0159  1.4261 -0.8957
   19SAPC  H16Y 2541   2.235   2.962  23.035 -0.7783 -1.2959 -0.2402
   19SAPC  C317 2542   2.267   3.138  22.918  0.2254  0.6102  0.5711
   19SAPC  H17X 2543   2.291   3.187  23.015  1.8648  0.0249  0.4991
   19SAPC  H17Y 2544   2.219   3.221  22.861 -0.7113 -1.2782 -1.5842
   19SAPC  C318 2545   2.395   3.098  22.839 -0.7708  0.0338  0.8379
   19SAPC  H18X 2546   2.459   3.042  22.911 -1.7778 -0.3881  1.4260
   19SAPC  H18Y 2547   2.441   3.196  22.812  0.3396 -0.9795 -1.1410
   19SAPC  H18Z 2548   2.382   3.036  22.749 -1.9454 -1.4924  2.0032
   20SAPC     N 2549   0.237   2.278  22.532  1.0020 -1.0365 -0.7417
   20SAPC   C12 2550   0.224   2.307  22.389  0.7102 -0.4182  0.3578
   20SAPC  H12A 2551   0.244   2.412  22.372  3.2991 -0.5009  2.1817
   20SAPC  H12B 2552   0.125   2.282  22.356  0.9327 -0.3761 -0.3544
   20SAPC   C13 2553   0.126   2.352  22.598  0.4696  0.2357 -0.5127
   20SAPC  H13A 2554   0.150   2.357  22.703  2.6401  0.2308 -0.9547
   20SAPC  H13B 2555   0.138   2.459  22.589  1.2872  0.1882 -0.0435
   20SAPC  H13C 2556   0.031   2.307  22.574  0.2457  1.8393 -3.1312
   20SAPC   C14 2557   0.224   2.144  22.575 -0.3234 -0.1664  0.1325
   20SAPC  H14A 2558   0.127   2.096  22.581 -0.3122 -0.5367 -1.7517
   20SAPC  H14B 2559   0.269   2.080  22.500  1.6099  0.9460  0.2688
   20SAPC  H14C 2560   0.269   2.132  22.672  1.9371 -1.0016 -0.9547
   20SAPC   C15 2561   0.357   2.337  22.585  0.0551  0.0846 -0.0583
   20SAPC  H15A 2562   0.384   2.293  22.681  0.6972  1.0542  0.2144
   20SAPC  H15B 2563   0.440   2.314  22.520 -0.0798 -0.1531 -0.1489
   20SAPC  H15C 2564   0.373   2.443  22.591 -0.5489  0.1322  0.9997
   20SAPC   C11 2565   0.314   2.223  22.298  0.5582 -0.3230  0.2665
   20SAPC  H11A 2566   0.271   2.242  22.197 -2.5529 -0.8409  1.3966
   20SAPC  H11B 2567   0.296   2.114  22.308 -0.3263 -0.3660 -1.4530
   20SAPC     P 2568   0.571   2.166  22.308 -0.0212  0.0231 -0.1320
   20SAPC   O13 2569   0.535   2.044  22.380  0.1174 -0.1725 -0.0928
   20SAPC   O14 2570   0.612   2.149  22.170 -0.3317  0.0172 -0.1025
   20SAPC   O12 2571   0.448   2.268  22.312 -0.2415 -0.5092  0.1152
   20SAPC   O11 2572   0.681   2.244  22.396  0.3150  0.5046 -0.0671
   20SAPC    C1 2573   0.676   2.384  22.404  0.3736  0.2202 -0.0734
   20SAPC    HA 2574   0.669   2.435  22.306  0.1804  0.5353  0.1034
   20SAPC    HB 2575   0.585   2.415  22.460  0.0059 -1.1659  0.1391
   20SAPC    C2 2576   0.790   2.440  22.482  0.6791  0.5359  0.1035
   20SAPC    HS 2577   0.776   2.548  22.507 -2.0463  0.2215  0.2485
   20SAPC   O21 2578   0.907   2.416  22.405  0.3339 -0.0055  0.3632
   20SAPC   C21 2579   0.919   2.479  22.288  0.0056  0.5542 -0.2101
   20SAPC   O22 2580   0.855   2.573  22.251  0.1859  0.2013  0.2543
   20SAPC   C22 2581   1.036   2.418  22.200 -0.3145 -0.1059 -0.2066
   20SAPC   H2R 2582   1.123   2.407  22.268  0.1270  1.2954 -0.5099
   20SAPC   H2S 2583   1.001   2.319  22.166  2.6874 -1.0632 -0.8873
   20SAPC    C3 2584   0.807   2.367  22.625  0.0546 -0.7184  0.7060
   20SAPC    HX 2585   0.840   2.263  22.605 -1.2154 -0.6903 -1.9907
   20SAPC    HY 2586   0.702   2.363  22.661 -0.1188  0.1398  0.2997
   20SAPC   O31 2587   0.895   2.444  22.705  0.3781  0.6674 -0.3927
   20SAPC   C31 2588   1.027   2.414  22.711  0.1875 -0.4383  0.0634
   20SAPC   O32 2589   1.074   2.308  22.667 -0.2594  0.0452  0.1416
   20SAPC   C32 2590   1.099   2.530  22.788 -0.6598  0.4002 -0.4091
   20SAPC   H2X 2591   1.167   2.489  22.865  0.4465 -0.9970 -2.0547
   20SAPC   H2Y 2592   1.025   2.592  22.843  1.5829  1.8941  1.1206
   20SAPC   C23 2593   1.076   2.517  22.084 -0.0601 -0.4152  0.2539
   20SAPC   H3R 2594   1.083   2.623  22.115  0.4339 -0.3037 -0.2274
   20SAPC   H3S 2595   0.987   2.520  22.018 -1.2987  0.4406  1.8859
   20SAPC   C24 2596   1.200   2.488  22.003 -0.4781 -0.6313  0.3266
   20SAPC   H4R 2597   1.214   2.535  21.903 -1.2225 -4.3851 -1.7374
   20SAPC   H4S 2598   1.198   2.386  21.959  0.9860  0.1335 -1.6483
   20SAPC   C25 2599   1.318   2.498  22.088 -0.2249 -0.0828  0.4194
   20SAPC   H5R 2600   1.284   2.517  22.191 -2.6077  1.2893 -0.5398
   20SAPC   C26 2601   1.449   2.472  22.041  1.0048  0.2747 -0.2280
   20SAPC   H6R 2602   1.526   2.495  22.117 -1.2648  1.5694  1.8275
   20SAPC   C27 2603   1.486   2.437  21.889 -0.4767  0.1143  0.2005
   20SAPC   H7R 2604   1.398   2.385  21.847  0.8367 -1.6563 -0.4492
   20SAPC   H7S 2605   1.570   2.366  21.882 -1.3880 -0.8043 -2.2209
   20SAPC   C28 2606   1.519   2.559  21.802  0.2739 -0.4981  0.5266
   20SAPC   H8R 2607   1.445   2.640  21.810  0.2746 -0.5080  0.6303
   20SAPC   C29 2608   1.626   2.574  21.723  0.7553 -0.0548  0.3011
   20SAPC   H9R 2609   1.621   2.674  21.678  0.7651  0.5997  1.7022
   20SAPC  C210 2610   1.741   2.478  21.687  0.3382  0.8344 -0.7509
   20SAPC  H10R 2611   1.701   2.388  21.635  0.5999 -0.6706  1.5237
   20SAPC  H10S 2612   1.801   2.437  21.771  0.6442 -0.9295 -1.7701
   20SAPC  C211 2613   1.834   2.550  21.597 -0.6013 -0.2077 -0.0755
   20SAPC  H11R 2614   1.779   2.614  21.527 -2.8005  0.2823  1.9817
   20SAPC  C212 2615   1.971   2.537  21.589  1.2775  0.3545 -0.1210
   20SAPC  H12R 2616   2.029   2.608  21.528  1.8298 -0.1568 -0.2015
   20SAPC  C213 2617   2.063   2.448  21.666  1.1502 -0.3459  0.3959
   20SAPC  H13R 2618   2.141   2.416  21.593 -1.5589  0.0660 -2.9712
   20SAPC  H13S 2619   2.007   2.359  21.703 -1.1182  0.3664 -1.0497
   20SAPC  C214 2620   2.125   2.512  21.781 -0.6880 -0.1851 -0.5000
   20SAPC  H14R 2621   2.073   2.504  21.878  1.8801 -3.2866  0.8041
   20SAPC  C215 2622   2.237   2.585  21.775 -0.5660  0.4951 -0.3210
   20SAPC  H15R 2623   2.274   2.638  21.863 -2.3536 -0.5639  1.1482
   20SAPC  C216 2624   2.307   2.610  21.645  0.9575  0.3654 -0.3589
   20SAPC  H16R 2625   2.363   2.706  21.647  0.5195  0.6163  0.9152
   20SAPC  H16S 2626   2.239   2.617  21.557  1.1186  0.4090 -0.4795
   20SAPC  C217 2627   2.419   2.511  21.587  0.4294 -0.2219  0.5325
   20SAPC  H17R 2628   2.377   2.416  21.548  1.7403 -0.8201  0.5057
   20SAPC  H17S 2629   2.484   2.490  21.675  1.2639 -0.6476 -0.1693
   20SAPC  C218 2630   2.493   2.581  21.470  0.0598  0.0556 -0.2889
   20SAPC  H18R 2631   2.421   2.658  21.434  1.5620  2.0703  0.8223
   20SAPC  H18S 2632   2.515   2.503  21.393 -0.3432 -1.9229  1.5056
   20SAPC  C219 2633   2.628   2.651  21.511  0.0441 -0.0101  0.2771
   20SAPC  H19R 2634   2.694   2.589  21.574  0.9300  2.1480  1.5719
   20SAPC  H19S 2635   2.599   2.733  21.580 -0.3194 -1.4965  1.9483
   20SAPC  C220 2636   2.711   2.716  21.400  0.1794  0.4948  0.7922
   20SAPC  H20R 2637   2.754   2.633  21.340 -1.8919 -0.7269  0.9217
   20SAPC  H20S 2638   2.799   2.772  21.438  0.6078  2.0245 -2.1275
   20SAPC  H20T 2639   2.641   2.785  21.347  0.4711  0.2692  0.0911
   20SAPC   C33 2640   1.179   2.619  22.694  0.3851 -0.4568  0.2247
   20SAPC   H3X 2641   1.264   2.562  22.650 -0.0184 -0.9842  0.1162
   20SAPC   H3Y 2642   1.234   2.690  22.759 -1.9907  0.6338  1.1323
   20SAPC   C34 2643   1.097   2.678  22.582  0.2741  0.5732 -0.4499
   20SAPC   H4X 2644   1.008   2.731  22.623  1.1347 -0.2709  2.7878
   20SAPC   H4Y 2645   1.049   2.604  22.513  1.5671 -0.9723  0.2478
   20SAPC   C35 2646   1.182   2.773  22.492  0.3532  0.1952 -0.3066
   20SAPC   H5X 2647   1.265   2.710  22.453 -0.4181 -0.8172 -0.3547
   20SAPC   H5Y 2648   1.219   2.860  22.551 -0.5576  2.0307 -2.3236
   20SAPC   C36 2649   1.091   2.816  22.381  0.2412 -0.2103 -0.8379
   20SAPC   H6X 2650   0.992   2.843  22.424  0.8160  0.1220  0.3381
   20SAPC   H6Y 2651   1.071   2.732  22.312 -1.2403  0.8451 -1.7690
   20SAPC   C37 2652   1.146   2.934  22.294  0.1098  0.1505 -0.4370
   20SAPC   H7X 2653   1.179   3.021  22.355  0.3177  0.9523 -1.6507
   20SAPC   H7Y 2654   1.070   2.953  22.215 -0.1721 -1.3165 -0.5521
   20SAPC   C38 2655   1.265   2.897  22.199 -0.2927 -0.3261 -0.1576
   20SAPC   H8X 2656   1.236   2.810  22.136  1.0743 -1.5786  0.8737
   20SAPC   H8Y 2657   1.341   2.851  22.266 -0.5379 -2.3049 -1.1499
   20SAPC   C39 2658   1.332   3.013  22.124  0.0660 -0.2838 -0.9834
   20SAPC   H9X 2659   1.366   3.095  22.191  0.3862 -1.7836  0.7867
   20SAPC   H9Y 2660   1.254   3.070  22.069  1.5552  1.0407 -1.7837
   20SAPC  C310 2661   1.444   2.973  22.032  0.5219 -0.3233  0.4225
   20SAPC  H10X 2662   1.454   3.064  21.969 -1.4347 -0.6292 -0.4047
   20SAPC  H10Y 2663   1.421   2.895  21.957  0.7520 -1.2655  1.3209
   20SAPC  C311 2664   1.577   2.939  22.113 -0.1925  0.0526  0.2801
   20SAPC  H11X 2665   1.560   2.986  22.212  0.0948 -1.6309  1.1721
   20SAPC  H11Y 2666   1.668   2.982  22.067 -1.4559  0.4365 -2.0065
   20SAPC  C312 2667   1.593   2.787  22.148 -0.0034 -0.3014 -0.1789
   20SAPC  H12X 2668   1.638   2.739  22.058  0.3209 -0.2161 -0.0652
   20SAPC  H12Y 2669   1.492   2.744  22.163  1.0498 -3.4827 -1.2486
   20SAPC  C313 2670   1.673   2.761  22.276 -0.1215 -0.2773 -0.3681
   20SAPC  H13X 2671   1.625   2.814  22.361  0.6721 -0.9609  0.5295
   20SAPC  H13Y 2672   1.771   2.813  22.268 -0.4157  0.3460  0.0200
   20SAPC  C314 2673   1.692   2.609  22.310 -0.0278 -0.5152  0.3454
   20SAPC  H14X 2674   1.783   2.597  22.373  0.0831  0.1428  0.3219
   20SAPC  H14Y 2675   1.716   2.549  22.220  1.3187  0.4583  0.0123
   20SAPC  C315 2676   1.566   2.559  22.392  0.0064 -0.4468  0.2457
   20SAPC  H15X 2677   1.476   2.610  22.351  0.5607  0.7884  0.5419
   20SAPC  H15Y 2678   1.575   2.602  22.494  1.0447 -0.6032  0.2275
   20SAPC  C316 2679   1.554   2.405  22.396 -0.8367 -0.3772  0.0746
   20SAPC  H16X 2680   1.647   2.376  22.449  0.1485  2.0728 -0.1774
   20SAPC  H16Y 2681   1.554   2.379  22.288 -0.4608  1.9690 -0.5431
   20SAPC  C317 2682   1.426   2.364  22.465  1.4740 -0.3679  0.5844
   20SAPC  H17X 2683   1.346   2.434  22.432  2.2747  0.1323 -0.3320
   20SAPC  H17Y 2684   1.436   2.386  22.573  1.2610  0.2947  0.4737
   20SAPC  C318 2685   1.394   2.213  22.446  0.0054 -0.6767 -0.1398
   20SAPC  H18X 2686   1.424   2.190  22.341 -1.5152 -0.0232 -0.7465
   20SAPC  H18Y 2687   1.289   2.183  22.469  0.3854 -1.5015  0.6164
   20SAPC  H18Z 2688   1.455   2.169  22.527  1.8716  2.6054  0.4037
   21SAPC     N 2689   0.367   0.760  22.004  0.4071  0.0959  0.5414
   21SAPC   C12 2690   0.411   0.648  21.910  0.5297 -0.1318 -0.8537
   21SAPC  H12A 2691   0.327   0.619  21.848  0.5132 -1.9840 -0.0338
   21SAPC  H12B 2692   0.423   0.558  21.968 -0.7604 -0.7963 -1.5572
   21SAPC   C13 2693   0.365   0.894  21.939 -0.0826 -0.1643  0.6365
   21SAPC  H13A 2694   0.351   0.975  22.009  0.0525 -1.6459  2.4638
   21SAPC  H13B 2695   0.452   0.902  21.876 -0.1716 -0.5875  0.4576
   21SAPC  H13C 2696   0.274   0.890  21.880  1.3401 -1.5771 -1.6328
   21SAPC   C14 2697   0.237   0.741  22.073 -0.3790 -0.1949  0.5803
   21SAPC  H14A 2698   0.157   0.720  22.004 -1.6764 -1.1691  2.2985
   21SAPC  H14B 2699   0.233   0.657  22.141 -2.7786  0.3777  1.2296
   21SAPC  H14C 2700   0.199   0.828  22.124 -0.3178  0.5896 -0.6723
   21SAPC   C15 2701   0.467   0.772  22.116 -0.0135 -1.4600  0.1207
   21SAPC  H15A 2702   0.559   0.822  22.089  1.2353 -3.3940  0.6337
   21SAPC  H15B 2703   0.426   0.833  22.195  0.7221  0.6505 -1.0502
   21SAPC  H15C 2704   0.482   0.671  22.150 -0.9028 -1.5471  0.2776
   21SAPC   C11 2705   0.543   0.666  21.828  0.1314  0.4414  0.0384
   21SAPC  H11A 2706   0.582   0.563  21.812 -4.5908 -1.4391 -0.8166
   21SAPC  H11B 2707   0.611   0.725  21.893  0.2172  1.5995 -1.0700
   21SAPC     P 2708   0.457   0.645  21.580  0.1705 -0.0522 -0.2644
   21SAPC   O13 2709   0.327   0.594  21.619  0.1414  0.2981  0.0778
   21SAPC   O14 2710   0.464   0.738  21.470  0.0729  0.2106  0.0199
   21SAPC   O12 2711   0.508   0.729  21.703  0.3512  0.3549 -0.0417
   21SAPC   O11 2712   0.567   0.531  21.569 -0.0648  0.2668  0.3348
   21SAPC    C1 2713   0.700   0.567  21.543  0.7445 -0.3447  0.6030
   21SAPC    HA 2714   0.701   0.610  21.440 -1.2711 -1.0203  0.2522
   21SAPC    HB 2715   0.737   0.638  21.620 -1.5426  1.5164  0.0828
   21SAPC    C2 2716   0.777   0.428  21.554 -0.2124  0.2571 -0.0917
   21SAPC    HS 2717   0.732   0.373  21.639 -0.9243 -0.0732 -0.6676
   21SAPC   O21 2718   0.916   0.453  21.563  0.2035  0.4931  0.2924
   21SAPC   C21 2719   0.973   0.390  21.658 -0.0821  0.6195 -0.1371
   21SAPC   O22 2720   0.920   0.324  21.747  0.1312 -0.1779  0.3238
   21SAPC   C22 2721   1.122   0.413  21.656  0.0660 -0.1530 -0.3260
   21SAPC   H2R 2722   1.141   0.515  21.618 -0.5028 -0.2740 -0.9509
   21SAPC   H2S 2723   1.152   0.405  21.763  0.5536  0.3088 -0.4268
   21SAPC    C3 2724   0.731   0.340  21.432 -0.2688 -0.3038 -0.4509
   21SAPC    HX 2725   0.780   0.377  21.340  2.2946  1.3034  1.4395
   21SAPC    HY 2726   0.620   0.332  21.429 -0.7113  2.5077  2.6813
   21SAPC   O31 2727   0.782   0.204  21.460  0.1309 -0.1914  0.1964
   21SAPC   C31 2728   0.769   0.121  21.362 -0.0521 -0.5985  0.2248
   21SAPC   O32 2729   0.715   0.149  21.256  0.4175 -0.0450  0.3476
   21SAPC   C32 2730   0.841  -0.012  21.393  0.3742  0.4646 -0.2808
   21SAPC   H2X 2731   0.770  -0.087  21.435 -1.9417  3.0500  0.7455
   21SAPC   H2Y 2732   0.916   0.018  21.470 -0.8526  2.0043  0.3616
   21SAPC   C23 2733   1.193   0.296  21.580 -0.9606 -0.1887 -0.0921
   21SAPC   H3R 2734   1.160   0.198  21.623  0.0421 -0.7477 -0.5622
   21SAPC   H3S 2735   1.300   0.311  21.604 -1.1048 -1.2684  1.3875
   21SAPC   C24 2736   1.179   0.292  21.423 -0.2492  0.5502 -0.0690
   21SAPC   H4R 2737   1.223   0.384  21.378 -0.9111  0.8428 -0.1345
   21SAPC   H4S 2738   1.069   0.283  21.414 -0.3709 -2.0476  2.4128
   21SAPC   C25 2739   1.248   0.170  21.367  1.0106  0.0616 -0.1391
   21SAPC   H5R 2740   1.222   0.073  21.413 -0.9873  0.2993 -0.6579
   21SAPC   C26 2741   1.320   0.151  21.254 -0.7604  0.4981  0.2921
   21SAPC   H6R 2742   1.376   0.057  21.244 -0.5394  0.5652  0.8841
   21SAPC   C27 2743   1.371   0.252  21.152  0.8624 -0.4348  0.0786
   21SAPC   H7R 2744   1.383   0.354  21.195 -0.0138 -0.0236 -0.6111
   21SAPC   H7S 2745   1.294   0.254  21.072  0.1777  0.8684  0.7374
   21SAPC   C28 2746   1.496   0.220  21.077 -0.1817  0.2978 -0.4430
   21SAPC   H8R 2747   1.565   0.144  21.116 -0.8546 -0.3972 -0.5897
   21SAPC   C29 2748   1.548   0.315  21.003  0.1854 -0.4198  0.1579
   21SAPC   H9R 2749   1.652   0.309  20.968  0.3726 -0.8553  0.7903
   21SAPC  C210 2750   1.487   0.441  20.945  0.8741  0.3141 -0.3073
   21SAPC  H10R 2751   1.408   0.485  21.009  0.8251  1.1397 -0.9169
   21SAPC  H10S 2752   1.431   0.419  20.852 -0.7937  1.5590  0.3393
   21SAPC  C211 2753   1.581   0.559  20.916  1.1970  0.6259 -0.1420
   21SAPC  H11R 2754   1.667   0.567  20.984  1.6354 -0.7213 -0.5015
   21SAPC  C212 2755   1.580   0.643  20.810  0.0565 -0.7754 -0.5299
   21SAPC  H12R 2756   1.661   0.717  20.814 -0.9490  0.3100  3.0816
   21SAPC  C213 2757   1.489   0.652  20.687  0.2550  0.1040  0.6314
   21SAPC  H13R 2758   1.416   0.734  20.702  1.1924  1.4995 -1.8551
   21SAPC  H13S 2759   1.433   0.556  20.687  1.7066 -0.7784  0.1125
   21SAPC  C214 2760   1.562   0.663  20.555  0.2408 -0.5713 -0.2500
   21SAPC  H14R 2761   1.616   0.570  20.533 -0.6212 -2.2088  3.7246
   21SAPC  C215 2762   1.547   0.751  20.452  0.4064  0.3701 -0.1891
   21SAPC  H15R 2763   1.612   0.739  20.364  1.8636 -0.8422  0.9915
   21SAPC  C216 2764   1.455   0.877  20.445  0.1227 -0.2869 -0.4026
   21SAPC  H16R 2765   1.523   0.963  20.429 -0.7178  0.2160 -1.3667
   21SAPC  H16S 2766   1.389   0.889  20.532  0.5930  1.4836 -0.2542
   21SAPC  C217 2767   1.369   0.861  20.327  0.4809 -0.4670 -0.1539
   21SAPC  H17R 2768   1.273   0.917  20.334  1.0096  0.5875 -1.0652
   21SAPC  H17S 2769   1.342   0.754  20.318 -0.5825 -0.4573  2.1092
   21SAPC  C218 2770   1.426   0.903  20.197  0.2853  0.0309 -0.2459
   21SAPC  H18R 2771   1.526   0.860  20.178 -0.8256 -2.6342 -0.4546
   21SAPC  H18S 2772   1.431   1.013  20.180  1.1080  0.1720  0.8191
   21SAPC  C219 2773   1.331   0.848  20.079 -0.5461  0.2545 -0.8278
   21SAPC  H19R 2774   1.307   0.742  20.102  2.3078  0.1372  2.5205
   21SAPC  H19S 2775   1.388   0.855  19.984 -1.7640  0.6453 -1.5501
   21SAPC  C220 2776   1.205   0.932  20.046  0.3955  0.3968 -0.6782
   21SAPC  H20R 2777   1.148   0.892  19.959  0.1693  4.5530 -2.6656
   21SAPC  H20S 2778   1.224   1.036  20.013 -0.3872  0.2561 -1.6206
   21SAPC  H20T 2779   1.143   0.944  20.137  1.0241 -2.1841  0.1908
   21SAPC   C33 2780   0.934  -0.085  21.284  0.3344  0.4057 -0.0787
   21SAPC   H3X 2781   1.027  -0.028  21.264  0.1970  0.2819 -1.1214
   21SAPC   H3Y 2782   0.869  -0.110  21.197 -0.1654 -1.1594  0.7094
   21SAPC   C34 2783   0.991  -0.222  21.332 -0.3408 -0.3723 -0.7888
   21SAPC   H4X 2784   0.910  -0.291  21.365 -0.3872 -0.2653 -0.6747
   21SAPC   H4Y 2785   1.066  -0.204  21.412  0.5161 -1.4081 -1.3413
   21SAPC   C35 2786   1.055  -0.290  21.214  0.0738  0.1780 -0.0171
   21SAPC   H5X 2787   0.991  -0.285  21.123 -0.2120 -1.1738  0.0991
   21SAPC   H5Y 2788   1.059  -0.399  21.232 -0.4385 -0.0364 -1.0906
   21SAPC   C36 2789   1.201  -0.246  21.178 -0.3687 -0.2024  0.5807
   21SAPC   H6X 2790   1.257  -0.251  21.274  1.3198  1.6433 -0.2598
   21SAPC   H6Y 2791   1.197  -0.137  21.155 -4.4786 -0.2776  0.1667
   21SAPC   C37 2792   1.279  -0.321  21.062 -0.3248  0.0863  0.2812
   21SAPC   H7X 2793   1.216  -0.295  20.974  1.5401  2.1133 -0.5613
   21SAPC   H7Y 2794   1.276  -0.428  21.091 -3.4006  0.8213  3.3923
   21SAPC   C38 2795   1.411  -0.251  21.042 -0.5034 -0.3464 -0.0917
   21SAPC   H8X 2796   1.478  -0.255  21.130 -1.5336 -0.3710  0.7163
   21SAPC   H8Y 2797   1.386  -0.144  21.024 -3.8092 -0.9276  0.3968
   21SAPC   C39 2798   1.493  -0.295  20.919  0.0176  0.1141 -0.7389
   21SAPC   H9X 2799   1.432  -0.274  20.830  0.5664 -1.3526 -1.4974
   21SAPC   H9Y 2800   1.516  -0.404  20.916 -1.3532 -0.3117  1.5203
   21SAPC  C310 2801   1.634  -0.229  20.902  0.4567  0.1621 -0.0292
   21SAPC  H10X 2802   1.681  -0.280  20.815 -0.0817 -1.7012  0.7212
   21SAPC  H10Y 2803   1.702  -0.252  20.987 -1.1484 -2.4840  0.6671
   21SAPC  C311 2804   1.634  -0.075  20.871 -0.1598 -0.2975 -0.0355
   21SAPC  H11X 2805   1.606  -0.017  20.962 -1.4869  0.1580 -0.7111
   21SAPC  H11Y 2806   1.559  -0.071  20.789 -0.0910  1.9416 -0.0518
   21SAPC  C312 2807   1.772  -0.021  20.827  0.4053 -0.2323  0.2165
   21SAPC  H12X 2808   1.773   0.076  20.773 -0.9460 -0.1776  0.2673
   21SAPC  H12Y 2809   1.814  -0.099  20.760 -3.2741 -2.6862  0.4718
   21SAPC  C313 2810   1.862  -0.009  20.952  0.6589 -0.4618 -0.6743
   21SAPC  H13X 2811   1.868  -0.108  21.004 -0.4480 -0.2252 -0.0748
   21SAPC  H13Y 2812   1.809   0.054  21.026  1.6401  0.1366 -0.4622
   21SAPC  C314 2813   1.998   0.049  20.928  0.0940  0.2805  0.2159
   21SAPC  H14X 2814   1.991   0.143  20.870  0.9393  1.4077  1.8667
   21SAPC  H14Y 2815   2.050  -0.024  20.863 -0.6275  1.3564 -1.6250
   21SAPC  C315 2816   2.081   0.071  21.052  0.7676 -0.1377 -0.0218
   21SAPC  H15X 2817   2.111  -0.031  21.085 -0.2058 -0.3647  0.1974
   21SAPC  H15Y 2818   2.016   0.111  21.132  0.6259 -0.6839  0.1441
   21SAPC  C316 2819   2.207   0.155  21.012 -0.5115  0.4689  0.3629
   21SAPC  H16X 2820   2.189   0.228  20.931  0.2434  1.8622  1.4142
   21SAPC  H16Y 2821   2.286   0.085  20.976 -1.3443  0.2501 -1.1383
   21SAPC  C317 2822   2.266   0.227  21.138 -1.3732  0.0374  0.3454
   21SAPC  H17X 2823   2.183   0.295  21.167 -0.4858  2.3705 -2.0654
   21SAPC  H17Y 2824   2.354   0.283  21.099 -0.6893 -0.9180  0.4861
   21SAPC  C318 2825   2.300   0.130  21.252 -0.2672  0.5415 -0.2183
   21SAPC  H18X 2826   2.360   0.045  21.216 -1.1186  0.0555 -0.5168
   21SAPC  H18Y 2827   2.210   0.093  21.305  0.8736 -3.0123 -0.5069
   21SAPC  H18Z 2828   2.353   0.191  21.328 -1.9659  0.6371  0.9465
   22SAPC     N 2829   3.973   1.011  20.938 -0.2661  0.0211 -0.4810
   22SAPC   C12 2830   3.857   1.081  21.003  0.4592 -0.4933  0.1363
   22SAPC  H12A 2831   3.768   1.034  20.963 -0.6337  2.8514 -1.7586
   22SAPC  H12B 2832   3.860   1.183  20.968  1.1002 -0.2066  0.9941
   22SAPC   C13 2833   3.982   1.021  20.795  0.8790  0.0788  0.4058
   22SAPC  H13A 2834   4.053   0.947  20.761 -0.3427  0.2258 -2.8370
   22SAPC  H13B 2835   3.889   0.992  20.748  1.9988 -0.0884 -1.8338
   22SAPC  H13C 2836   4.002   1.126  20.777 -0.3579  0.4221  0.9145
   22SAPC   C14 2837   4.085   1.080  20.999  0.3486 -0.6231  0.5963
   22SAPC  H14A 2838   4.107   1.175  20.952 -0.8398 -0.3170  0.6358
   22SAPC  H14B 2839   4.054   1.099  21.100 -2.2350  0.4613 -0.2997
   22SAPC  H14C 2840   4.180   1.030  21.000  1.4558  1.3807  1.3207
   22SAPC   C15 2841   3.968   0.860  20.968  0.0061 -0.8862  0.0559
   22SAPC  H15A 2842   3.908   0.810  20.894 -0.3705  1.1735 -1.1289
   22SAPC  H15B 2843   4.069   0.824  20.971  0.6171  0.6604 -0.6632
   22SAPC  H15C 2844   3.919   0.839  21.062 -1.3182 -4.7851 -1.3275
   22SAPC   C11 2845   3.844   1.086  21.157  0.1550  0.0484  0.2244
   22SAPC  H11A 2846   3.876   0.989  21.202  3.7140  0.4789 -1.0948
   22SAPC  H11B 2847   3.736   1.085  21.186 -0.3900 -0.7342 -1.6696
   22SAPC     P 2848   3.866   1.325  21.262 -0.3415 -0.1217  0.6636
   22SAPC   O13 2849   3.866   1.322  21.409 -0.1165 -1.1904 -0.2955
   22SAPC   O14 2850   3.949   1.428  21.190  0.0625 -0.1929 -0.4745
   22SAPC   O12 2851   3.917   1.183  21.221 -0.1815  0.1093  0.4285
   22SAPC   O11 2852   3.711   1.327  21.208 -0.4120  0.5841 -1.0655
   22SAPC    C1 2853   3.621   1.387  21.296  0.0094 -0.4412  0.1821
   22SAPC    HA 2854   3.605   1.329  21.389  0.3205  2.1146  1.9267
   22SAPC    HB 2855   3.660   1.486  21.328  0.9652 -0.9960  0.7814
   22SAPC    C2 2856   3.480   1.399  21.231  0.6772  0.0920 -0.9133
   22SAPC    HS 2857   3.479   1.442  21.128  1.6228 -0.9503 -1.3768
   22SAPC   O21 2858   3.388   1.466  21.323 -0.3808  0.0539  0.6431
   22SAPC   C21 2859   3.392   1.594  21.322  0.2587  0.0367 -0.3808
   22SAPC   O22 2860   3.466   1.667  21.256  0.5108  0.0419  0.0052
   22SAPC   C22 2861   3.293   1.643  21.432  0.5246 -0.8427  0.6405
   22SAPC   H2R 2862   3.192   1.604  21.408  0.1618  0.6243 -0.4543
   22SAPC   H2S 2863   3.340   1.616  21.528  1.1902 -0.6918  0.3683
   22SAPC    C3 2864   3.439   1.256  21.199  0.3961 -0.3528  0.2800
   22SAPC    HX 2865   3.446   1.195  21.291  0.3429  0.5025  0.8570
   22SAPC    HY 2866   3.519   1.217  21.132  1.0492  1.0248  0.2157
   22SAPC   O31 2867   3.306   1.246  21.135  0.3831  0.3946  0.3217
   22SAPC   C31 2868   3.268   1.124  21.106 -0.2112  0.7890  0.0356
   22SAPC   O32 2869   3.337   1.021  21.114  0.0425 -0.3638  0.1950
   22SAPC   C32 2870   3.130   1.125  21.037 -0.1756  0.5516 -0.4086
   22SAPC   H2X 2871   3.127   1.203  20.957 -2.5409  1.5722  0.5664
   22SAPC   H2Y 2872   3.050   1.142  21.112  1.3912  2.5971  0.9017
   22SAPC   C23 2873   3.275   1.804  21.428 -0.7940 -0.2866  0.5826
   22SAPC   H3R 2874   3.208   1.829  21.342 -1.5460 -0.0340  1.2351
   22SAPC   H3S 2875   3.374   1.852  21.410 -0.3560 -1.2896  0.2580
   22SAPC   C24 2876   3.213   1.853  21.562 -0.9570  0.2838  0.1581
   22SAPC   H4R 2877   3.205   1.964  21.554 -0.3419  0.5791  2.6778
   22SAPC   H4S 2878   3.277   1.837  21.651 -2.6974  0.5632  1.5287
   22SAPC   C25 2879   3.077   1.797  21.605 -0.1898  0.1136  0.0452
   22SAPC   H5R 2880   3.082   1.693  21.641 -2.2824 -0.6072 -1.5553
   22SAPC   C26 2881   2.958   1.858  21.594  0.3720  0.1825  0.0929
   22SAPC   H6R 2882   2.869   1.807  21.633 -0.4502  0.2010 -1.6634
   22SAPC   C27 2883   2.936   1.992  21.527 -0.0878 -0.7841 -0.1220
   22SAPC   H7R 2884   3.018   2.012  21.454 -0.1069 -2.4452 -0.6398
   22SAPC   H7S 2885   2.951   2.066  21.608  0.0252 -0.7783 -0.1459
   22SAPC   C28 2886   2.798   2.026  21.476 -0.3845 -0.3756 -0.7720
   22SAPC   H8R 2887   2.730   2.064  21.554 -2.5867 -0.4330 -2.5406
   22SAPC   C29 2888   2.756   2.016  21.347 -0.3905  0.3476  0.0591
   22SAPC   H9R 2889   2.652   2.046  21.326 -1.8465 -2.9737  1.7462
   22SAPC  C210 2890   2.839   1.982  21.223  0.3185  0.7742 -0.6799
   22SAPC  H10R 2891   2.935   1.938  21.258 -1.0181 -0.7652  1.2702
   22SAPC  H10S 2892   2.863   2.082  21.181  0.5458  3.1150  4.3219
   22SAPC  C211 2893   2.773   1.888  21.135 -0.1440 -0.1228  0.4843
   22SAPC  H11R 2894   2.764   1.782  21.166  3.5670 -0.1247  2.0780
   22SAPC  C212 2895   2.721   1.907  21.013  0.0649 -1.1163  0.5969
   22SAPC  H12R 2896   2.669   1.821  20.967 -1.2851 -0.2748  0.5003
   22SAPC  C213 2897   2.734   2.033  20.926 -0.1883  0.1815 -0.1191
   22SAPC  H13R 2898   2.811   2.104  20.962  0.2782  0.1826 -1.0987
   22SAPC  H13S 2899   2.633   2.075  20.946 -0.4266 -0.7682  0.7982
   22SAPC  C214 2900   2.745   1.995  20.780 -0.2211  0.1365  0.7051
   22SAPC  H14R 2901   2.788   1.898  20.751  0.7218  0.8428 -0.3524
   22SAPC  C215 2902   2.747   2.076  20.675  0.2168 -0.2508  0.1509
   22SAPC  H15R 2903   2.772   2.041  20.574  1.4313  1.9324 -0.3761
   22SAPC  C216 2904   2.722   2.225  20.693 -0.2544 -0.1058 -0.2452
   22SAPC  H16R 2905   2.802   2.291  20.654 -0.8596  0.6372 -0.2501
   22SAPC  H16S 2906   2.711   2.258  20.799  1.0032  0.9865 -0.4237
   22SAPC  C217 2907   2.584   2.255  20.628  0.5785 -0.0363  0.2746
   22SAPC  H17R 2908   2.504   2.198  20.679  0.1232  0.1319 -0.2382
   22SAPC  H17S 2909   2.563   2.221  20.524 -0.4488  0.5811  0.2709
   22SAPC  C218 2910   2.559   2.402  20.636  0.1404 -0.2799 -0.4369
   22SAPC  H18R 2911   2.613   2.468  20.564 -1.1521 -1.7376 -2.9007
   22SAPC  H18S 2912   2.575   2.441  20.738 -0.6277 -0.5347 -0.2170
   22SAPC  C219 2913   2.415   2.424  20.600  1.0636 -0.9179  0.3455
   22SAPC  H19R 2914   2.398   2.531  20.622  0.2973 -1.3062  1.8187
   22SAPC  H19S 2915   2.338   2.375  20.664  0.0130 -0.2688 -0.4009
   22SAPC  C220 2916   2.373   2.394  20.456 -0.1493 -0.8925 -0.3628
   22SAPC  H20R 2917   2.441   2.435  20.378  0.5338  1.0342  1.1766
   22SAPC  H20S 2918   2.278   2.451  20.448 -1.0764 -2.3096  0.0353
   22SAPC  H20T 2919   2.345   2.291  20.426 -1.2929 -0.1183 -2.1413
   22SAPC   C33 2920   3.109   0.986  20.975  0.1094 -0.6389 -0.1090
   22SAPC   H3X 2921   3.111   0.906  21.052 -1.1622  1.0420  1.7660
   22SAPC   H3Y 2922   3.189   0.965  20.901  1.4174  0.9083  0.7905
   22SAPC   C34 2923   2.967   0.966  20.913 -0.3671  0.2839  0.6907
   22SAPC   H4X 2924   2.890   0.978  20.992  0.0654  1.6521  0.9280
   22SAPC   H4Y 2925   2.973   0.864  20.868 -0.1013 -1.3704  4.1620
   22SAPC   C35 2926   2.940   1.057  20.792 -0.1484 -0.4405 -0.2422
   22SAPC   H5X 2927   3.011   1.034  20.710  0.7587 -1.3438  0.7691
   22SAPC   H5Y 2928   2.940   1.162  20.827  0.8898 -0.0559 -1.3289
   22SAPC   C36 2929   2.797   1.030  20.739 -0.2347  0.5908 -0.1048
   22SAPC   H6X 2930   2.724   1.072  20.811  0.1661  1.6029 -0.2694
   22SAPC   H6Y 2931   2.787   0.919  20.741  1.0023  0.4593  0.2829
   22SAPC   C37 2932   2.783   1.098  20.601  0.2320  0.4189 -0.8313
   22SAPC   H7X 2933   2.845   1.190  20.609  0.4308  0.1632  1.4612
   22SAPC   H7Y 2934   2.675   1.124  20.594 -0.3150 -0.5399  2.2052
   22SAPC   C38 2935   2.840   1.008  20.487  0.5089 -0.1278  0.3082
   22SAPC   H8X 2936   2.807   0.902  20.489 -0.5216 -0.0340 -3.5147
   22SAPC   H8Y 2937   2.948   1.003  20.512  0.3540 -0.9849  0.8246
   22SAPC   C39 2938   2.822   1.075  20.350  0.0112  0.1347  0.2439
   22SAPC   H9X 2939   2.829   1.186  20.352  0.8513  0.0998 -0.1923
   22SAPC   H9Y 2940   2.725   1.047  20.304 -0.1795 -0.6740  1.1059
   22SAPC  C310 2941   2.935   1.026  20.262 -0.5261 -0.4342 -0.9835
   22SAPC  H10X 2942   2.926   0.915  20.264 -1.7150 -0.3508  0.9365
   22SAPC  H10Y 2943   3.030   1.051  20.315 -1.3040  0.0745  0.2199
   22SAPC  C311 2944   2.937   1.076  20.120  0.3166 -0.4401 -0.3572
   22SAPC  H11X 2945   2.952   1.186  20.116 -2.8688  0.0824 -0.5507
   22SAPC  H11Y 2946   2.837   1.063  20.073 -0.2605 -0.3673  0.8138
   22SAPC  C312 2947   3.041   1.007  20.034  0.7348  0.2235  0.1154
   22SAPC  H12X 2948   3.025   0.898  20.050  0.7719  0.3064  0.7766
   22SAPC  H12Y 2949   3.141   1.020  20.081  0.5877  1.5329  0.1010
   22SAPC  C313 2950   3.037   1.035  19.882  0.2367  0.2876 -0.7764
   22SAPC  H13X 2951   3.103   1.123  19.864  0.8562 -0.0756 -0.2977
   22SAPC  H13Y 2952   2.934   1.074  19.866  0.1796  0.5359  0.1689
   22SAPC  C314 2953   3.072   0.928  19.784  0.4761  0.2476 -0.6073
   22SAPC  H14X 2954   3.015   0.833  19.793  1.9726 -0.5206  1.9633
   22SAPC  H14Y 2955   3.178   0.909  19.810  0.2936  1.3587  1.0588
   22SAPC  C315 2956   3.079   0.975  19.640  0.1582 -0.4893 -0.1061
   22SAPC  H15X 2957   3.151   1.059  19.636  0.2221 -0.5757 -0.8491
   22SAPC  H15Y 2958   2.975   0.999  19.608 -0.0410 -0.1461  0.7570
   22SAPC  C316 2959   3.137   0.868  19.546  0.0225  0.1214  0.7628
   22SAPC  H16X 2960   3.068   0.781  19.551  1.8579 -1.5995 -1.3101
   22SAPC  H16Y 2961   3.238   0.846  19.587  0.1579  0.0311  0.3877
   22SAPC  C317 2962   3.139   0.919  19.397  0.5480 -0.1814  0.2640
   22SAPC  H17X 2963   3.177   0.837  19.332  1.7421  0.1795  0.4761
   22SAPC  H17Y 2964   3.224   0.991  19.392  1.1345 -0.6840  2.2013
   22SAPC  C318 2965   3.007   0.978  19.344  0.4416 -0.0553  0.1678
   22SAPC  H18X 2966   2.996   0.960  19.235  1.5201 -0.0974  0.0591
   22SAPC  H18Y 2967   2.999   1.087  19.366  1.6530 -0.3888  2.6209
   22SAPC  H18Z 2968   2.924   0.922  19.392  0.7257  0.1467  0.9177
   23SAPC     N 2969   4.123   1.034  23.543 -0.0252  0.5155  1.1415
   23SAPC   C12 2970   4.237   0.998  23.636  0.3362 -0.2742  0.3859
   23SAPC  H12A 2971   4.297   0.920  23.593  0.4901  0.8220 -1.4813
   23SAPC  H12B 2972   4.197   0.974  23.734  3.7070  1.7889  2.4313
   23SAPC   C13 2973   4.023   0.918  23.537 -0.5480 -0.2370  0.4358
   23SAPC  H13A 2974   4.000   0.885  23.638  1.0486  1.6430  1.4813
   23SAPC  H13B 2975   3.933   0.945  23.485 -1.0354 -0.8709  0.9281
   23SAPC  H13C 2976   4.064   0.837  23.478  0.6010 -0.5452  1.6132
   23SAPC   C14 2977   4.057   1.155  23.581 -0.1702 -0.3657 -0.5196
   23SAPC  H14A 2978   4.122   1.238  23.562 -2.4062  1.3087 -1.2900
   23SAPC  H14B 2979   3.978   1.176  23.510 -0.0811  0.7544 -0.3054
   23SAPC  H14C 2980   4.028   1.154  23.685 -3.3131  1.3846 -1.2649
   23SAPC   C15 2981   4.173   1.064  23.401 -0.6288 -0.6915  0.0632
   23SAPC  H15A 2982   4.100   1.104  23.333  0.0154  2.4516  1.0589
   23SAPC  H15B 2983   4.262   1.125  23.409  0.3632 -2.1302  0.4512
   23SAPC  H15C 2984   4.208   0.972  23.356  2.6637  1.6666 -2.7240
   23SAPC   C11 2985   4.332   1.117  23.655 -0.5873 -0.6685  0.4190
   23SAPC  H11A 2986   4.404   1.086  23.734  1.1928  1.4062 -0.2910
   23SAPC  H11B 2987   4.277   1.206  23.691 -0.5529 -0.2146 -0.5932
   23SAPC     P 2988   4.519   1.070  23.487 -0.4922  0.2522 -0.0832
   23SAPC   O13 2989   4.520   0.940  23.551 -0.5400 -0.1614 -0.5684
   23SAPC   O14 2990   4.517   1.063  23.343  0.5359  0.3209  0.3387
   23SAPC   O12 2991   4.409   1.160  23.541  0.4353  0.5396  0.1853
   23SAPC   O11 2992   4.644   1.146  23.532 -0.5248 -0.1468 -0.3225
   23SAPC    C1 2993   4.722   1.228  23.449 -0.2535 -0.2394 -0.0592
   23SAPC    HA 2994   4.682   1.257  23.350 -1.3669 -1.4868 -0.0045
   23SAPC    HB 2995   4.752   1.318  23.507 -1.0834 -0.5248  0.8341
   23SAPC    C2 2996   4.863   1.168  23.414  0.5831  0.0733  0.0075
   23SAPC    HS 2997   4.845   1.081  23.347 -1.4477  2.3655 -2.6304
   23SAPC   O21 2998   4.921   1.132  23.535  0.5810  0.2730 -0.1923
   23SAPC   C21 2999   4.971   1.014  23.558  0.3143  0.9297  0.0681
   23SAPC   O22 3000   4.986   0.923  23.476 -0.1920  0.9326  0.3039
   23SAPC   C22 3001   5.015   0.985  23.697  0.2966  0.3060  0.1257
   23SAPC   H2R 3002   5.013   1.082  23.751 -1.6441  0.8254 -0.7780
   23SAPC   H2S 3003   4.936   0.922  23.743  0.3650  0.0166 -0.1541
   23SAPC    C3 3004   4.954   1.276  23.351 -0.3702 -0.3042  0.1915
   23SAPC    HX 3005   4.955   1.357  23.426  0.8101  0.0971 -0.2266
   23SAPC    HY 3006   4.913   1.311  23.253  0.5091  1.9054  0.5577
   23SAPC   O31 3007   5.088   1.239  23.326  0.1772  0.0933  0.0039
   23SAPC   C31 3008   5.113   1.142  23.245  0.1349 -0.9990 -0.8712
   23SAPC   O32 3009   5.036   1.089  23.167 -0.3246 -0.2956  0.0141
   23SAPC   C32 3010   5.261   1.099  23.247  0.1770 -0.3591 -0.3921
   23SAPC   H2X 3011   5.284   1.006  23.190 -0.6853 -1.2859  0.7365
   23SAPC   H2Y 3012   5.283   1.070  23.352  1.3904 -2.2146 -1.1055
   23SAPC   C23 3013   5.159   0.925  23.704  0.1024  0.3535 -0.1212
   23SAPC   H3R 3014   5.158   0.831  23.645 -0.2171  0.7439 -0.7618
   23SAPC   H3S 3015   5.171   0.915  23.814 -0.2538 -0.9935 -0.1867
   23SAPC   C24 3016   5.274   1.010  23.653 -0.2027  0.1229  0.1238
   23SAPC   H4R 3017   5.265   1.118  23.678 -0.2084  0.4593 -1.2062
   23SAPC   H4S 3018   5.295   0.986  23.546  0.9020  0.0645  0.3360
   23SAPC   C25 3019   5.400   0.963  23.721 -0.6170 -0.4842  0.2167
   23SAPC   H5R 3020   5.417   1.019  23.815  1.9148  1.2040 -1.1436
   23SAPC   C26 3021   5.485   0.860  23.687  0.4062 -0.1888  0.0846
   23SAPC   H6R 3022   5.571   0.830  23.748  0.2431 -2.0497 -0.5364
   23SAPC   C27 3023   5.475   0.783  23.559  0.6347  0.1854  0.2085
   23SAPC   H7R 3024   5.525   0.835  23.475  0.2467 -2.7252 -1.9834
   23SAPC   H7S 3025   5.367   0.769  23.534  1.2260 -0.6751 -2.2051
   23SAPC   C28 3026   5.538   0.649  23.572 -0.2330 -0.1215  0.1385
   23SAPC   H8R 3027   5.506   0.597  23.663 -0.2542 -2.4918 -1.1177
   23SAPC   C29 3028   5.633   0.589  23.498  0.3970  0.1076 -0.2976
   23SAPC   H9R 3029   5.680   0.496  23.534 -0.4896 -0.4089 -0.4536
   23SAPC  C210 3030   5.695   0.655  23.378 -1.1678  0.3669 -0.0312
   23SAPC  H10R 3031   5.615   0.702  23.317  0.0990  0.9160 -1.3364
   23SAPC  H10S 3032   5.739   0.574  23.316 -2.1204 -0.0669 -0.1597
   23SAPC  C211 3033   5.810   0.755  23.406 -0.4443  0.2978  0.0218
   23SAPC  H11R 3034   5.827   0.774  23.513 -2.5914  0.1003  0.4279
   23SAPC  C212 3035   5.883   0.815  23.305 -0.3778 -0.6361  0.0201
   23SAPC  H12R 3036   5.960   0.891  23.328 -1.5164  0.8864 -1.0118
   23SAPC  C213 3037   5.870   0.776  23.160 -0.2897 -0.2947  0.2039
   23SAPC  H13R 3038   5.830   0.863  23.103 -0.0634 -0.1944  0.2005
   23SAPC  H13S 3039   5.798   0.691  23.154 -0.5317 -0.3845  3.0018
   23SAPC  C214 3040   6.004   0.723  23.108  0.0665  0.1478  0.0859
   23SAPC  H14R 3041   6.088   0.753  23.173  0.5197 -2.5378  0.9049
   23SAPC  C215 3042   6.035   0.652  22.998 -0.4827  0.0706  0.1556
   23SAPC  H15R 3043   6.134   0.615  22.971 -0.8136 -1.4715  0.9267
   23SAPC  C216 3044   5.941   0.615  22.884 -0.5395  0.2575 -0.2706
   23SAPC  H16R 3045   5.985   0.635  22.785 -0.0406 -0.9505 -0.3130
   23SAPC  H16S 3046   5.849   0.677  22.885  0.0043  1.1426  2.2114
   23SAPC  C217 3047   5.892   0.469  22.882 -0.1165  0.0507 -0.0703
   23SAPC  H17R 3048   5.808   0.471  22.809 -0.1221  3.9610 -0.1551
   23SAPC  H17S 3049   5.865   0.428  22.982  1.1090 -0.5254  0.0400
   23SAPC  C218 3050   5.989   0.379  22.812 -0.4766 -0.2428 -0.1770
   23SAPC  H18R 3051   6.064   0.362  22.893 -0.5555  1.8578  0.4110
   23SAPC  H18S 3052   6.041   0.434  22.730 -1.2679  1.0764  0.1669
   23SAPC  C219 3053   5.927   0.249  22.761 -0.1773 -0.5899 -0.3861
   23SAPC  H19R 3054   6.017   0.184  22.753 -0.2279 -0.8641  0.8898
   23SAPC  H19S 3055   5.879   0.248  22.661  0.3989  1.0894 -0.7057
   23SAPC  C220 3056   5.833   0.182  22.870 -0.1431 -0.1133 -0.2704
   23SAPC  H20R 3057   5.793   0.089  22.823 -3.1888  1.5324 -1.2108
   23SAPC  H20S 3058   5.744   0.246  22.885 -0.0649 -0.1518  0.3660
   23SAPC  H20T 3059   5.895   0.181  22.962  1.1944  4.3672 -0.8921
   23SAPC   C33 3060   5.361   1.207  23.201  0.0957  0.8784  0.2163
   23SAPC   H3X 3061   5.312   1.304  23.181 -0.0207  0.9002  0.6098
   23SAPC   H3Y 3062   5.393   1.183  23.097  0.0466  1.8456 -0.0276
   23SAPC   C34 3063   5.477   1.219  23.301 -0.4788  0.4156  0.0517
   23SAPC   H4X 3064   5.535   1.125  23.311 -0.6960  0.4131  1.4695
   23SAPC   H4Y 3065   5.447   1.252  23.402 -1.9424  0.6003 -0.4161
   23SAPC   C35 3066   5.591   1.318  23.269  0.2877 -0.3640  0.2707
   23SAPC   H5X 3067   5.558   1.418  23.306  2.2651  0.0284  1.1287
   23SAPC   H5Y 3068   5.590   1.334  23.159 -1.0789  0.4883  0.3776
   23SAPC   C36 3069   5.732   1.281  23.317  0.5276  0.2851 -0.2935
   23SAPC   H6X 3070   5.752   1.190  23.257  2.1063 -0.3380  1.1009
   23SAPC   H6Y 3071   5.728   1.249  23.423  2.0096  0.4619 -0.1579
   23SAPC   C37 3072   5.850   1.377  23.283 -0.4574  0.3793  0.6671
   23SAPC   H7X 3073   5.824   1.472  23.333 -0.7476  2.4474 -3.0467
   23SAPC   H7Y 3074   5.863   1.390  23.174 -0.8830  2.2201  0.8074
   23SAPC   C38 3075   5.982   1.347  23.363 -0.4502 -0.4341  0.5701
   23SAPC   H8X 3076   5.952   1.338  23.470 -1.4252 -1.0959  0.2603
   23SAPC   H8Y 3077   6.048   1.427  23.324 -0.7617 -1.0673 -1.3795
   23SAPC   C39 3078   6.044   1.215  23.320  0.5257  0.4647  0.2235
   23SAPC   H9X 3079   6.079   1.217  23.215 -2.8009  0.3234 -1.0035
   23SAPC   H9Y 3080   5.972   1.130  23.327  1.4454 -0.2721  1.1082
   23SAPC  C310 3081   6.168   1.163  23.395 -0.1155  0.1929 -0.8225
   23SAPC  H10X 3082   6.176   1.053  23.409  1.1086  0.5167  1.5808
   23SAPC  H10Y 3083   6.145   1.199  23.498 -1.5390  1.1122 -1.4385
   23SAPC  C311 3084   6.303   1.217  23.349 -0.1830 -0.1985 -0.4845
   23SAPC  H11X 3085   6.297   1.326  23.329 -1.5584 -0.0952  0.3396
   23SAPC  H11Y 3086   6.347   1.178  23.255  1.2388 -0.5877  0.3212
   23SAPC  C312 3087   6.406   1.196  23.461  0.5468  0.3034  0.3904
   23SAPC  H12X 3088   6.437   1.092  23.435 -0.9406 -0.6694  2.2073
   23SAPC  H12Y 3089   6.365   1.213  23.563  2.4571  0.8233  1.0972
   23SAPC  C313 3090   6.531   1.284  23.427 -0.6962  0.2282 -0.1675
   23SAPC  H13X 3091   6.515   1.393  23.415  3.7995  1.3511  1.7857
   23SAPC  H13Y 3092   6.571   1.248  23.330 -1.0714  0.7369 -0.5161
   23SAPC  C314 3093   6.647   1.263  23.526 -0.0292 -0.0709 -0.0368
   23SAPC  H14X 3094   6.736   1.318  23.490 -1.0046  3.2108  2.1444
   23SAPC  H14Y 3095   6.657   1.153  23.540 -2.4214 -0.2611  0.7060
   23SAPC  C315 3096   6.624   1.313  23.667 -0.5268 -0.6804 -0.1679
   23SAPC  H15X 3097   6.692   1.259  23.736 -0.1469 -0.3643 -0.2948
   23SAPC  H15Y 3098   6.519   1.297  23.699 -0.6498  0.1544 -0.1456
   23SAPC  C316 3099   6.653   1.464  23.680  0.6258  0.1124  0.1534
   23SAPC  H16X 3100   6.596   1.526  23.607  0.0538 -1.5214 -0.8565
   23SAPC  H16Y 3101   6.761   1.483  23.664  0.9291 -0.7744  1.0959
   23SAPC  C317 3102   6.624   1.515  23.821  0.0978  0.3392 -0.0432
   23SAPC  H17X 3103   6.674   1.461  23.904  1.7141 -0.6178 -1.5786
   23SAPC  H17Y 3104   6.515   1.526  23.842  0.0756  0.7881 -0.3610
   23SAPC  C318 3105   6.666   1.670  23.834 -1.1782  0.8756  0.1710
   23SAPC  H18X 3106   6.776   1.669  23.817 -1.1638 -1.3472  0.0186
   23SAPC  H18Y 3107   6.647   1.703  23.938  2.2697 -0.9080  1.5535
   23SAPC  H18Z 3108   6.612   1.729  23.757  1.1228  2.3490 -0.4303
   24SAPC     N 3109   4.090   2.366  25.848 -0.1142  0.2458 -0.2062
   24SAPC   C12 3110   3.977   2.445  25.917  0.6027  0.5312  0.2261
   24SAPC  H12A 3111   3.985   2.546  25.881  1.0030  0.3336 -0.2399
   24SAPC  H12B 3112   4.006   2.448  26.022  1.2208  2.2644  0.0380
   24SAPC   C13 3113   4.225   2.434  25.873 -0.3020 -0.2170 -0.1861
   24SAPC  H13A 3114   4.235   2.474  25.973  0.8286  1.2627 -0.8597
   24SAPC  H13B 3115   4.314   2.375  25.859 -1.4641 -2.1573  0.1637
   24SAPC  H13C 3116   4.232   2.519  25.807  0.0562  0.1559  0.3256
   24SAPC   C14 3117   4.085   2.231  25.901 -0.1554  0.3130  0.2190
   24SAPC  H14A 3118   4.056   2.225  26.005  0.5012 -0.3983  0.3737
   24SAPC  H14B 3119   4.000   2.187  25.851 -0.7378 -0.0715  1.5056
   24SAPC  H14C 3120   4.172   2.174  25.870 -0.0814 -0.3247  1.5257
   24SAPC   C15 3121   4.071   2.357  25.704  0.3141  0.6765 -0.4862
   24SAPC  H15A 3122   4.150   2.337  25.633 -2.6863 -1.3098 -3.5991
   24SAPC  H15B 3123   4.007   2.275  25.676  0.4676  1.5561 -3.9562
   24SAPC  H15C 3124   4.024   2.451  25.678  0.1498  1.7578  3.1326
   24SAPC   C11 3125   3.834   2.378  25.896 -0.6598  1.1128  0.0725
   24SAPC  H11A 3126   3.825   2.345  25.791  0.6724  0.0786  0.2629
   24SAPC  H11B 3127   3.766   2.463  25.920 -1.0718  1.1537 -1.2138
   24SAPC     P 3128   3.701   2.169  25.981 -0.2823  0.3069 -0.3699
   24SAPC   O13 3129   3.726   2.105  25.850  0.1325 -0.1579  0.2192
   24SAPC   O14 3130   3.693   2.070  26.094 -0.2956  0.0159  0.1465
   24SAPC   O12 3131   3.808   2.281  25.999 -0.0150  0.1009  0.0763
   24SAPC   O11 3132   3.570   2.253  25.976 -0.5716 -0.2928  0.6864
   24SAPC    C1 3133   3.470   2.228  25.881  0.3783  0.6345  0.0578
   24SAPC    HA 3134   3.471   2.125  25.839 -1.4327  0.6823 -0.1891
   24SAPC    HB 3135   3.373   2.229  25.933 -0.1324 -1.0702 -0.7759
   24SAPC    C2 3136   3.471   2.331  25.767 -0.6595  0.2931 -0.3154
   24SAPC    HS 3137   3.560   2.304  25.705  1.3404  2.5146  1.3881
   24SAPC   O21 3138   3.493   2.462  25.826  0.5547  0.1128  0.0701
   24SAPC   C21 3139   3.548   2.556  25.744 -0.3813 -0.6266 -0.2925
   24SAPC   O22 3140   3.582   2.532  25.633  0.0858 -0.2446 -0.9291
   24SAPC   C22 3141   3.558   2.688  25.823  0.0114  0.1028  0.6355
   24SAPC   H2R 3142   3.558   2.676  25.933  2.8943 -1.3051  0.5884
   24SAPC   H2S 3143   3.654   2.734  25.790  1.0278 -3.3583 -1.7825
   24SAPC    C3 3144   3.337   2.324  25.684 -0.7282 -0.4091  0.1754
   24SAPC    HX 3145   3.264   2.329  25.768 -0.7378 -1.3610  0.2318
   24SAPC    HY 3146   3.319   2.228  25.631 -1.2100  0.4050 -1.1953
   24SAPC   O31 3147   3.326   2.437  25.600 -0.0847  0.1849  0.3017
   24SAPC   C31 3148   3.378   2.425  25.482  0.0482 -0.1029 -0.1960
   24SAPC   O32 3149   3.454   2.337  25.443 -0.4894  0.1931  0.0585
   24SAPC   C32 3150   3.319   2.519  25.382 -0.7246  0.0865  0.0074
   24SAPC   H2X 3151   3.273   2.461  25.299  0.8654 -0.2114 -0.7095
   24SAPC   H2Y 3152   3.413   2.557  25.337  0.5684 -1.3660  1.3870
   24SAPC   C23 3153   3.438   2.780  25.778 -0.5329  0.9982  0.3672
   24SAPC   H3R 3154   3.440   2.800  25.669 -0.3883  1.7240  0.4990
   24SAPC   H3S 3155   3.453   2.879  25.826  0.8268  0.3495  1.3500
   24SAPC   C24 3156   3.302   2.726  25.810  0.2434  0.5478  0.2679
   24SAPC   H4R 3157   3.276   2.632  25.758  0.9101  0.6870 -0.3425
   24SAPC   H4S 3158   3.232   2.799  25.764 -2.5304 -2.2724 -0.2721
   24SAPC   C25 3159   3.270   2.721  25.963 -0.3332  0.4442 -0.1734
   24SAPC   H5R 3160   3.325   2.793  26.025  0.2855  0.1403 -0.3606
   24SAPC   C26 3161   3.183   2.639  26.020 -0.7600 -0.4157  0.0943
   24SAPC   H6R 3162   3.159   2.647  26.127  1.3771 -0.9001  0.6571
   24SAPC   C27 3163   3.092   2.537  25.946  0.3722  0.2786 -0.0208
   24SAPC   H7R 3164   3.130   2.504  25.846 -1.6228 -1.0482 -0.4048
   24SAPC   H7S 3165   2.997   2.593  25.932  0.2326  0.0939  0.1876
   24SAPC   C28 3166   3.075   2.412  26.030  0.3564  0.7922 -0.1860
   24SAPC   H8R 3167   3.096   2.427  26.137 -1.3825 -1.0162  0.4594
   24SAPC   C29 3168   3.023   2.297  25.985  0.0814  0.3971 -0.5322
   24SAPC   H9R 3169   3.012   2.211  26.053  2.7866  0.3108 -0.0643
   24SAPC  C210 3170   2.977   2.275  25.843  0.2027  0.2840 -0.4213
   24SAPC  H10R 3171   3.054   2.202  25.810  1.3329  0.7680  1.0227
   24SAPC  H10S 3172   3.001   2.357  25.772  1.3374 -0.1294 -0.5493
   24SAPC  C211 3173   2.835   2.235  25.831  0.2109 -0.2004  0.0487
   24SAPC  H11R 3174   2.764   2.303  25.879  0.5318  0.0028  0.2401
   24SAPC  C212 3175   2.782   2.143  25.750 -0.0174  0.7582 -0.8553
   24SAPC  H12R 3176   2.675   2.126  25.769  0.0977  1.1078  0.1700
   24SAPC  C213 3177   2.855   2.042  25.665 -0.5107  0.0939  0.5563
   24SAPC  H13R 3178   2.768   1.990  25.619 -1.1515  2.9155 -1.6253
   24SAPC  H13S 3179   2.907   1.966  25.728  0.6331  0.1710 -0.2609
   24SAPC  C214 3180   2.950   2.089  25.564 -0.2494 -0.1980  0.0666
   24SAPC  H14R 3181   2.908   2.171  25.504 -1.0582 -1.3633 -1.0374
   24SAPC  C215 3182   3.070   2.040  25.543  0.0203  0.1376  0.1381
   24SAPC  H15R 3183   3.129   2.070  25.455 -2.2338  0.1101 -1.4734
   24SAPC  C216 3184   3.133   1.924  25.612 -0.1121  1.1502 -0.5514
   24SAPC  H16R 3185   3.106   1.926  25.720  0.3183  0.1664 -0.4079
   24SAPC  H16S 3186   3.244   1.918  25.604 -0.2197 -3.2373 -1.8773
   24SAPC  C217 3187   3.083   1.788  25.547  0.4834  0.7021 -0.5097
   24SAPC  H17R 3188   3.118   1.794  25.442 -0.2526  1.1071 -0.7406
   24SAPC  H17S 3189   2.972   1.784  25.550  0.4161  0.5241 -2.3207
   24SAPC  C218 3190   3.136   1.657  25.608 -1.0770  0.0405 -0.2674
   24SAPC  H18R 3191   3.101   1.651  25.713 -0.3009 -1.0857 -0.0489
   24SAPC  H18S 3192   3.246   1.674  25.609 -1.4677  3.3434 -1.2210
   24SAPC  C219 3193   3.086   1.533  25.533  0.2770  0.3923 -0.3157
   24SAPC  H19R 3194   3.176   1.467  25.535  0.4275  0.5969  0.9139
   24SAPC  H19S 3195   3.060   1.555  25.427  1.1411  2.0409 -0.2191
   24SAPC  C220 3196   2.978   1.453  25.604  0.7017 -0.0999  0.6926
   24SAPC  H20R 3197   2.889   1.518  25.620  1.1347  0.3924  1.1160
   24SAPC  H20S 3198   3.022   1.411  25.697  1.5392 -0.5535  0.1012
   24SAPC  H20T 3199   2.952   1.369  25.535  2.4114  0.1734 -0.3304
   24SAPC   C33 3200   3.219   2.622  25.435  1.0929  0.4729 -0.5943
   24SAPC   H3X 3201   3.200   2.689  25.348  3.3747  0.6095 -1.0475
   24SAPC   H3Y 3202   3.261   2.678  25.522 -0.1019  1.8011 -0.8339
   24SAPC   C34 3203   3.082   2.567  25.487 -0.9948  0.6685 -0.4478
   24SAPC   H4X 3204   3.100   2.510  25.580  0.9722  1.1700 -0.4873
   24SAPC   H4Y 3205   3.034   2.513  25.403  0.2061  0.5301 -1.0506
   24SAPC   C35 3206   3.007   2.698  25.513  0.2837 -0.0425  0.0794
   24SAPC   H5X 3207   3.004   2.768  25.427 -1.5673 -2.2467 -1.8225
   24SAPC   H5Y 3208   3.067   2.751  25.590 -0.3604 -2.3489  2.3033
   24SAPC   C36 3209   2.867   2.670  25.553  0.2289 -0.1096 -0.1359
   24SAPC   H6X 3210   2.867   2.605  25.643  0.5560 -1.7016 -1.2438
   24SAPC   H6Y 3211   2.826   2.614  25.466 -1.8535 -1.8412  1.8255
   24SAPC   C37 3212   2.777   2.796  25.573 -0.0123  0.5096 -0.7236
   24SAPC   H7X 3213   2.774   2.845  25.473 -1.3037 -0.3429 -1.1204
   24SAPC   H7Y 3214   2.826   2.865  25.646  0.0607  0.7572 -1.0009
   24SAPC   C38 3215   2.626   2.754  25.600 -1.3274 -0.4404  0.0065
   24SAPC   H8X 3216   2.627   2.681  25.684  0.4212  0.3813  0.7646
   24SAPC   H8Y 3217   2.591   2.700  25.510 -1.4927 -0.4313  0.0651
   24SAPC   C39 3218   2.541   2.878  25.619 -0.8845 -0.2776  0.2037
   24SAPC   H9X 3219   2.539   2.941  25.527  0.7771  0.9819  0.9766
   24SAPC   H9Y 3220   2.595   2.952  25.682 -0.4287  0.6807 -1.2699
   24SAPC  C310 3221   2.402   2.856  25.665  0.3930 -0.0743 -0.7010
   24SAPC  H10X 3222   2.380   2.929  25.745  0.0092 -0.5741 -0.3520
   24SAPC  H10Y 3223   2.387   2.759  25.715  1.5401 -0.5614 -1.2434
   24SAPC  C311 3224   2.308   2.865  25.554  0.5179  0.2126  0.0561
   24SAPC  H11X 3225   2.284   2.965  25.514  0.0011  0.2316  0.4079
   24SAPC  H11Y 3226   2.211   2.829  25.593  0.5877 -2.6254 -2.0164
   24SAPC  C312 3227   2.348   2.771  25.441  0.4391 -0.7934 -0.3442
   24SAPC  H12X 3228   2.358   2.670  25.486  2.2067 -0.5672 -0.1793
   24SAPC  H12Y 3229   2.439   2.802  25.386 -0.5075 -0.3205 -1.6854
   24SAPC  C313 3230   2.228   2.756  25.342  0.1895  0.1839  0.0679
   24SAPC  H13X 3231   2.219   2.862  25.310  2.1545  0.5847  0.7405
   24SAPC  H13Y 3232   2.134   2.721  25.392 -0.2491 -1.1423 -1.5871
   24SAPC  C314 3233   2.263   2.657  25.228 -1.0991  0.5611 -0.0482
   24SAPC  H14X 3234   2.233   2.562  25.277 -0.1196  0.3190  0.0901
   24SAPC  H14Y 3235   2.371   2.651  25.204 -1.1028 -1.6874  0.2534
   24SAPC  C315 3236   2.184   2.675  25.098 -0.2229 -0.5735  0.3314
   24SAPC  H15X 3237   2.235   2.634  25.008  0.3569 -0.3948  0.5749
   24SAPC  H15Y 3238   2.171   2.785  25.086  1.7842 -0.0177  2.5852
   24SAPC  C316 3239   2.051   2.601  25.091  0.1961  0.7832  0.2713
   24SAPC  H16X 3240   2.060   2.509  25.154 -2.2575 -0.4784 -1.0503
   24SAPC  H16Y 3241   2.033   2.563  24.988  1.1602 -0.7016  0.6153
   24SAPC  C317 3242   1.921   2.670  25.133  0.2093 -0.4610  0.6684
   24SAPC  H17X 3243   1.915   2.757  25.063 -1.2995 -1.4269 -0.4697
   24SAPC  H17Y 3244   1.909   2.695  25.240 -1.5838  0.5013  0.2841
   24SAPC  C318 3245   1.783   2.595  25.091 -0.5429  0.3583 -0.8630
   24SAPC  H18X 3246   1.791   2.533  24.999  0.7327  0.0916 -0.5871
   24SAPC  H18Y 3247   1.703   2.672  25.077 -0.0677  1.0141 -0.0599
   24SAPC  H18Z 3248   1.763   2.524  25.173  1.1425 -2.1021 -2.4390
   25SAPC     N 3249   0.494   3.380  13.974  0.3539  0.2758 -0.0538
   25SAPC   C12 3250   0.420   3.404  14.104  0.6869 -0.6434 -1.0018
   25SAPC  H12A 3251   0.353   3.322  14.124  0.0812 -0.2650 -1.4342
   25SAPC  H12B 3252   0.341   3.478  14.094 -0.5803 -1.8796 -0.5545
   25SAPC   C13 3253   0.574   3.494  13.937 -0.3666 -0.7046  0.6049
   25SAPC  H13A 3254   0.519   3.586  13.925  1.8011  0.5567 -0.3242
   25SAPC  H13B 3255   0.650   3.515  14.011 -0.4068 -0.5552  0.6041
   25SAPC  H13C 3256   0.620   3.465  13.844 -0.3682 -2.7138  1.1920
   25SAPC   C14 3257   0.593   3.268  13.978 -0.0561  0.3618 -0.5574
   25SAPC  H14A 3258   0.654   3.278  14.066 -2.2889 -2.4000  1.4722
   25SAPC  H14B 3259   0.544   3.172  13.985 -0.4248  0.6789  1.8996
   25SAPC  H14C 3260   0.656   3.269  13.889 -0.8005  0.8094 -1.0846
   25SAPC   C15 3261   0.392   3.364  13.865  0.0706 -1.0719  0.2699
   25SAPC  H15A 3262   0.433   3.343  13.768 -0.9131 -0.4052 -0.3088
   25SAPC  H15B 3263   0.317   3.288  13.885 -0.4659 -0.8600 -0.8693
   25SAPC  H15C 3264   0.327   3.447  13.841 -0.1894 -1.3772 -0.0829
   25SAPC   C11 3265   0.505   3.447  14.227 -0.4559  0.3971 -0.1339
   25SAPC  H11A 3266   0.440   3.479  14.311 -2.0224 -1.9282 -0.3621
   25SAPC  H11B 3267   0.560   3.539  14.198 -2.2217  1.4709 -0.2594
   25SAPC     P 3268   0.561   3.250  14.390  0.0626 -0.2999 -0.0628
   25SAPC   O13 3269   0.472   3.138  14.349  0.4726 -0.3681  0.4082
   25SAPC   O14 3270   0.687   3.212  14.458  0.1420 -0.3011  0.0169
   25SAPC   O12 3271   0.599   3.342  14.262 -0.1496 -0.2616  0.1282
   25SAPC   O11 3272   0.476   3.341  14.489  0.1063 -0.6305 -1.0391
   25SAPC    C1 3273   0.537   3.440  14.573 -0.7494  0.2989 -0.0908
   25SAPC    HA 3274   0.642   3.469  14.552 -0.2940 -0.5526  0.9237
   25SAPC    HB 3275   0.484   3.535  14.552 -1.2923 -0.3513 -1.8798
   25SAPC    C2 3276   0.521   3.407  14.723  0.1263  0.6557  0.4505
   25SAPC    HS 3277   0.587   3.317  14.727  1.2574  1.4711  0.7258
   25SAPC   O21 3278   0.388   3.368  14.751  0.1830 -0.1630 -0.3419
   25SAPC   C21 3279   0.367   3.277  14.840 -0.9229 -0.2226  0.2641
   25SAPC   O22 3280   0.458   3.222  14.903 -0.5605  0.8347  0.2707
   25SAPC   C22 3281   0.216   3.260  14.866 -0.0463 -0.0142 -0.1728
   25SAPC   H2R 3282   0.197   3.275  14.974  1.1698  0.0612  0.0440
   25SAPC   H2S 3283   0.144   3.325  14.812 -0.1429  0.6379  0.7137
   25SAPC    C3 3284   0.560   3.523  14.818  0.1211  0.1042  0.1450
   25SAPC    HX 3285   0.668   3.547  14.817 -0.2578  2.1175  0.9767
   25SAPC    HY 3286   0.529   3.496  14.922  1.5338 -0.4412  0.4504
   25SAPC   O31 3287   0.487   3.638  14.768 -0.5393 -0.2872  0.4015
   25SAPC   C31 3288   0.475   3.737  14.859 -0.0943  0.3867  0.2595
   25SAPC   O32 3289   0.521   3.736  14.973 -0.1413 -0.4676 -0.3789
   25SAPC   C32 3290   0.415   3.862  14.805  0.2114 -0.1135  0.1322
   25SAPC   H2X 3291   0.442   3.862  14.697  0.9119  0.6881  0.2978
   25SAPC   H2Y 3292   0.469   3.947  14.851 -1.3028  1.6014 -1.0955
   25SAPC   C23 3293   0.177   3.106  14.838  0.0098  0.0776 -0.2200
   25SAPC   H3R 3294   0.247   3.041  14.895  0.0993 -0.8341 -1.3419
   25SAPC   H3S 3295   0.189   3.088  14.729 -0.1931  0.5053 -0.3147
   25SAPC   C24 3296   0.038   3.060  14.877  0.6522  0.4637 -0.1641
   25SAPC   H4R 3297  -0.039   3.139  14.890 -1.0413 -1.3967  1.7791
   25SAPC   H4S 3298   0.047   3.014  14.978 -2.1374  1.6233  0.7047
   25SAPC   C25 3299  -0.013   2.950  14.783 -0.4387  0.2073 -0.1310
   25SAPC   H5R 3300   0.070   2.893  14.739  0.6636  0.1796  1.8629
   25SAPC   C26 3301  -0.138   2.931  14.744 -0.9213 -0.3086  0.1785
   25SAPC   H6R 3302  -0.167   2.840  14.690  1.2465 -1.0477  0.1642
   25SAPC   C27 3303  -0.260   3.009  14.808  1.0472 -0.1417  0.2396
   25SAPC   H7R 3304  -0.333   3.038  14.729  1.3589  4.5109  1.3428
   25SAPC   H7S 3305  -0.233   3.107  14.853 -0.9039 -0.0422  1.2731
   25SAPC   C28 3306  -0.336   2.931  14.909  0.0188 -0.5895  0.6581
   25SAPC   H8R 3307  -0.393   2.843  14.875 -1.5385  0.1192  1.3587
   25SAPC   C29 3308  -0.342   2.953  15.042  0.4063  0.0190  0.0434
   25SAPC   H9R 3309  -0.413   2.889  15.097  0.4704  1.1082  1.4454
   25SAPC  C210 3310  -0.266   3.062  15.124 -0.3247  0.4214 -0.4122
   25SAPC  H10R 3311  -0.158   3.045  15.105 -0.3490 -2.3581  1.2700
   25SAPC  H10S 3312  -0.279   3.043  15.233 -1.4888 -0.3013 -0.6500
   25SAPC  C211 3313  -0.305   3.206  15.090  0.4451 -0.1280 -0.0920
   25SAPC  H11R 3314  -0.411   3.226  15.067  0.0914  0.4311  1.8445
   25SAPC  C212 3315  -0.235   3.322  15.091 -0.2697 -0.1193  0.0452
   25SAPC  H12R 3316  -0.288   3.415  15.068  0.1351  0.6704  2.0754
   25SAPC  C213 3317  -0.093   3.339  15.135  0.0455 -0.2998  0.5478
   25SAPC  H13R 3318  -0.040   3.244  15.116  0.3487  0.3047 -1.8958
   25SAPC  H13S 3319  -0.094   3.353  15.246 -1.9792 -0.7320  0.6189
   25SAPC  C214 3320  -0.026   3.456  15.056  0.0019  0.7239 -0.1340
   25SAPC  H14R 3321  -0.052   3.473  14.950  0.4406  0.1596 -0.3374
   25SAPC  C215 3322   0.060   3.540  15.121  0.1130  0.3107  0.2800
   25SAPC  H15R 3323   0.099   3.620  15.057  0.5142  2.0793  2.5994
   25SAPC  C216 3324   0.107   3.525  15.266  0.2207  0.3937  0.2773
   25SAPC  H16R 3325   0.134   3.417  15.278  3.3235  0.9433 -0.8360
   25SAPC  H16S 3326   0.013   3.556  15.316  1.5638  1.1043  2.5074
   25SAPC  C217 3327   0.226   3.613  15.316  0.2814 -0.1541 -1.1973
   25SAPC  H17R 3328   0.263   3.569  15.411  2.5307  0.4912 -1.7211
   25SAPC  H17S 3329   0.191   3.716  15.340  1.3508 -0.1644  0.5819
   25SAPC  C218 3330   0.351   3.612  15.221  0.3409 -0.4616 -0.1671
   25SAPC  H18R 3331   0.404   3.707  15.243 -3.1608  1.8106 -0.7968
   25SAPC  H18S 3332   0.320   3.633  15.116 -1.8792 -1.9249  0.1395
   25SAPC  C219 3333   0.448   3.495  15.235  0.4443 -0.3070  0.3821
   25SAPC  H19R 3334   0.521   3.515  15.153 -0.8530 -1.2731 -1.0551
   25SAPC  H19S 3335   0.408   3.395  15.209  0.8015  0.1277 -2.1269
   25SAPC  C220 3336   0.520   3.484  15.372  0.0481  0.4046 -0.1726
   25SAPC  H20R 3337   0.447   3.460  15.452 -2.6996  0.2585 -2.5625
   25SAPC  H20S 3338   0.569   3.580  15.398 -0.3304  0.4854  0.2530
   25SAPC  H20T 3339   0.598   3.405  15.377  1.5239  1.7083 -1.4397
   25SAPC   C33 3340   0.265   3.877  14.824  0.9770 -0.5181  0.6346
   25SAPC   H3X 3341   0.218   3.778  14.803  1.7223 -1.0699  1.5190
   25SAPC   H3Y 3342   0.230   3.960  14.758 -0.3011 -1.7145 -0.2484
   25SAPC   C34 3343   0.224   3.933  14.961 -0.1126 -1.1228 -0.1520
   25SAPC   H4X 3344   0.299   4.005  14.999 -0.3297 -0.5641 -0.7568
   25SAPC   H4Y 3345   0.230   3.839  15.019 -1.0730 -0.7448  0.6030
   25SAPC   C35 3346   0.080   3.994  14.961 -0.3643  0.3368  0.3289
   25SAPC   H5X 3347   0.017   3.909  14.927 -0.8903  1.0565 -0.5621
   25SAPC   H5Y 3348   0.067   4.071  14.882  0.4856 -0.3843 -0.5368
   25SAPC   C36 3349   0.037   4.038  15.098  0.1382 -0.0040 -0.4758
   25SAPC   H6X 3350   0.081   4.134  15.133  2.2113 -0.7271 -0.9497
   25SAPC   H6Y 3351   0.073   3.962  15.170  1.0908  0.0956 -0.8271
   25SAPC   C37 3352  -0.120   4.056  15.121 -0.0417 -0.1537  0.2565
   25SAPC   H7X 3353  -0.154   3.950  15.117  1.7734 -0.7277 -2.6532
   25SAPC   H7Y 3354  -0.162   4.107  15.032  1.9323 -0.1849 -0.7438
   25SAPC   C38 3355  -0.144   4.141  15.248 -0.0831  0.9627 -0.1485
   25SAPC   H8X 3356  -0.133   4.250  15.226  0.9051  0.4523 -2.4851
   25SAPC   H8Y 3357  -0.069   4.125  15.329 -1.3531 -0.0341  0.8638
   25SAPC   C39 3358  -0.284   4.112  15.309 -0.0349  0.8168  0.7994
   25SAPC   H9X 3359  -0.280   4.014  15.361  2.5382  1.1104  1.3124
   25SAPC   H9Y 3360  -0.355   4.094  15.225  1.1226 -0.2766  0.0125
   25SAPC  C310 3361  -0.342   4.224  15.396  0.4000 -0.1509  0.8600
   25SAPC  H10X 3362  -0.319   4.318  15.342  1.0236  0.6287  2.4019
   25SAPC  H10Y 3363  -0.288   4.209  15.492  0.3606  0.1452  0.9289
   25SAPC  C311 3364  -0.493   4.216  15.424 -0.6046  0.2377  0.0124
   25SAPC  H11X 3365  -0.554   4.190  15.334 -1.1362 -3.5282  1.2837
   25SAPC  H11Y 3366  -0.513   4.319  15.460 -1.1825 -0.0604  0.5401
   25SAPC  C312 3367  -0.523   4.120  15.532 -0.6601  1.1450  0.4227
   25SAPC  H12X 3368  -0.471   4.144  15.627 -0.0750 -0.2972  0.4921
   25SAPC  H12Y 3369  -0.482   4.020  15.507 -0.5594  0.9694  1.2744
   25SAPC  C313 3370  -0.677   4.102  15.556 -0.4626 -0.4540 -0.6476
   25SAPC  H13X 3371  -0.693   4.028  15.637 -0.0069 -0.5782 -0.6670
   25SAPC  H13Y 3372  -0.724   4.066  15.462  1.5188  0.0687 -1.9100
   25SAPC  C314 3373  -0.738   4.231  15.609  1.0737 -0.3438 -0.6293
   25SAPC  H14X 3374  -0.849   4.221  15.617  0.9863  1.0392  0.1874
   25SAPC  H14Y 3375  -0.729   4.321  15.544 -0.3038  1.2281  1.2051
   25SAPC  C315 3376  -0.688   4.278  15.747  0.0313 -0.4555 -0.4732
   25SAPC  H15X 3377  -0.725   4.382  15.762  2.3578  0.4541 -0.6212
   25SAPC  H15Y 3378  -0.578   4.287  15.755  0.0022  0.8666 -1.2327
   25SAPC  C316 3379  -0.730   4.182  15.862  0.6097  0.6693 -0.1789
   25SAPC  H16X 3380  -0.683   4.083  15.846 -0.1706  0.1466  0.6498
   25SAPC  H16Y 3381  -0.841   4.187  15.865  0.5702  0.6952 -1.3958
   25SAPC  C317 3382  -0.664   4.241  15.993 -0.5515  0.0864  0.4285
   25SAPC  H17X 3383  -0.711   4.342  15.999 -0.7027 -0.0626  2.3339
   25SAPC  H17Y 3384  -0.556   4.256  15.975 -0.2966 -0.0252  1.7353
   25SAPC  C318 3385  -0.687   4.159  16.120  0.5531 -0.7101 -0.0289
   25SAPC  H18X 3386  -0.633   4.063  16.131  1.3843 -0.0055  3.0791
   25SAPC  H18Y 3387  -0.793   4.126  16.114 -0.0115  0.9691  0.2907
   25SAPC  H18Z 3388  -0.669   4.230  16.204  0.4238  0.7030 -1.1599
   26SAPC     N 3389   1.302   1.684  16.259  0.1898 -0.1176  0.0332
   26SAPC   C12 3390   1.202   1.670  16.377  0.9061  0.5811 -0.0002
   26SAPC  H12A 3391   1.106   1.633  16.345  0.0158  1.2713  1.7363
   26SAPC  H12B 3392   1.183   1.769  16.416  1.5758 -0.1909  2.4386
   26SAPC   C13 3393   1.355   1.551  16.212 -0.2675 -0.2724 -0.7970
   26SAPC  H13A 3394   1.289   1.497  16.145 -1.7926 -1.6073  1.6494
   26SAPC  H13B 3395   1.452   1.563  16.165  0.2822 -1.0167  0.0934
   26SAPC  H13C 3396   1.376   1.503  16.306  0.3289 -0.2260 -0.8999
   26SAPC   C14 3397   1.230   1.757  16.152 -0.1304  0.3994 -0.0018
   26SAPC  H14A 3398   1.192   1.853  16.182  3.4193  2.1889 -0.6716
   26SAPC  H14B 3399   1.299   1.790  16.075  0.1785  2.5033  1.0992
   26SAPC  H14C 3400   1.156   1.690  16.112 -1.3490  1.5180  0.3192
   26SAPC   C15 3401   1.423   1.765  16.293  0.0242 -1.0035  0.3395
   26SAPC  H15A 3402   1.480   1.786  16.203 -1.8438 -1.7879 -1.0749
   26SAPC  H15B 3403   1.390   1.859  16.334 -0.7895 -0.7150 -0.9200
   26SAPC  H15C 3404   1.485   1.715  16.366 -0.2374 -1.7401  0.0618
   26SAPC   C11 3405   1.245   1.584  16.498 -0.4879  0.0543 -0.3145
   26SAPC  H11A 3406   1.181   1.608  16.586  0.1636  0.1265  0.1510
   26SAPC  H11B 3407   1.344   1.629  16.521 -1.6249  2.4434  0.2903
   26SAPC     P 3408   1.146   1.341  16.531 -0.1875  0.1698  0.1909
   26SAPC   O13 3409   1.138   1.222  16.447  0.5475  0.4691 -0.1790
   26SAPC   O14 3410   1.193   1.321  16.671  0.4090  0.2011 -0.3479
   26SAPC   O12 3411   1.242   1.442  16.461  0.2463  0.8383 -0.0457
   26SAPC   O11 3412   1.010   1.415  16.519 -0.1420  0.2384 -0.2205
   26SAPC    C1 3413   0.908   1.437  16.617  0.6412 -0.2262 -0.1905
   26SAPC    HA 3414   0.957   1.487  16.703  1.3638  0.8356 -1.1918
   26SAPC    HB 3415   0.832   1.507  16.576  0.9011 -0.0845 -0.4336
   26SAPC    C2 3416   0.831   1.306  16.643  0.4740  0.0336 -0.1825
   26SAPC    HS 3417   0.903   1.232  16.684  0.9996  0.1160 -0.9400
   26SAPC   O21 3418   0.753   1.247  16.532 -0.1447  0.1362  0.3515
   26SAPC   C21 3419   0.739   1.118  16.533 -0.4722 -0.4034  0.5318
   26SAPC   O22 3420   0.802   1.037  16.600  0.3264 -0.3239 -0.3776
   26SAPC   C22 3421   0.611   1.069  16.459  0.1658  0.2179  0.0936
   26SAPC   H2R 3422   0.542   1.156  16.456 -0.6186 -0.1593  3.1709
   26SAPC   H2S 3423   0.638   1.039  16.356 -0.8070  0.1313 -0.1403
   26SAPC    C3 3424   0.741   1.328  16.768  0.4341  0.4177 -0.2601
   26SAPC    HX 3425   0.806   1.368  16.849  3.0955 -2.4337 -0.8001
   26SAPC    HY 3426   0.713   1.223  16.791 -0.8672  0.6321 -0.7666
   26SAPC   O31 3427   0.622   1.402  16.735  0.1512 -0.1857  0.6307
   26SAPC   C31 3428   0.592   1.511  16.801 -0.6080  0.0375 -0.2622
   26SAPC   O32 3429   0.650   1.548  16.905 -0.3370 -0.0554 -0.2039
   26SAPC   C32 3430   0.495   1.595  16.719  1.0185 -0.0548 -0.0556
   26SAPC   H2X 3431   0.425   1.536  16.654 -1.4105  1.4741  1.0110
   26SAPC   H2Y 3432   0.563   1.666  16.666  0.7160 -0.0864 -0.4968
   26SAPC   C23 3433   0.553   0.946  16.524  0.5171 -0.2551 -0.1161
   26SAPC   H3R 3434   0.625   0.862  16.520  1.3132  0.2364  2.0940
   26SAPC   H3S 3435   0.457   0.930  16.471  0.2030  0.9957  0.0420
   26SAPC   C24 3436   0.490   0.958  16.661  0.1576 -0.5625  0.1358
   26SAPC   H4R 3437   0.401   1.025  16.653 -2.8537 -4.3444 -0.8645
   26SAPC   H4S 3438   0.572   0.997  16.725 -0.7374  1.9783 -0.1548
   26SAPC   C25 3439   0.456   0.816  16.714  0.0731  0.0336 -0.9681
   26SAPC   H5R 3440   0.540   0.752  16.746  1.0691  1.9902  0.5566
   26SAPC   C26 3441   0.336   0.767  16.746  0.4643 -0.5427  0.4006
   26SAPC   H6R 3442   0.343   0.666  16.788  1.0097 -2.4293 -3.7804
   26SAPC   C27 3443   0.197   0.828  16.731 -0.1232 -0.4005  0.5160
   26SAPC   H7R 3444   0.143   0.779  16.647 -2.9464  2.8093  0.2236
   26SAPC   H7S 3445   0.202   0.933  16.694 -0.7063 -0.8264 -0.8495
   26SAPC   C28 3446   0.099   0.816  16.852  0.7425 -0.2273 -0.1154
   26SAPC   H8R 3447   0.149   0.819  16.950 -0.7305  0.7829  0.6456
   26SAPC   C29 3448  -0.024   0.861  16.847  0.4418  0.2739 -0.5385
   26SAPC   H9R 3449  -0.088   0.858  16.937  0.1996 -2.7923 -0.7196
   26SAPC  C210 3450  -0.107   0.891  16.726 -0.2729  0.0405  0.3572
   26SAPC  H10R 3451  -0.081   0.829  16.637  1.6361  0.2278  0.7263
   26SAPC  H10S 3452  -0.091   0.996  16.694 -2.3394  0.3098  0.0991
   26SAPC  C211 3453  -0.252   0.877  16.760 -0.2198  0.4063 -0.2073
   26SAPC  H11R 3454  -0.293   0.777  16.743 -2.3072  1.4471 -1.7707
   26SAPC  C212 3455  -0.339   0.964  16.817 -0.3532 -0.3997 -0.5111
   26SAPC  H12R 3456  -0.438   0.924  16.846  1.0699 -3.4854  0.5747
   26SAPC  C213 3457  -0.317   1.114  16.845  0.6530  0.3828 -0.2526
   26SAPC  H13R 3458  -0.371   1.179  16.773  1.5691 -0.5005 -1.8138
   26SAPC  H13S 3459  -0.214   1.150  16.824  1.3112 -0.4390  1.3753
   26SAPC  C214 3460  -0.354   1.160  16.980 -0.4492 -0.1540  0.0716
   26SAPC  H14R 3461  -0.295   1.117  17.063 -1.4793  0.2409  1.0318
   26SAPC  C215 3462  -0.441   1.259  17.008 -0.0742  0.6607  0.0798
   26SAPC  H15R 3463  -0.463   1.281  17.113 -0.5847 -0.6775  0.2704
   26SAPC  C216 3464  -0.537   1.327  16.918 -0.3411 -0.4731  0.8443
   26SAPC  H16R 3465  -0.640   1.310  16.955  0.2635 -0.5933  2.6060
   26SAPC  H16S 3466  -0.534   1.288  16.814  0.9051 -3.3185  1.8333
   26SAPC  C217 3467  -0.509   1.478  16.901 -0.0151  0.2817 -0.0748
   26SAPC  H17R 3468  -0.528   1.517  17.003  1.3317 -3.1778  1.6621
   26SAPC  H17S 3469  -0.590   1.517  16.836  0.7732  2.4244  0.1459
   26SAPC  C218 3470  -0.364   1.515  16.864  0.2784  0.2485  0.4808
   26SAPC  H18R 3471  -0.298   1.465  16.939 -0.7267  0.5542  1.6070
   26SAPC  H18S 3472  -0.358   1.621  16.895 -0.2396  0.3709  0.1748
   26SAPC  C219 3473  -0.316   1.498  16.719 -0.1013 -0.0908 -0.2314
   26SAPC  H19R 3474  -0.319   1.388  16.702 -2.0505 -0.2790  1.0625
   26SAPC  H19S 3475  -0.212   1.538  16.718 -0.5340  1.3920  2.6706
   26SAPC  C220 3476  -0.402   1.563  16.617 -0.6651 -0.6958 -0.2113
   26SAPC  H20R 3477  -0.349   1.586  16.522 -1.1696  2.2061  0.1153
   26SAPC  H20S 3478  -0.452   1.660  16.637 -0.6404 -0.8712  0.7402
   26SAPC  H20T 3479  -0.486   1.494  16.594  0.1843 -1.9386  0.2775
   26SAPC   C33 3480   0.389   1.676  16.801 -0.5016  0.3355 -0.0171
   26SAPC   H3X 3481   0.442   1.762  16.848  0.2820 -0.2662  0.2251
   26SAPC   H3Y 3482   0.367   1.606  16.885  1.3987  2.2222  2.2034
   26SAPC   C34 3483   0.262   1.712  16.726  0.1452  0.1643  0.1473
   26SAPC   H4X 3484   0.211   1.619  16.693 -0.1389  0.5218 -0.4480
   26SAPC   H4Y 3485   0.288   1.763  16.630 -1.6309 -0.0251 -0.4790
   26SAPC   C35 3486   0.153   1.779  16.808 -0.7475 -0.9265  0.0016
   26SAPC   H5X 3487   0.074   1.813  16.738 -0.1781 -0.4250 -0.4080
   26SAPC   H5Y 3488   0.189   1.868  16.863  0.7342 -1.7476  0.4328
   26SAPC   C36 3489   0.080   1.687  16.906  0.2176 -0.0438 -0.3253
   26SAPC   H6X 3490   0.145   1.630  16.976 -3.8858 -1.3854  2.7267
   26SAPC   H6Y 3491   0.019   1.606  16.861  0.2958 -0.8833  1.0284
   26SAPC   C37 3492  -0.026   1.766  16.989 -0.6794  0.4185  0.0181
   26SAPC   H7X 3493   0.038   1.821  17.061  1.5439  0.4816 -1.9098
   26SAPC   H7Y 3494  -0.083   1.689  17.046 -0.0651 -0.0367  0.0182
   26SAPC   C38 3495  -0.129   1.854  16.929 -0.1366  0.3219  0.1395
   26SAPC   H8X 3496  -0.202   1.810  16.858 -0.7877 -0.0754  1.0399
   26SAPC   H8Y 3497  -0.065   1.934  16.886  2.3651 -0.6626  1.7958
   26SAPC   C39 3498  -0.221   1.933  17.031 -0.3238  0.5081 -0.7053
   26SAPC   H9X 3499  -0.297   1.987  16.971  0.4216  0.9119 -1.2937
   26SAPC   H9Y 3500  -0.155   2.008  17.081  3.0952 -2.8133  0.2023
   26SAPC  C310 3501  -0.291   1.846  17.137 -0.5489 -0.2125  0.3686
   26SAPC  H10X 3502  -0.211   1.823  17.210 -1.8759  0.6447  2.1681
   26SAPC  H10Y 3503  -0.322   1.748  17.094  0.1995  0.1411 -1.0646
   26SAPC  C311 3504  -0.400   1.909  17.222 -0.2779 -0.4243 -0.2268
   26SAPC  H11X 3505  -0.486   1.923  17.153 -1.3406  0.9512  1.2838
   26SAPC  H11Y 3506  -0.370   2.010  17.258 -1.0534 -0.0994 -0.4675
   26SAPC  C312 3507  -0.428   1.828  17.344 -0.2762 -0.5222  0.0077
   26SAPC  H12X 3508  -0.429   1.891  17.435  1.2271 -0.1842 -0.1793
   26SAPC  H12Y 3509  -0.348   1.751  17.352 -0.4795 -0.5905  1.6546
   26SAPC  C313 3510  -0.565   1.755  17.337 -0.1097  0.7577  0.2038
   26SAPC  H13X 3511  -0.593   1.683  17.416 -4.2650  1.0000 -0.8146
   26SAPC  H13Y 3512  -0.571   1.695  17.244 -3.0232 -0.5808  1.1481
   26SAPC  C314 3513  -0.693   1.842  17.333  0.3953  0.0924  0.2091
   26SAPC  H14X 3514  -0.693   1.904  17.240 -1.8321 -1.5856 -0.9921
   26SAPC  H14Y 3515  -0.692   1.914  17.417  0.2291 -1.3898  1.5084
   26SAPC  C315 3516  -0.830   1.767  17.332  0.1902 -0.7109 -0.3172
   26SAPC  H15X 3517  -0.833   1.689  17.412 -1.6282 -0.0671  0.2924
   26SAPC  H15Y 3518  -0.845   1.714  17.235  0.9532 -0.5677 -0.5198
   26SAPC  C316 3519  -0.942   1.867  17.359 -0.1738 -0.3991  0.4424
   26SAPC  H16X 3520  -0.956   1.936  17.273 -0.7788  0.2902  1.0897
   26SAPC  H16Y 3521  -0.921   1.920  17.454  0.3766 -0.4553  0.3533
   26SAPC  C317 3522  -1.076   1.791  17.365  0.0010  0.3433  0.6599
   26SAPC  H17X 3523  -1.152   1.859  17.409 -1.5563 -0.9381  0.0762
   26SAPC  H17Y 3524  -1.066   1.702  17.430  1.6614  1.6998  2.3535
   26SAPC  C318 3525  -1.121   1.747  17.225  0.2402 -0.2152 -0.8785
   26SAPC  H18X 3526  -1.053   1.668  17.184  0.4931 -0.4373 -0.0528
   26SAPC  H18Y 3527  -1.124   1.833  17.155  0.7921 -1.2282 -2.1914
   26SAPC  H18Z 3528  -1.227   1.714  17.223  0.2976 -0.7169  1.4364
   27SAPC     N 3529   0.158   0.908  12.904  0.3490  0.2996 -0.6548
   27SAPC   C12 3530   0.033   0.976  12.949 -0.2950  0.2176 -0.1457
   27SAPC  H12A 3531   0.023   0.982  13.057  1.6599  1.7164  0.0205
   27SAPC  H12B 3532  -0.050   0.936  12.894  1.6508 -3.7275 -0.5880
   27SAPC   C13 3533   0.280   0.973  12.964  1.1210 -0.2248 -0.3792
   27SAPC  H13A 3534   0.280   1.080  12.949 -2.0323  0.4011  2.7554
   27SAPC  H13B 3535   0.275   0.954  13.070 -1.7834 -0.1153 -0.4339
   27SAPC  H13C 3536   0.375   0.936  12.927  0.4599 -0.7430 -1.5873
   27SAPC   C14 3537   0.157   0.768  12.956 -0.5946 -0.3031  0.3931
   27SAPC  H14A 3538   0.064   0.714  12.942 -1.6433  1.6410 -0.5697
   27SAPC  H14B 3539   0.242   0.710  12.924  1.1110  1.2529  1.8842
   27SAPC  H14C 3540   0.170   0.771  13.063 -0.0489  1.1872  0.3018
   27SAPC   C15 3541   0.168   0.907  12.759 -0.0831 -0.5740 -0.0778
   27SAPC  H15A 3542   0.072   0.906  12.711 -1.2935 -2.7935  2.1465
   27SAPC  H15B 3543   0.223   0.998  12.739 -2.6125  1.2457  0.7353
   27SAPC  H15C 3544   0.232   0.827  12.723 -1.0377 -2.6909  2.5502
   27SAPC   C11 3545   0.022   1.132  12.929  0.2032  0.1029  0.5854
   27SAPC  H11A 3546  -0.082   1.155  12.960  0.5443  0.3870  1.5404
   27SAPC  H11B 3547   0.038   1.149  12.820 -1.3823  1.0996  0.4825
   27SAPC     P 3548   0.103   1.278  13.137 -0.3087  0.1960 -0.1479
   27SAPC   O13 3549   0.096   1.172  13.246 -0.1331  0.3124 -0.0538
   27SAPC   O14 3550   0.220   1.369  13.149  0.1708 -0.1826  0.5174
   27SAPC   O12 3551   0.120   1.209  12.994 -0.4396 -0.1568  0.1987
   27SAPC   O11 3552  -0.027   1.369  13.123 -0.1313 -0.0548  0.9076
   27SAPC    C1 3553  -0.016   1.507  13.128  0.3349 -0.1706  1.0214
   27SAPC    HA 3554   0.068   1.548  13.067 -0.1886 -0.2429  0.2271
   27SAPC    HB 3555  -0.108   1.542  13.075 -0.6154 -0.1272  2.6434
   27SAPC    C2 3556  -0.020   1.581  13.262  0.3723  0.1547  0.9894
   27SAPC    HS 3557   0.079   1.542  13.296  0.0467 -1.2948  0.3304
   27SAPC   O21 3558  -0.136   1.538  13.335  1.0702  0.6139  0.1495
   27SAPC   C21 3559  -0.105   1.480  13.451  0.4959  0.0944  0.0172
   27SAPC   O22 3560   0.007   1.467  13.491  0.4064 -0.1639  0.3408
   27SAPC   C22 3561  -0.231   1.429  13.518  1.3154  0.4068 -0.1132
   27SAPC   H2R 3562  -0.305   1.512  13.527 -0.5263 -1.2445  0.7912
   27SAPC   H2S 3563  -0.287   1.354  13.458 -0.2324  0.9048  0.6655
   27SAPC    C3 3564  -0.024   1.737  13.250  0.3727  0.2527 -0.1338
   27SAPC    HX 3565  -0.122   1.765  13.206  1.6070  2.7668 -1.4913
   27SAPC    HY 3566   0.055   1.755  13.175 -1.6580  2.3022 -1.9397
   27SAPC   O31 3567   0.009   1.810  13.367 -0.9460 -0.4562 -0.0841
   27SAPC   C31 3568  -0.088   1.850  13.451  0.1379  0.3354  0.2490
   27SAPC   O32 3569  -0.206   1.829  13.433 -0.2783 -0.4000  0.5258
   27SAPC   C32 3570  -0.033   1.912  13.583  0.4115 -0.2468  0.7529
   27SAPC   H2X 3571  -0.099   1.995  13.617  1.6822  1.0155  0.2389
   27SAPC   H2Y 3572   0.066   1.956  13.560 -0.6068  2.2672  0.8629
   27SAPC   C23 3573  -0.194   1.366  13.655 -0.1704 -0.4932 -0.4436
   27SAPC   H3R 3574  -0.178   1.448  13.728 -0.5350 -1.5996  0.9146
   27SAPC   H3S 3575  -0.108   1.296  13.660 -0.9858 -1.5300 -0.6355
   27SAPC   C24 3576  -0.320   1.290  13.714 -0.0410 -0.2203  0.3970
   27SAPC   H4R 3577  -0.312   1.200  13.651  2.4356  1.2630 -1.5799
   27SAPC   H4S 3578  -0.412   1.353  13.706  0.8880  1.2885  1.2565
   27SAPC   C25 3579  -0.309   1.243  13.857 -0.4698  0.3148 -0.2867
   27SAPC   H5R 3580  -0.311   1.326  13.929 -2.2798 -1.0944  1.4038
   27SAPC   C26 3581  -0.287   1.120  13.906  0.6614  0.0929  0.3007
   27SAPC   H6R 3582  -0.300   1.107  14.015 -0.8993  1.4884  0.3382
   27SAPC   C27 3583  -0.257   1.004  13.821 -0.4552 -0.1011 -0.0037
   27SAPC   H7R 3584  -0.320   1.001  13.730 -0.2431 -0.0843 -0.1547
   27SAPC   H7S 3585  -0.278   0.918  13.888  2.1643  0.7522  2.1017
   27SAPC   C28 3586  -0.111   0.995  13.781  0.6131 -0.0614  0.5881
   27SAPC   H8R 3587  -0.055   1.088  13.760  0.5756 -0.3089 -0.7036
   27SAPC   C29 3588  -0.042   0.881  13.758 -0.4009 -0.1126  0.2230
   27SAPC   H9R 3589   0.067   0.897  13.750 -0.5434  1.0417  0.4970
   27SAPC  C210 3590  -0.094   0.741  13.756  0.0177 -0.5786 -0.1069
   27SAPC  H10R 3591  -0.202   0.750  13.731  0.2156 -0.2416 -0.8550
   27SAPC  H10S 3592  -0.073   0.690  13.853  0.9813 -1.3562 -0.7023
   27SAPC  C211 3593  -0.042   0.648  13.655 -0.2890  0.6507 -0.2732
   27SAPC  H11R 3594  -0.024   0.687  13.554  0.9133 -0.4221 -0.4973
   27SAPC  C212 3595   0.000   0.516  13.672 -0.5894  0.0911  0.0107
   27SAPC  H12R 3596   0.034   0.463  13.582  0.9956  0.4397  0.3749
   27SAPC  C213 3597  -0.006   0.432  13.799  0.5501  1.0054  0.2888
   27SAPC  H13R 3598  -0.111   0.414  13.828  0.0928  3.3994  0.2892
   27SAPC  H13S 3599   0.037   0.486  13.886  1.4225  2.8246 -1.1973
   27SAPC  C214 3600   0.064   0.299  13.783 -0.2662 -0.0073  0.3059
   27SAPC  H14R 3601   0.174   0.290  13.787 -0.4422 -2.5253  1.7163
   27SAPC  C215 3602   0.011   0.186  13.733  0.5325  0.3676  0.3109
   27SAPC  H15R 3603   0.077   0.100  13.717  2.1680  1.6442 -0.1399
   27SAPC  C216 3604  -0.129   0.161  13.694 -0.1324  0.0903 -0.2733
   27SAPC  H16R 3605  -0.151   0.072  13.631 -1.0314  0.9707 -1.2337
   27SAPC  H16S 3606  -0.166   0.252  13.643  0.1183  1.4951  1.9053
   27SAPC  C217 3607  -0.228   0.144  13.818  0.1819  0.2628  0.3511
   27SAPC  H17R 3608  -0.329   0.143  13.773 -0.5013  2.3592  1.6962
   27SAPC  H17S 3609  -0.217   0.240  13.873  1.6153  0.1767  0.2654
   27SAPC  C218 3610  -0.224   0.015  13.905  0.1916  0.1935  0.4432
   27SAPC  H18R 3611  -0.291  -0.065  13.867  0.3681  0.0322  0.4743
   27SAPC  H18S 3612  -0.256   0.036  14.009 -1.2523 -1.1021  0.3003
   27SAPC  C219 3613  -0.091  -0.068  13.923 -0.1361 -0.2007  0.0686
   27SAPC  H19R 3614  -0.019   0.002  13.972  0.6694 -0.1764 -1.1080
   27SAPC  H19S 3615  -0.063  -0.090  13.818 -0.9309  1.5266 -0.5345
   27SAPC  C220 3616  -0.095  -0.194  14.001  0.1858 -0.3145  0.0785
   27SAPC  H20R 3617   0.007  -0.221  14.034  1.0998  0.4590 -1.9155
   27SAPC  H20S 3618  -0.135  -0.275  13.936 -1.9799  1.8943 -1.5520
   27SAPC  H20T 3619  -0.160  -0.192  14.090 -0.6944  1.3023 -0.5627
   27SAPC   C33 3620  -0.017   1.806  13.701  0.3034 -0.2085  0.4554
   27SAPC   H3X 3621   0.045   1.860  13.776  0.2811  0.0353  0.2993
   27SAPC   H3Y 3622   0.034   1.713  13.670 -1.8424 -1.2229 -0.2310
   27SAPC   C34 3623  -0.154   1.767  13.764  0.0544 -0.5702  0.3050
   27SAPC   H4X 3624  -0.143   1.677  13.827  0.3983  1.2399  2.9994
   27SAPC   H4Y 3625  -0.220   1.731  13.682 -0.1302 -3.1506  1.5012
   27SAPC   C35 3626  -0.231   1.879  13.831  0.1071 -0.2721 -0.2825
   27SAPC   H5X 3627  -0.335   1.842  13.821  1.1565 -3.2828 -1.0619
   27SAPC   H5Y 3628  -0.214   1.978  13.782  2.5077  0.5889  2.0612
   27SAPC   C36 3629  -0.183   1.897  13.979  0.2120 -0.0544 -0.1751
   27SAPC   H6X 3630  -0.082   1.944  13.977  0.7558 -1.2016 -0.3438
   27SAPC   H6Y 3631  -0.163   1.800  14.029 -1.8199  1.2197  3.4344
   27SAPC   C37 3632  -0.291   1.979  14.053  0.1614 -0.5307 -0.2850
   27SAPC   H7X 3633  -0.389   1.926  14.042  0.3003 -1.0791  0.9188
   27SAPC   H7Y 3634  -0.300   2.073  13.995  1.9367 -0.5603 -0.6380
   27SAPC   C38 3635  -0.258   2.003  14.204  0.1587 -0.2940  0.3072
   27SAPC   H8X 3636  -0.184   2.086  14.210  0.3401 -0.2038 -2.3070
   27SAPC   H8Y 3637  -0.231   1.903  14.244  0.0101 -0.3538  0.2574
   27SAPC   C39 3638  -0.383   2.050  14.279 -0.1327  0.2521 -0.0505
   27SAPC   H9X 3639  -0.439   1.956  14.301 -1.5819  1.1827  0.3280
   27SAPC   H9Y 3640  -0.446   2.117  14.218 -0.9442  0.1171  0.6352
   27SAPC  C310 3641  -0.346   2.104  14.410  0.1763 -0.3255 -0.5661
   27SAPC  H10X 3642  -0.274   2.188  14.398  2.5056 -1.8947  1.4851
   27SAPC  H10Y 3643  -0.298   2.025  14.471 -0.4677  0.3916  0.9119
   27SAPC  C311 3644  -0.462   2.168  14.484 -0.3698  0.0113  0.1034
   27SAPC  H11X 3645  -0.428   2.194  14.586  0.1561  1.3447 -0.3887
   27SAPC  H11Y 3646  -0.552   2.103  14.495 -0.3377 -0.1911 -0.7318
   27SAPC  C312 3647  -0.518   2.291  14.414  0.5789 -0.3180 -0.7417
   27SAPC  H12X 3648  -0.544   2.268  14.309  2.1273  0.3747 -1.3163
   27SAPC  H12Y 3649  -0.445   2.371  14.386  0.2806 -0.1950 -1.1670
   27SAPC  C313 3650  -0.648   2.345  14.481  0.5835 -0.0099  0.1178
   27SAPC  H13X 3651  -0.657   2.297  14.581  0.2593 -2.1835 -0.8885
   27SAPC  H13Y 3652  -0.740   2.310  14.429 -0.7390  1.4587  1.3805
   27SAPC  C314 3653  -0.641   2.496  14.490 -0.1329 -0.0401  0.6131
   27SAPC  H14X 3654  -0.653   2.532  14.385 -1.5258 -0.4346  0.6149
   27SAPC  H14Y 3655  -0.541   2.535  14.518  0.1391  1.4307 -2.0500
   27SAPC  C315 3656  -0.742   2.567  14.580  0.4506 -0.6968  0.0670
   27SAPC  H15X 3657  -0.726   2.542  14.687 -0.7877  2.0642  1.0022
   27SAPC  H15Y 3658  -0.838   2.514  14.564  0.0906  0.2159 -0.9484
   27SAPC  C316 3659  -0.767   2.717  14.560  0.2469  0.0742 -0.0161
   27SAPC  H16X 3660  -0.828   2.745  14.648 -2.3226 -2.6065 -0.8051
   27SAPC  H16Y 3661  -0.825   2.738  14.468  0.2162  1.8311  0.3591
   27SAPC  C317 3662  -0.643   2.807  14.546 -0.0397  0.2111 -0.3888
   27SAPC  H17X 3663  -0.590   2.770  14.455 -0.7942  0.7363 -1.0511
   27SAPC  H17Y 3664  -0.577   2.781  14.632  1.2324 -0.3313 -1.4956
   27SAPC  C318 3665  -0.673   2.960  14.523  0.4308 -0.0221  0.4437
   27SAPC  H18X 3666  -0.588   3.021  14.486  0.2133 -0.6736 -1.2004
   27SAPC  H18Y 3667  -0.706   3.004  14.620  0.4672  2.4295 -0.5709
   27SAPC  H18Z 3668  -0.751   2.966  14.443  1.1069 -2.6734 -0.5160
   28SAPC     N 3669   2.008   3.156  17.396 -0.6298  0.6663  0.2247
   28SAPC   C12 3670   1.953   3.294  17.436 -0.9397 -0.4031  0.2240
   28SAPC  H12A 3671   1.882   3.295  17.518 -2.4325  3.0089 -0.9050
   28SAPC  H12B 3672   1.886   3.332  17.361 -2.7167  0.5066  2.1676
   28SAPC   C13 3673   2.118   3.167  17.287  0.1770 -0.1701  0.3267
   28SAPC  H13A 3674   2.077   3.197  17.191 -0.1599  1.7282  1.0308
   28SAPC  H13B 3675   2.187   3.247  17.307  1.1020 -0.5925 -1.0558
   28SAPC  H13C 3676   2.162   3.070  17.268 -1.0815 -0.2705 -2.8723
   28SAPC   C14 3677   2.082   3.094  17.507 -0.3395 -0.4018  0.2891
   28SAPC  H14A 3678   2.141   3.178  17.540 -0.4034  0.7697 -2.3043
   28SAPC  H14B 3679   2.015   3.064  17.586  0.1894 -2.7812 -0.0868
   28SAPC  H14C 3680   2.144   3.009  17.485  0.2942 -0.0413  0.6604
   28SAPC   C15 3681   1.904   3.062  17.345  0.0076 -0.3816 -0.3866
   28SAPC  H15A 3682   1.880   3.086  17.243  0.5128  0.2125 -0.3704
   28SAPC  H15B 3683   1.938   2.960  17.348  0.6090 -0.1763  2.2233
   28SAPC  H15C 3684   1.810   3.065  17.399  0.4466 -1.4747  0.4835
   28SAPC   C11 3685   2.057   3.406  17.454  0.1107 -0.2081  0.0647
   28SAPC  H11A 3686   2.009   3.506  17.456 -1.1442 -0.7417 -1.2653
   28SAPC  H11B 3687   2.112   3.416  17.357  0.9018  0.0632  0.5300
   28SAPC     P 3688   2.107   3.407  17.712  0.0741 -0.3596 -0.1051
   28SAPC   O13 3689   1.970   3.462  17.703 -0.3276 -0.0576  0.8188
   28SAPC   O14 3690   2.133   3.277  17.784 -0.1420  0.1609  0.2462
   28SAPC   O12 3691   2.155   3.390  17.560  0.0689 -0.5072  1.1184
   28SAPC   O11 3692   2.203   3.521  17.769 -0.2612 -0.1217  0.4328
   28SAPC    C1 3693   2.263   3.607  17.666 -0.5607  0.3938 -0.2745
   28SAPC    HA 3694   2.202   3.620  17.574  0.4239  0.3913 -0.9360
   28SAPC    HB 3695   2.283   3.709  17.706 -0.0345  0.3144 -0.3387
   28SAPC    C2 3696   2.397   3.549  17.614  0.5652  0.0126  0.2626
   28SAPC    HS 3697   2.371   3.463  17.549  2.1530 -0.6170  0.4277
   28SAPC   O21 3698   2.466   3.518  17.732  0.2335 -0.4471  0.8665
   28SAPC   C21 3699   2.521   3.399  17.745 -0.4416  0.5518  0.5066
   28SAPC   O22 3700   2.517   3.310  17.663  0.2332 -0.0328  0.7505
   28SAPC   C22 3701   2.605   3.408  17.874 -0.0238 -0.6651 -0.0326
   28SAPC   H2R 3702   2.662   3.502  17.856 -0.7396 -0.8112 -3.8622
   28SAPC   H2S 3703   2.543   3.401  17.966 -2.2071 -2.5791 -1.5442
   28SAPC    C3 3704   2.475   3.649  17.526 -0.8083 -0.1754 -0.3347
   28SAPC    HX 3705   2.534   3.711  17.597 -2.0519 -0.8979  1.4124
   28SAPC    HY 3706   2.413   3.709  17.456  0.2227  2.7845  1.1186
   28SAPC   O31 3707   2.571   3.588  17.436 -0.1042  0.0537 -0.5559
   28SAPC   C31 3708   2.698   3.586  17.483 -0.2848 -0.0283 -0.0183
   28SAPC   O32 3709   2.745   3.630  17.583  0.3164  0.4760  0.2910
   28SAPC   C32 3710   2.778   3.513  17.375  0.0673  0.9706  0.4903
   28SAPC   H2X 3711   2.760   3.551  17.272 -0.4522 -1.4842 -0.3785
   28SAPC   H2Y 3712   2.733   3.412  17.379 -2.1808  1.8354 -0.9560
   28SAPC   C23 3713   2.711   3.292  17.880 -0.1130 -0.1493 -0.1568
   28SAPC   H3R 3714   2.784   3.310  17.799 -0.5050  2.0287 -0.1133
   28SAPC   H3S 3715   2.660   3.194  17.877  1.1920 -0.8309 -0.3985
   28SAPC   C24 3716   2.785   3.298  18.015 -0.2118 -1.0157  0.3639
   28SAPC   H4R 3717   2.841   3.394  18.026 -0.3886 -0.4050 -3.0241
   28SAPC   H4S 3718   2.707   3.307  18.094 -1.0317  2.2577 -0.6607
   28SAPC   C25 3719   2.890   3.193  18.043 -0.4776  0.3604  0.7314
   28SAPC   H5R 3720   2.855   3.089  18.055  1.4843 -0.4828 -0.3079
   28SAPC   C26 3721   3.023   3.212  18.034 -0.1673  0.0675 -0.0993
   28SAPC   H6R 3722   3.088   3.126  18.057  0.5831  0.6995  0.1600
   28SAPC   C27 3723   3.085   3.339  18.016  0.0442 -0.3164 -0.4346
   28SAPC   H7R 3724   3.179   3.337  18.075 -0.1506  2.0575  0.0520
   28SAPC   H7S 3725   3.034   3.427  18.062  1.8479  0.2271  0.6311
   28SAPC   C28 3726   3.108   3.364  17.872 -0.3685  0.6698 -0.1410
   28SAPC   H8R 3727   3.170   3.287  17.823  1.6150  2.5943 -0.8422
   28SAPC   C29 3728   3.066   3.465  17.804 -0.7112 -0.1817  0.4971
   28SAPC   H9R 3729   3.100   3.464  17.700  1.8975  1.5531  1.2295
   28SAPC  C210 3730   2.974   3.580  17.830 -0.2931  0.0502 -0.6535
   28SAPC  H10R 3731   2.960   3.596  17.939  0.2848  0.0794 -0.5788
   28SAPC  H10S 3732   2.874   3.561  17.784 -1.0582  0.2728  0.8623
   28SAPC  C211 3733   3.025   3.718  17.793 -0.4760  0.1349 -0.5048
   28SAPC  H11R 3734   2.975   3.749  17.700 -0.1248 -1.6972 -1.3493
   28SAPC  C212 3735   3.135   3.788  17.837  0.3989  0.1322  0.0559
   28SAPC  H12R 3736   3.144   3.882  17.781 -1.0773  0.7207  0.7404
   28SAPC  C213 3737   3.234   3.758  17.943 -0.7559  1.2596  0.4143
   28SAPC  H13R 3738   3.201   3.671  18.004 -0.0922  0.7529  0.0609
   28SAPC  H13S 3739   3.236   3.837  18.022 -1.9351 -0.1898  1.9715
   28SAPC  C214 3740   3.374   3.729  17.902 -0.8411  0.2037  1.0312
   28SAPC  H14R 3741   3.393   3.756  17.797 -3.3552  1.4048  0.8141
   28SAPC  C215 3742   3.472   3.666  17.971 -0.1956 -0.1067  0.1523
   28SAPC  H15R 3743   3.576   3.652  17.937 -0.0150  1.4225  0.0301
   28SAPC  C216 3744   3.466   3.608  18.111  0.4057 -0.2685  0.0547
   28SAPC  H16R 3745   3.362   3.570  18.124 -2.0543  5.3684 -0.5086
   28SAPC  H16S 3746   3.491   3.685  18.187 -0.6215 -0.2588  0.3990
   28SAPC  C217 3747   3.562   3.489  18.126 -0.1017  1.1275 -0.8163
   28SAPC  H17R 3748   3.669   3.514  18.109  0.5897 -0.0361  1.3490
   28SAPC  H17S 3749   3.520   3.406  18.065 -2.2000  0.3769  1.4708
   28SAPC  C218 3750   3.559   3.446  18.269  0.1913 -0.0109 -0.3105
   28SAPC  H18R 3751   3.601   3.343  18.265  1.8756  0.6225  0.0249
   28SAPC  H18S 3752   3.456   3.442  18.309  0.2542  2.3433  0.2006
   28SAPC  C219 3753   3.641   3.528  18.375 -0.2384  0.1032  0.5221
   28SAPC  H19R 3754   3.629   3.468  18.468 -1.1307  1.3255  1.2484
   28SAPC  H19S 3755   3.598   3.628  18.398  1.3612  0.9327  0.0157
   28SAPC  C220 3756   3.793   3.556  18.356  0.2050 -0.0312  0.2014
   28SAPC  H20R 3757   3.805   3.648  18.295 -1.9114  1.3216  1.6979
   28SAPC  H20S 3758   3.851   3.477  18.303  0.2571 -0.5818  1.0651
   28SAPC  H20T 3759   3.843   3.578  18.453  2.2573 -0.1172 -0.7756
   28SAPC   C33 3760   2.929   3.491  17.414 -0.2857  0.4461  0.1377
   28SAPC   H3X 3761   2.942   3.385  17.383 -1.3929  0.2920  0.1432
   28SAPC   H3Y 3762   2.923   3.488  17.525 -2.2337 -2.4828  0.0778
   28SAPC   C34 3763   3.030   3.580  17.347  0.6744  0.2439 -0.0449
   28SAPC   H4X 3764   3.011   3.682  17.387 -2.5327 -0.2923  0.0591
   28SAPC   H4Y 3765   3.035   3.580  17.236 -0.2320  0.1656 -0.0947
   28SAPC   C35 3766   3.170   3.531  17.388 -0.4847 -0.4780 -0.4141
   28SAPC   H5X 3767   3.198   3.468  17.301  0.1335 -0.2739 -0.3684
   28SAPC   H5Y 3768   3.154   3.463  17.475 -0.3837 -1.4817 -1.1665
   28SAPC   C36 3769   3.283   3.637  17.413  0.3085  0.4996 -0.0316
   28SAPC   H6X 3770   3.360   3.590  17.478 -0.8077 -0.0221  0.9551
   28SAPC   H6Y 3771   3.246   3.725  17.471 -0.6529  0.2816 -0.2975
   28SAPC   C37 3772   3.339   3.681  17.278 -0.7916  0.0940 -0.0065
   28SAPC   H7X 3773   3.259   3.733  17.221  0.5283 -0.3004 -2.3559
   28SAPC   H7Y 3774   3.366   3.597  17.211  0.4109 -1.0827  1.8552
   28SAPC   C38 3775   3.456   3.786  17.288  0.0653 -0.4705  0.4616
   28SAPC   H8X 3776   3.537   3.759  17.359 -0.1971 -0.2358  0.8568
   28SAPC   H8Y 3777   3.409   3.874  17.336  0.2736 -0.6337  0.9730
   28SAPC   C39 3778   3.522   3.805  17.150  0.1792 -0.5770  0.0010
   28SAPC   H9X 3779   3.444   3.780  17.075 -0.2315 -2.7936  1.0888
   28SAPC   H9Y 3780   3.593   3.720  17.141  0.9620  0.1831 -1.4075
   28SAPC  C310 3781   3.573   3.946  17.119 -0.3620  0.0907 -0.7805
   28SAPC  H10X 3782   3.516   4.014  17.185  0.2261  0.0736 -0.2472
   28SAPC  H10Y 3783   3.557   3.953  17.009 -0.4890  0.1901 -0.7545
   28SAPC  C311 3784   3.727   3.969  17.148  0.2259  0.1099 -0.6130
   28SAPC  H11X 3785   3.757   4.068  17.108  1.4055  0.3715  0.8574
   28SAPC  H11Y 3786   3.794   3.895  17.098  0.9178  1.0607 -1.1294
   28SAPC  C312 3787   3.753   3.982  17.296 -0.3204  0.1307 -0.3709
   28SAPC  H12X 3788   3.734   3.891  17.357  0.8160  0.1745  0.0728
   28SAPC  H12Y 3789   3.694   4.068  17.336  1.5892  1.6870 -0.7132
   28SAPC  C313 3790   3.902   4.013  17.315 -0.5568  0.0745 -0.7071
   28SAPC  H13X 3791   3.923   4.119  17.289  2.9297  0.3709  2.4579
   28SAPC  H13Y 3792   3.957   3.947  17.245 -1.0172 -0.5634 -0.4771
   28SAPC  C314 3793   3.950   3.996  17.459 -0.1666  0.8393  0.3700
   28SAPC  H14X 3794   3.938   3.888  17.484  2.2272  0.3182 -0.4931
   28SAPC  H14Y 3795   3.887   4.056  17.529  0.8777  0.6528  1.5008
   28SAPC  C315 3796   4.101   4.028  17.486  0.1294  0.2779 -0.1221
   28SAPC  H15X 3797   4.109   4.049  17.595 -0.9666  1.0633 -0.1819
   28SAPC  H15Y 3798   4.121   4.124  17.435  0.6703  1.5989  2.4001
   28SAPC  C316 3799   4.198   3.922  17.435 -0.5970  0.1970 -0.0680
   28SAPC  H16X 3800   4.168   3.897  17.331 -3.2659  0.3500  0.6042
   28SAPC  H16Y 3801   4.198   3.829  17.496 -0.1551 -0.6537 -1.3133
   28SAPC  C317 3802   4.349   3.970  17.437  0.4886  0.3841  0.2836
   28SAPC  H17X 3803   4.385   3.997  17.538 -1.9275  1.7204  0.8804
   28SAPC  H17Y 3804   4.350   4.072  17.393  1.4267  0.3105  0.1170
   28SAPC  C318 3805   4.444   3.870  17.375 -0.1305 -0.6846  0.2389
   28SAPC  H18X 3806   4.399   3.805  17.296  2.3290 -3.4053  0.8914
   28SAPC  H18Y 3807   4.485   3.793  17.444  1.6481 -1.0789 -1.1517
   28SAPC  H18Z 3808   4.532   3.928  17.340  0.0729 -1.7419 -1.1244
   29SAPC     N 3809   0.089   0.832  21.241  0.3915 -0.8421  0.3772
   29SAPC   C12 3810   0.141   0.904  21.119 -0.6580  0.5351 -0.4476
   29SAPC  H12A 3811   0.183   0.828  21.053  0.4142  0.3674  0.3948
   29SAPC  H12B 3812   0.214   0.978  21.148  0.9504 -0.7213 -1.0793
   29SAPC   C13 3813  -0.027   0.748  21.204  0.4694  0.3653  0.4316
   29SAPC  H13A 3814  -0.060   0.696  21.292  2.7620  0.6817  1.5623
   29SAPC  H13B 3815  -0.103   0.813  21.162  0.4323 -0.1836 -0.3723
   29SAPC  H13C 3816   0.002   0.678  21.127  1.0273  3.4174 -2.4062
   29SAPC   C14 3817   0.199   0.745  21.291 -1.0253 -0.0174 -0.2451
   29SAPC  H14A 3818   0.233   0.681  21.211  0.8833 -0.0515  0.5365
   29SAPC  H14B 3819   0.281   0.800  21.335 -0.7624 -1.0752  0.6134
   29SAPC  H14C 3820   0.166   0.684  21.373 -1.3886 -2.1076 -1.8704
   29SAPC   C15 3821   0.043   0.935  21.342  0.0301 -0.4257 -0.6713
   29SAPC  H15A 3822   0.022   0.896  21.440 -0.3975 -0.5514 -0.8105
   29SAPC  H15B 3823   0.113   1.015  21.358  0.4236 -0.5820 -1.5276
   29SAPC  H15C 3824  -0.041   0.991  21.304 -0.5139 -1.5429 -1.1582
   29SAPC   C11 3825   0.043   0.992  21.038 -0.0241  0.1867 -0.2005
   29SAPC  H11A 3826   0.115   1.039  20.967  0.2934 -1.5858 -1.1136
   29SAPC  H11B 3827  -0.005   1.074  21.095  2.0812  1.0066  0.4913
   29SAPC     P 3828  -0.018   0.851  20.829  0.0581  0.2651  0.0351
   29SAPC   O13 3829   0.094   0.750  20.843  0.1381 -0.3290  0.1725
   29SAPC   O14 3830  -0.143   0.793  20.770 -0.1038  0.7012 -0.3214
   29SAPC   O12 3831  -0.051   0.913  20.966  0.2541 -0.1355 -0.0404
   29SAPC   O11 3832   0.027   0.974  20.736 -0.2065  0.2510 -0.0459
   29SAPC    C1 3833  -0.046   1.091  20.721  0.0091 -0.3403  0.2985
   29SAPC    HA 3834  -0.157   1.078  20.725  0.0225 -0.8632 -0.8173
   29SAPC    HB 3835  -0.023   1.170  20.796 -2.0154  0.4751  0.1431
   29SAPC    C2 3836  -0.017   1.153  20.583  0.7254  0.2213 -0.3595
   29SAPC    HS 3837  -0.092   1.234  20.576  1.5148  0.9531 -0.4482
   29SAPC   O21 3838  -0.037   1.058  20.475  0.5421  0.3059  0.2548
   29SAPC   C21 3839  -0.161   1.003  20.452 -0.0787 -1.1066 -0.1897
   29SAPC   O22 3840  -0.260   1.024  20.521  0.6745  0.4914 -0.5588
   29SAPC   C22 3841  -0.166   0.931  20.316 -0.5313 -0.4893 -0.1532
   29SAPC   H2R 3842  -0.236   0.976  20.243  0.5970 -0.4343 -1.2417
   29SAPC   H2S 3843  -0.064   0.944  20.276 -0.8862 -0.8951 -1.2161
   29SAPC    C3 3844   0.119   1.211  20.592  0.5416  0.0524  0.0834
   29SAPC    HX 3845   0.178   1.119  20.608  0.8990  0.0705 -0.9933
   29SAPC    HY 3846   0.133   1.284  20.674 -0.8827 -0.4935  0.8303
   29SAPC   O31 3847   0.150   1.263  20.459  0.5963 -0.1968  0.4945
   29SAPC   C31 3848   0.139   1.394  20.445  0.4233 -0.1463  0.7298
   29SAPC   O32 3849   0.094   1.472  20.525  0.1085 -0.1689 -0.5748
   29SAPC   C32 3850   0.214   1.440  20.324 -0.4712 -0.2994 -0.8414
   29SAPC   H2X 3851   0.247   1.352  20.265  1.6523  0.0893 -0.3380
   29SAPC   H2Y 3852   0.306   1.496  20.352 -3.1403  4.1584  0.0050
   29SAPC   C23 3853  -0.218   0.783  20.340  0.2282  0.1037  0.1650
   29SAPC   H3R 3854  -0.326   0.804  20.360 -0.6087 -3.3361 -0.1721
   29SAPC   H3S 3855  -0.158   0.746  20.425  1.0103 -1.5855 -1.0530
   29SAPC   C24 3856  -0.209   0.687  20.224 -0.3049 -0.2012  0.0206
   29SAPC   H4R 3857  -0.248   0.749  20.141 -2.4734  0.8067  1.6857
   29SAPC   H4S 3858  -0.277   0.601  20.243 -0.1567  0.1578  2.5702
   29SAPC   C25 3859  -0.068   0.658  20.199 -0.2598 -0.8467  0.2132
   29SAPC   H5R 3860   0.006   0.720  20.252  0.7155 -2.9842  1.4904
   29SAPC   C26 3861  -0.031   0.567  20.104  0.2823  0.1199 -0.8471
   29SAPC   H6R 3862   0.076   0.541  20.100  0.5753  1.4415 -2.8188
   29SAPC   C27 3863  -0.122   0.482  20.019  0.5423 -0.0637 -0.4242
   29SAPC   H7R 3864  -0.230   0.504  20.033 -0.2204 -2.1489 -2.2721
   29SAPC   H7S 3865  -0.098   0.379  20.053 -0.0382  0.6768  2.4558
   29SAPC   C28 3866  -0.102   0.486  19.872 -0.0551 -0.0213 -0.6884
   29SAPC   H8R 3867  -0.020   0.418  19.842  1.8541  1.7866  0.1954
   29SAPC   C29 3868  -0.161   0.576  19.789  0.1011  0.3333 -0.3697
   29SAPC   H9R 3869  -0.137   0.578  19.682 -1.7297  2.6315 -0.8280
   29SAPC  C210 3870  -0.266   0.673  19.837 -0.0173  0.6007 -0.1679
   29SAPC  H10R 3871  -0.211   0.753  19.892  1.7231  0.7096 -1.9392
   29SAPC  H10S 3872  -0.334   0.628  19.912  1.0131  1.7606  1.5354
   29SAPC  C211 3873  -0.345   0.734  19.719 -0.0773  0.8757  0.1465
   29SAPC  H11R 3874  -0.306   0.835  19.699 -3.5322  2.0325 -1.4125
   29SAPC  C212 3875  -0.436   0.681  19.635 -0.0756  0.4940  0.2781
   29SAPC  H12R 3876  -0.490   0.751  19.569  0.4055 -0.1843 -0.8690
   29SAPC  C213 3877  -0.502   0.548  19.649  0.1478 -0.5374 -0.0282
   29SAPC  H13R 3878  -0.584   0.550  19.724  0.3805 -1.6330  0.2747
   29SAPC  H13S 3879  -0.421   0.484  19.689  3.1139  3.5112  1.0423
   29SAPC  C214 3880  -0.546   0.498  19.514 -0.2388  0.2243 -0.3049
   29SAPC  H14R 3881  -0.645   0.521  19.472 -0.0658  1.5359 -0.0301
   29SAPC  C215 3882  -0.470   0.429  19.429  0.8571  0.4387  0.0698
   29SAPC  H15R 3883  -0.518   0.398  19.335  2.2493  1.4127 -1.0008
   29SAPC  C216 3884  -0.329   0.380  19.469  0.2267 -0.1929 -0.2437
   29SAPC  H16R 3885  -0.275   0.462  19.520  2.5471 -1.6666 -0.1999
   29SAPC  H16S 3886  -0.265   0.377  19.378  1.1551  2.2098  0.2567
   29SAPC  C217 3887  -0.317   0.254  19.555  0.1377 -0.9125  0.4650
   29SAPC  H17R 3888  -0.386   0.256  19.642  2.0308  1.4106  2.0501
   29SAPC  H17S 3889  -0.218   0.259  19.605  0.1584 -0.6213  0.3970
   29SAPC  C218 3890  -0.307   0.136  19.458 -0.4242  0.2711 -0.5914
   29SAPC  H18R 3891  -0.239   0.161  19.374 -0.3308  4.4459  0.4942
   29SAPC  H18S 3892  -0.411   0.111  19.428 -0.4159 -2.1637  1.0854
   29SAPC  C219 3893  -0.230   0.021  19.526  0.8121 -0.1321 -0.1439
   29SAPC  H19R 3894  -0.124   0.045  19.547  1.3482 -1.8021 -0.7633
   29SAPC  H19S 3895  -0.216  -0.064  19.455 -1.0112 -1.2557  0.7650
   29SAPC  C220 3896  -0.294  -0.039  19.657 -0.2452 -0.3850 -0.0850
   29SAPC  H20R 3897  -0.308   0.038  19.736 -0.2773 -1.0123  0.5287
   29SAPC  H20S 3898  -0.218  -0.108  19.697  0.9033  0.5341 -0.6233
   29SAPC  H20T 3899  -0.385  -0.101  19.640 -0.4171 -0.0080 -0.5871
   29SAPC   C33 3900   0.146   1.539  20.225 -0.6749 -0.4526  0.1776
   29SAPC   H3X 3901   0.203   1.549  20.131 -2.0981  3.2115 -0.4735
   29SAPC   H3Y 3902   0.145   1.637  20.278 -1.6489 -1.4808  2.1781
   29SAPC   C34 3903   0.003   1.496  20.198 -0.8716 -0.1486 -0.0225
   29SAPC   H4X 3904  -0.041   1.574  20.132 -2.8545 -0.8347  0.4045
   29SAPC   H4Y 3905  -0.059   1.495  20.290 -0.7097 -2.2266  0.1038
   29SAPC   C35 3906  -0.005   1.364  20.131  0.4076  0.2204  0.1204
   29SAPC   H5X 3907   0.037   1.288  20.200  0.7684  1.4867  1.3442
   29SAPC   H5Y 3908   0.051   1.364  20.035 -0.7184  0.5533 -0.5595
   29SAPC   C36 3909  -0.151   1.320  20.123 -0.8269  0.4452 -0.2772
   29SAPC   H6X 3910  -0.209   1.413  20.101 -1.1038  0.2067 -0.5646
   29SAPC   H6Y 3911  -0.182   1.289  20.225  3.7089 -0.9784  0.9064
   29SAPC   C37 3912  -0.187   1.220  20.018  0.3693  0.4641  0.1437
   29SAPC   H7X 3913  -0.296   1.205  20.025  0.4421  0.1240  0.6367
   29SAPC   H7Y 3914  -0.134   1.128  20.050  1.1782  1.0410  0.5091
   29SAPC   C38 3915  -0.155   1.273  19.874  0.4275 -0.0319 -1.0243
   29SAPC   H8X 3916  -0.054   1.249  19.833  1.7551  1.8888  0.8589
   29SAPC   H8Y 3917  -0.179   1.381  19.875 -2.1085 -0.5408 -0.1064
   29SAPC   C39 3918  -0.261   1.224  19.774  0.0634 -0.4450 -0.0407
   29SAPC   H9X 3919  -0.359   1.270  19.799 -0.2595 -1.7205  1.2328
   29SAPC   H9Y 3920  -0.271   1.113  19.772 -1.0299 -0.3604 -0.2257
   29SAPC  C310 3921  -0.238   1.264  19.636  0.6281  0.2010  0.1691
   29SAPC  H10X 3922  -0.136   1.235  19.602 -0.7278 -2.4369 -2.0492
   29SAPC  H10Y 3923  -0.248   1.375  19.634  0.0033  0.1533  0.5832
   29SAPC  C311 3924  -0.334   1.192  19.536 -0.0884 -0.5625 -0.6409
   29SAPC  H11X 3925  -0.439   1.183  19.572 -0.8386  1.5403 -2.1181
   29SAPC  H11Y 3926  -0.287   1.092  19.525  1.5608 -0.2264  2.2510
   29SAPC  C312 3927  -0.340   1.277  19.410 -0.6397 -0.5375  0.3821
   29SAPC  H12X 3928  -0.237   1.303  19.378 -1.4846  1.7582 -0.7511
   29SAPC  H12Y 3929  -0.383   1.377  19.436  0.0228 -0.3134  0.6284
   29SAPC  C313 3930  -0.415   1.219  19.288 -1.0845 -1.2977 -0.0577
   29SAPC  H13X 3931  -0.368   1.121  19.266  0.9328 -0.2028 -0.8412
   29SAPC  H13Y 3932  -0.409   1.294  19.207 -1.9211  1.5851  2.3605
   29SAPC  C314 3933  -0.570   1.195  19.308 -0.4014  0.3902  0.5186
   29SAPC  H14X 3934  -0.588   1.103  19.366 -2.6602 -0.7229 -1.7278
   29SAPC  H14Y 3935  -0.601   1.171  19.204  1.5439  0.1970 -0.0589
   29SAPC  C315 3936  -0.660   1.306  19.367  0.5856  0.4229 -0.0541
   29SAPC  H15X 3937  -0.621   1.407  19.342  2.0516 -0.8758 -3.5314
   29SAPC  H15Y 3938  -0.647   1.291  19.477  0.7846 -2.6482 -0.4356
   29SAPC  C316 3939  -0.806   1.299  19.323  0.6188  0.9219 -0.3366
   29SAPC  H16X 3940  -0.853   1.201  19.347 -1.4417  1.7196 -0.8789
   29SAPC  H16Y 3941  -0.816   1.310  19.213 -0.1446  0.2023 -0.3535
   29SAPC  C317 3942  -0.898   1.401  19.389  0.0413 -0.3216  0.8679
   29SAPC  H17X 3943  -0.909   1.382  19.498  0.0043 -0.2244  0.8789
   29SAPC  H17Y 3944  -1.000   1.396  19.345  0.7105 -0.1013 -0.7855
   29SAPC  C318 3945  -0.854   1.542  19.370  0.1345 -0.5296 -0.6505
   29SAPC  H18X 3946  -0.851   1.565  19.261  1.1136 -0.8107 -0.6923
   29SAPC  H18Y 3947  -0.752   1.565  19.409 -0.5883  0.6000  0.6572
   29SAPC  H18Z 3948  -0.927   1.612  19.416  0.2967 -1.2239  0.7125
   30SAPC     N 3949   1.507   4.075  16.109 -0.1993  0.2130  0.4461
   30SAPC   C12 3950   1.428   3.965  16.178  0.1352  0.5314 -0.5871
   30SAPC  H12A 3951   1.476   3.949  16.273  0.6338 -0.7662 -1.0354
   30SAPC  H12B 3952   1.428   3.876  16.118 -0.5831  1.1621 -1.5558
   30SAPC   C13 3953   1.648   4.018  16.086  0.1809 -0.9564 -0.8790
   30SAPC  H13A 3954   1.626   3.942  16.013 -1.2266 -0.9285 -0.5021
   30SAPC  H13B 3955   1.710   4.090  16.034  0.1763  0.0802  0.4947
   30SAPC  H13C 3956   1.698   3.977  16.172  0.9047  1.5077 -0.0372
   30SAPC   C14 3957   1.447   4.112  15.981 -0.1775 -0.4225  0.2160
   30SAPC  H14A 3958   1.348   4.151  15.997  1.0593  2.0045  3.0271
   30SAPC  H14B 3959   1.502   4.190  15.929 -1.5417  0.1968 -0.3388
   30SAPC  H14C 3960   1.434   4.038  15.905 -0.8593 -1.1203  0.9987
   30SAPC   C15 3961   1.511   4.192  16.209  0.2032  0.9950 -0.8726
   30SAPC  H15A 3962   1.583   4.267  16.182  1.8262 -0.1684  0.0033
   30SAPC  H15B 3963   1.416   4.240  16.225  1.1485  2.0098  2.6989
   30SAPC  H15C 3964   1.535   4.158  16.309 -0.0074 -0.0238 -1.1496
   30SAPC   C11 3965   1.283   3.995  16.209  0.2200 -0.0023  0.4887
   30SAPC  H11A 3966   1.275   4.083  16.276 -1.0902  0.7181 -0.5783
   30SAPC  H11B 3967   1.226   3.917  16.265 -0.6869  0.6316  0.4687
   30SAPC     P 3968   1.157   3.916  15.995 -0.1227  0.2513  0.0051
   30SAPC   O13 3969   1.184   3.966  15.857 -0.1707  0.1589 -0.4630
   30SAPC   O14 3970   1.217   3.783  16.028  0.2059  0.1380 -0.3302
   30SAPC   O12 3971   1.212   4.028  16.090  0.7382  0.2462  0.3208
   30SAPC   O11 3972   0.999   3.915  16.028  0.1049 -0.3580  0.0319
   30SAPC    C1 3973   0.921   4.033  16.043 -0.1482  0.0613 -0.2502
   30SAPC    HA 3974   0.976   4.129  16.031 -2.7029  1.7240  0.4911
   30SAPC    HB 3975   0.834   4.018  15.975 -2.7393  0.7882  2.6991
   30SAPC    C2 3976   0.859   4.046  16.180 -0.1886  0.0247 -0.7836
   30SAPC    HS 3977   0.813   4.147  16.187  0.2320  0.1670 -0.0171
   30SAPC   O21 3978   0.959   4.021  16.285 -0.2528  0.1220  0.0732
   30SAPC   C21 3979   1.012   4.133  16.325 -0.4284  0.7619  0.2520
   30SAPC   O22 3980   1.028   4.234  16.257 -0.3009  0.0163 -0.3518
   30SAPC   C22 3981   1.066   4.118  16.468 -0.1565 -0.3084  0.2258
   30SAPC   H2R 3982   1.154   4.052  16.457 -1.0944 -1.8134  1.3574
   30SAPC   H2S 3983   1.093   4.211  16.523  0.0972 -0.5701  0.5468
   30SAPC    C3 3984   0.747   3.942  16.202  0.5913 -0.1156  0.4372
   30SAPC    HX 3985   0.789   3.843  16.175  0.7849 -0.2821  1.3299
   30SAPC    HY 3986   0.653   3.953  16.144  0.3282  0.0920  0.8963
   30SAPC   O31 3987   0.705   3.944  16.340  0.0350 -0.5987 -0.4785
   30SAPC   C31 3988   0.645   3.828  16.366 -0.2491 -0.2531 -0.0080
   30SAPC   O32 3989   0.628   3.738  16.286 -0.2162 -0.3377 -0.2959
   30SAPC   C32 3990   0.609   3.832  16.508 -0.1742 -0.1915 -0.5234
   30SAPC   H2X 3991   0.643   3.931  16.544  0.3196 -0.5940  0.1383
   30SAPC   H2Y 3992   0.667   3.749  16.554 -1.1133 -1.8241 -2.1270
   30SAPC   C23 3993   0.976   4.032  16.557 -0.0704 -0.1154 -0.4799
   30SAPC   H3R 3994   1.030   4.006  16.650  0.7250 -1.0489 -1.1743
   30SAPC   H3S 3995   0.950   3.937  16.505  0.5522 -0.3126 -0.4411
   30SAPC   C24 3996   0.842   4.098  16.603 -0.3845  0.2315 -0.2785
   30SAPC   H4R 3997   0.787   4.021  16.661 -0.3512  0.6709  0.3420
   30SAPC   H4S 3998   0.779   4.116  16.513 -0.0526  1.0304 -0.3590
   30SAPC   C25 3999   0.864   4.220  16.698 -0.2798  0.1973 -0.3269
   30SAPC   H5R 4000   0.945   4.291  16.672  0.7754 -0.9096 -0.1692
   30SAPC   C26 4001   0.800   4.249  16.817  0.0327  0.4762 -0.1442
   30SAPC   H6R 4002   0.818   4.347  16.863 -0.5612  0.4106  0.2465
   30SAPC   C27 4003   0.690   4.168  16.879 -0.0722  0.1515  1.0528
   30SAPC   H7R 4004   0.702   4.181  16.989  0.2272  0.6052  0.9689
   30SAPC   H7S 4005   0.711   4.063  16.851 -0.6850  0.7598 -2.0635
   30SAPC   C28 4006   0.542   4.195  16.846  0.6621 -0.5292 -0.3524
   30SAPC   H8R 4007   0.512   4.225  16.744  0.8394 -2.6119 -1.0654
   30SAPC   C29 4008   0.442   4.201  16.930 -0.4187 -0.0287  0.1080
   30SAPC   H9R 4009   0.342   4.199  16.884  0.2015  1.3573 -1.4028
   30SAPC  C210 4010   0.441   4.158  17.075 -0.9351  0.2497 -0.5710
   30SAPC  H10R 4011   0.543   4.129  17.107 -0.9030 -0.7976 -1.5502
   30SAPC  H10S 4012   0.393   4.058  17.077  0.6367 -0.5782  2.8740
   30SAPC  C211 4013   0.388   4.237  17.190  0.3621 -0.3754 -0.7321
   30SAPC  H11R 4014   0.451   4.269  17.275 -1.8255 -1.1143  1.3007
   30SAPC  C212 4015   0.261   4.270  17.208 -0.6562  0.4971  0.1891
   30SAPC  H12R 4016   0.230   4.315  17.303 -0.1970  1.2508 -0.0114
   30SAPC  C213 4017   0.144   4.230  17.124 -0.3836 -0.1348  0.6268
   30SAPC  H13R 4018   0.070   4.169  17.182  1.0599 -1.3589  1.2500
   30SAPC  H13S 4019   0.170   4.172  17.033 -1.2834 -0.6074  0.6572
   30SAPC  C214 4020   0.078   4.353  17.063 -0.1106  0.0509  0.8863
   30SAPC  H14R 4021   0.142   4.375  16.976 -0.6269 -1.7093  0.0257
   30SAPC  C215 4022  -0.039   4.409  17.094 -0.9523  0.2086  0.5355
   30SAPC  H15R 4023  -0.080   4.499  17.047 -2.5029 -1.0098 -0.5332
   30SAPC  C216 4024  -0.129   4.373  17.213 -0.4653  0.2813 -0.0244
   30SAPC  H16R 4025  -0.145   4.468  17.269  1.8767  1.8693 -1.8576
   30SAPC  H16S 4026  -0.082   4.305  17.288  0.1858  0.6120 -0.1245
   30SAPC  C217 4027  -0.262   4.315  17.164  0.7842  0.5788 -0.3258
   30SAPC  H17R 4028  -0.315   4.279  17.255  0.2466 -0.2953 -0.9678
   30SAPC  H17S 4029  -0.225   4.234  17.099  1.4078  1.7589 -1.4971
   30SAPC  C218 4030  -0.344   4.421  17.091  0.4339 -0.2597  0.0576
   30SAPC  H18R 4031  -0.284   4.456  17.005 -0.2002  1.0438  0.1308
   30SAPC  H18S 4032  -0.354   4.511  17.155  2.2688 -0.1049  0.1841
   30SAPC  C219 4033  -0.464   4.369  17.021 -1.0971 -0.6146  0.5130
   30SAPC  H19R 4034  -0.552   4.342  17.083 -0.2709 -3.2070  0.6693
   30SAPC  H19S 4035  -0.435   4.275  16.968 -2.6429 -0.6119 -0.4019
   30SAPC  C220 4036  -0.510   4.473  16.917 -0.7588  0.2624  0.4609
   30SAPC  H20R 4037  -0.548   4.569  16.959 -1.1506  0.2232  0.2054
   30SAPC  H20S 4038  -0.596   4.419  16.871  0.8761 -1.3274 -0.8769
   30SAPC  H20T 4039  -0.431   4.489  16.841  0.5710  0.1107  1.7867
   30SAPC   C33 4040   0.463   3.823  16.525  0.4338 -0.1021 -0.6830
   30SAPC   H3X 4041   0.412   3.728  16.497  2.3420 -1.5715  0.5549
   30SAPC   H3Y 4042   0.408   3.897  16.462 -2.2601 -0.3918  1.1374
   30SAPC   C34 4043   0.413   3.865  16.662  0.0966 -0.1620  0.0285
   30SAPC   H4X 4044   0.450   3.965  16.693 -1.8367  0.6575 -0.1819
   30SAPC   H4Y 4045   0.462   3.800  16.738 -0.4886 -0.1134  0.4527
   30SAPC   C35 4046   0.261   3.858  16.681 -0.7921  0.4221  0.4640
   30SAPC   H5X 4047   0.245   3.752  16.653  1.1011  0.0754  0.5376
   30SAPC   H5Y 4048   0.202   3.928  16.618  0.4414  1.0758 -0.0065
   30SAPC   C36 4049   0.236   3.886  16.830  0.7622 -0.3040  0.0280
   30SAPC   H6X 4050   0.273   3.986  16.861 -1.7506  0.8976 -0.6709
   30SAPC   H6Y 4051   0.288   3.808  16.890 -0.2449 -0.1897  1.0734
   30SAPC   C37 4052   0.091   3.877  16.884  0.3089  0.1675  0.1368
   30SAPC   H7X 4053   0.101   3.887  16.995 -0.9810  3.4922  0.0733
   30SAPC   H7Y 4054   0.036   3.782  16.868 -2.2910  1.9193 -2.2941
   30SAPC   C38 4055  -0.011   3.989  16.828 -0.2612 -0.4837 -0.3715
   30SAPC   H8X 4056  -0.050   3.965  16.727  1.0405 -0.5589 -0.8777
   30SAPC   H8Y 4057   0.047   4.082  16.812 -0.5422  0.0895  1.7079
   30SAPC   C39 4058  -0.120   4.026  16.927  0.2313  0.3961  0.2942
   30SAPC   H9X 4059  -0.185   4.103  16.881 -1.7300 -0.3301  1.7058
   30SAPC   H9Y 4060  -0.083   4.055  17.028 -1.7763 -1.6867  1.7230
   30SAPC  C310 4061  -0.217   3.906  16.950 -0.4288 -0.2928  0.5894
   30SAPC  H10X 4062  -0.300   3.946  17.012  1.0627 -0.3275  2.7187
   30SAPC  H10Y 4063  -0.175   3.829  17.019 -0.7970 -1.2935 -0.2749
   30SAPC  C311 4064  -0.272   3.846  16.818 -0.2986  0.0768 -0.1888
   30SAPC  H11X 4065  -0.191   3.812  16.750 -0.2196 -0.4006  0.1384
   30SAPC  H11Y 4066  -0.348   3.910  16.769 -0.9284 -1.9012 -1.9540
   30SAPC  C312 4067  -0.359   3.723  16.851  0.2871 -0.1192 -0.0998
   30SAPC  H12X 4068  -0.441   3.760  16.916  0.6764  0.5259  0.0398
   30SAPC  H12Y 4069  -0.304   3.644  16.907 -1.4581 -1.8961 -0.7619
   30SAPC  C313 4070  -0.432   3.660  16.730 -0.5691 -0.3522 -0.6482
   30SAPC  H13X 4071  -0.356   3.649  16.650 -0.2605 -0.8103 -0.2993
   30SAPC  H13Y 4072  -0.518   3.722  16.696  2.0181  4.5273  0.7632
   30SAPC  C314 4073  -0.484   3.516  16.758 -0.0995 -0.2567 -0.3736
   30SAPC  H14X 4074  -0.534   3.510  16.857 -0.0772 -4.4027 -0.4618
   30SAPC  H14Y 4075  -0.389   3.460  16.768  0.9643  1.4392 -0.4851
   30SAPC  C315 4076  -0.558   3.455  16.642  0.4862 -0.4274 -0.6913
   30SAPC  H15X 4077  -0.482   3.434  16.563  0.9753  0.9547 -0.6121
   30SAPC  H15Y 4078  -0.636   3.533  16.626 -0.4073 -0.6953  1.8548
   30SAPC  C316 4079  -0.633   3.323  16.677 -0.3773 -0.2512 -0.2223
   30SAPC  H16X 4080  -0.692   3.349  16.768  0.8165 -0.9669  0.7821
   30SAPC  H16Y 4081  -0.550   3.252  16.696  0.0009  0.4369  0.7936
   30SAPC  C317 4082  -0.717   3.268  16.561  0.0764 -0.4238 -0.0043
   30SAPC  H17X 4083  -0.653   3.242  16.474 -3.1210  0.8138 -2.9135
   30SAPC  H17Y 4084  -0.784   3.350  16.528  0.8388 -0.5087 -1.8649
   30SAPC  C318 4085  -0.799   3.148  16.605 -0.0425 -0.0895  0.0024
   30SAPC  H18X 4086  -0.881   3.122  16.535  1.4725  1.1666 -2.3555
   30SAPC  H18Y 4087  -0.850   3.169  16.701 -2.2859 -0.9523 -0.9434
   30SAPC  H18Z 4088  -0.735   3.058  16.623  0.4297 -0.0679 -1.4209
   31SAPC     N 4089   1.074   3.408  14.920  0.4960 -0.3899 -0.2344
   31SAPC   C12 4090   1.162   3.402  14.799 -0.0059 -0.1544  0.0461
   31SAPC  H12A 4091   1.154   3.490  14.736  2.4618  0.0386 -0.0720
   31SAPC  H12B 4092   1.140   3.316  14.738  0.7048  0.8162 -1.6477
   31SAPC   C13 4093   1.112   3.306  15.019  0.3500 -1.0124  0.2185
   31SAPC  H13A 4094   1.120   3.214  14.962 -3.1880 -1.9590  1.0171
   31SAPC  H13B 4095   1.206   3.338  15.061 -0.5677  1.6909  0.3785
   31SAPC  H13C 4096   1.035   3.294  15.094 -1.0246 -0.9856 -1.1490
   31SAPC   C14 4097   1.067   3.548  14.986 -0.2951 -0.2907 -0.3646
   31SAPC  H14A 4098   1.168   3.568  15.019 -0.3459  0.5200 -0.6581
   31SAPC  H14B 4099   1.035   3.631  14.925  0.8078  0.6224  0.2515
   31SAPC  H14C 4100   1.014   3.543  15.080  2.6341  2.6268  1.6526
   31SAPC   C15 4101   0.935   3.374  14.878 -0.7414  0.1901 -0.1970
   31SAPC  H15A 4102   0.894   3.436  14.799 -2.5365 -1.1163 -0.3714
   31SAPC  H15B 4103   0.929   3.276  14.832  1.3782 -0.6555  1.1791
   31SAPC  H15C 4104   0.862   3.368  14.957  0.3991 -2.6904  0.7824
   31SAPC   C11 4105   1.315   3.387  14.816  0.6539  0.3210 -0.0433
   31SAPC  H11A 4106   1.359   3.382  14.714 -1.8500 -0.5036 -1.1610
   31SAPC  H11B 4107   1.323   3.284  14.858 -2.9253  0.2980  0.8232
   31SAPC     P 4108   1.409   3.625  14.858 -0.5482 -0.0587 -0.0932
   31SAPC   O13 4109   1.393   3.638  14.715 -0.3507 -0.2941  0.0765
   31SAPC   O14 4110   1.341   3.720  14.953 -0.8552  0.3658 -0.2507
   31SAPC   O12 4111   1.375   3.483  14.901 -0.1681  0.0515  0.5057
   31SAPC   O11 4112   1.565   3.621  14.885  0.4187  0.4485  0.0708
   31SAPC    C1 4113   1.671   3.679  14.805 -0.0746  0.3349 -0.1168
   31SAPC    HA 4114   1.697   3.600  14.732  1.9492 -0.3993  1.3063
   31SAPC    HB 4115   1.634   3.766  14.747 -2.1266  0.2780  1.0092
   31SAPC    C2 4116   1.793   3.722  14.886 -0.1849 -0.1265 -0.0892
   31SAPC    HS 4117   1.866   3.763  14.813  0.6380  1.5331  1.5754
   31SAPC   O21 4118   1.853   3.613  14.954 -0.1818 -0.4465  0.2393
   31SAPC   C21 4119   1.905   3.522  14.874  0.2459  0.3121 -0.2421
   31SAPC   O22 4120   1.915   3.533  14.754  0.2233  0.2883 -0.1035
   31SAPC   C22 4121   1.941   3.397  14.957  0.2439 -0.1077 -0.5013
   31SAPC   H2R 4122   1.843   3.352  14.985  0.9141 -0.2928  1.7622
   31SAPC   H2S 4123   2.009   3.332  14.898  0.0877  1.2547 -2.2613
   31SAPC    C3 4124   1.764   3.831  15.002  0.7525  0.0634 -0.2924
   31SAPC    HX 4125   1.685   3.772  15.054  0.7019  0.9265  0.6490
   31SAPC    HY 4126   1.717   3.921  14.958  1.1956 -0.0942 -1.1002
   31SAPC   O31 4127   1.877   3.862  15.089  0.4200  0.8151  0.0484
   31SAPC   C31 4128   1.853   3.849  15.216  0.2704 -0.3579 -0.8163
   31SAPC   O32 4129   1.742   3.843  15.267  0.3185  0.3166 -0.3670
   31SAPC   C32 4130   1.987   3.859  15.291  0.2023  0.2725  0.1331
   31SAPC   H2X 4131   2.019   3.964  15.272  3.0927 -0.8001 -1.3492
   31SAPC   H2Y 4132   2.059   3.796  15.236 -1.3441 -2.3300  0.9377
   31SAPC   C23 4133   2.025   3.438  15.077  0.2032  0.2043 -0.3217
   31SAPC   H3R 4134   1.957   3.488  15.149 -0.0845 -1.2637  0.4733
   31SAPC   H3S 4135   2.099   3.516  15.049 -0.2150  0.7756  0.1356
   31SAPC   C24 4136   2.101   3.327  15.157 -0.3667 -0.0396 -0.2931
   31SAPC   H4R 4137   2.033   3.249  15.198 -1.0891  1.0802  0.7349
   31SAPC   H4S 4138   2.140   3.387  15.243 -2.1358  0.3744  0.2589
   31SAPC   C25 4139   2.217   3.275  15.085 -0.1358  0.7676  0.8757
   31SAPC   H5R 4140   2.257   3.354  15.019  1.7461  0.2450  1.3288
   31SAPC   C26 4141   2.281   3.163  15.084 -0.9034 -0.0412  0.4585
   31SAPC   H6R 4142   2.372   3.154  15.022 -1.0600 -0.4933  0.2838
   31SAPC   C27 4143   2.254   3.046  15.174  0.0450  0.2022 -0.2134
   31SAPC   H7R 4144   2.231   2.952  15.120 -1.1821  1.6546 -2.3726
   31SAPC   H7S 4145   2.161   3.068  15.231  0.1517  0.1828 -0.0301
   31SAPC   C28 4146   2.367   3.039  15.274 -0.2090  0.4762 -0.1266
   31SAPC   H8R 4147   2.451   3.106  15.249  0.0524 -0.5770 -2.3607
   31SAPC   C29 4148   2.375   2.961  15.384 -0.8010 -0.0568 -0.0436
   31SAPC   H9R 4149   2.466   2.964  15.446 -1.6162 -0.0639  1.1913
   31SAPC  C210 4150   2.276   2.856  15.435  0.1272  0.3684 -0.0719
   31SAPC  H10R 4151   2.330   2.765  15.469 -0.0383  0.2460 -0.1346
   31SAPC  H10S 4152   2.202   2.832  15.356 -1.3254 -2.3840  1.9880
   31SAPC  C211 4153   2.200   2.915  15.555 -0.7589  0.0077  0.2741
   31SAPC  H11R 4154   2.091   2.929  15.551 -0.6244  2.1814  2.1084
   31SAPC  C212 4155   2.251   2.924  15.675 -0.4537  0.3021 -0.2510
   31SAPC  H12R 4156   2.197   2.969  15.759  1.4515  0.2218  1.0781
   31SAPC  C213 4157   2.391   2.896  15.717 -0.2356  0.2547 -0.0102
   31SAPC  H13R 4158   2.440   2.824  15.648 -0.6624 -1.4092  1.3606
   31SAPC  H13S 4159   2.390   2.841  15.813 -2.9987  1.5432  0.8039
   31SAPC  C214 4160   2.471   3.024  15.734 -0.9556 -0.5747  0.3516
   31SAPC  H14R 4161   2.405   3.112  15.733 -0.1835  0.0130  0.0964
   31SAPC  C215 4162   2.603   3.043  15.722 -0.0189  0.4094  0.2744
   31SAPC  H15R 4163   2.620   3.150  15.738  0.2788  0.3849  0.1372
   31SAPC  C216 4164   2.717   2.939  15.716 -0.7244  0.6028 -0.1547
   31SAPC  H16R 4165   2.766   2.951  15.617 -1.9727  2.0989 -0.6258
   31SAPC  H16S 4166   2.672   2.837  15.720 -0.1491  0.3396 -0.3097
   31SAPC  C217 4167   2.818   2.934  15.831 -0.3555  0.6076 -0.2192
   31SAPC  H17R 4168   2.877   2.840  15.829  1.8531  1.9348 -1.1503
   31SAPC  H17S 4169   2.753   2.931  15.921 -0.9539  0.6545 -0.6444
   31SAPC  C218 4170   2.914   3.053  15.851  0.6659 -0.0140  0.2923
   31SAPC  H18R 4171   2.846   3.136  15.878 -0.8871 -1.1389 -0.0243
   31SAPC  H18S 4172   2.968   3.078  15.758 -1.3287 -0.5719 -1.0746
   31SAPC  C219 4173   3.020   3.042  15.961  0.2161  0.2745 -0.6191
   31SAPC  H19R 4174   3.084   2.956  15.933  0.6304  0.9442 -1.8126
   31SAPC  H19S 4175   2.969   3.021  16.058 -1.4565 -0.4861 -1.6216
   31SAPC  C220 4176   3.112   3.166  15.983 -0.4479  0.3873 -0.2738
   31SAPC  H20R 4177   3.078   3.248  16.050  1.1673  2.0004 -1.3246
   31SAPC  H20S 4178   3.145   3.210  15.887  0.6658 -0.9566 -0.5499
   31SAPC  H20T 4179   3.201   3.117  16.029 -0.0654  1.2841 -0.0276
   31SAPC   C33 4180   1.991   3.820  15.445 -0.0666 -0.3109  0.1484
   31SAPC   H3X 4181   1.914   3.741  15.462 -0.6365  0.0793 -0.5544
   31SAPC   H3Y 4182   1.950   3.899  15.511  0.0884 -1.1916  1.3239
   31SAPC   C34 4183   2.126   3.765  15.494 -0.5764  0.2439  0.3588
   31SAPC   H4X 4184   2.135   3.667  15.442 -2.0643  0.3179 -0.0771
   31SAPC   H4Y 4185   2.117   3.759  15.604 -1.4909  2.5554  0.4597
   31SAPC   C35 4186   2.249   3.865  15.460  0.1437  0.7488 -0.3684
   31SAPC   H5X 4187   2.233   3.951  15.528 -1.6610  1.4914 -1.6472
   31SAPC   H5Y 4188   2.243   3.903  15.356 -0.6188  1.6164 -0.0149
   31SAPC   C36 4189   2.386   3.805  15.477 -0.3643 -0.0081  0.2718
   31SAPC   H6X 4190   2.402   3.717  15.410 -1.7116 -0.0380 -0.0495
   31SAPC   H6Y 4191   2.388   3.769  15.582  3.8461  1.1121  0.7426
   31SAPC   C37 4192   2.503   3.901  15.459 -0.3318 -0.7780 -0.2092
   31SAPC   H7X 4193   2.519   3.969  15.545 -1.7344  0.1628 -0.6522
   31SAPC   H7Y 4194   2.478   3.962  15.370  0.4805 -0.9319 -0.5589
   31SAPC   C38 4195   2.627   3.824  15.418  0.9331  0.9912 -0.1450
   31SAPC   H8X 4196   2.593   3.746  15.346  1.5203  0.8361 -0.2606
   31SAPC   H8Y 4197   2.658   3.767  15.508 -0.1201 -0.5950 -0.7224
   31SAPC   C39 4198   2.747   3.903  15.346 -0.4680 -0.0525  0.1898
   31SAPC   H9X 4199   2.709   3.970  15.265  1.8222  0.9408 -0.1191
   31SAPC   H9Y 4200   2.821   3.828  15.311  0.3294  0.0911  1.5049
   31SAPC  C310 4201   2.836   3.978  15.452  1.4506 -0.4111  0.0390
   31SAPC  H10X 4202   2.854   3.921  15.546  1.0222  0.9927  1.0017
   31SAPC  H10Y 4203   2.784   4.072  15.481  0.9224 -0.1930 -1.5217
   31SAPC  C311 4204   2.964   4.038  15.383  0.4225 -0.1797  0.5659
   31SAPC  H11X 4205   2.941   4.092  15.288  1.3341  0.7176  0.8425
   31SAPC  H11Y 4206   3.033   3.954  15.360  0.6545 -0.3719  1.9242
   31SAPC  C312 4207   3.036   4.134  15.474 -0.2636 -0.4061 -0.5268
   31SAPC  H12X 4208   3.141   4.144  15.437  1.4285 -1.5485  3.3718
   31SAPC  H12Y 4209   3.041   4.096  15.579  1.4962  0.6926 -0.1715
   31SAPC  C313 4210   2.975   4.276  15.476  0.4945 -1.0617 -0.1807
   31SAPC  H13X 4211   3.029   4.333  15.554 -0.1606 -3.5277  2.1988
   31SAPC  H13Y 4212   2.868   4.284  15.505  0.7843  1.2844  0.4260
   31SAPC  C314 4213   2.986   4.345  15.343 -0.3266 -0.0112 -0.1788
   31SAPC  H14X 4214   2.928   4.288  15.266 -1.3038  0.9024 -0.1409
   31SAPC  H14Y 4215   3.089   4.347  15.303 -0.2993  1.4637 -0.0856
   31SAPC  C315 4216   2.951   4.496  15.342  0.1070 -0.7990  0.2894
   31SAPC  H15X 4217   2.857   4.516  15.397  1.0063  3.2724  0.6675
   31SAPC  H15Y 4218   2.943   4.529  15.236  1.1660  1.4937  0.8668
   31SAPC  C316 4219   3.054   4.576  15.415 -0.0327 -0.1073  0.6155
   31SAPC  H16X 4220   3.158   4.565  15.377 -0.4987 -1.0905 -0.4132
   31SAPC  H16Y 4221   3.060   4.553  15.524  0.6556  1.5091  0.9559
   31SAPC  C317 4222   3.015   4.725  15.411 -0.1779  0.3414  0.2904
   31SAPC  H17X 4223   2.910   4.735  15.448 -1.2167 -2.3894 -1.6437
   31SAPC  H17Y 4224   3.013   4.769  15.309  0.7308  0.0951  0.1619
   31SAPC  C318 4225   3.088   4.814  15.508 -0.2039 -0.7970 -0.1908
   31SAPC  H18X 4226   3.047   4.917  15.506 -2.0870 -1.5134 -2.0725
   31SAPC  H18Y 4227   3.197   4.823  15.489 -0.0595 -2.8270 -0.4691
   31SAPC  H18Z 4228   3.078   4.775  15.612  0.2568  0.0518  0.1924
   32SAPC     N 4229   1.848   3.721  18.016  0.3283 -0.4629 -0.4617
   32SAPC   C12 4230   1.909   3.783  18.140 -0.4700 -0.6229 -0.3150
   32SAPC  H12A 4231   1.864   3.740  18.229 -0.1772 -0.0563  0.1145
   32SAPC  H12B 4232   1.874   3.885  18.141 -0.9858 -0.7847  0.9401
   32SAPC   C13 4233   1.689   3.720  18.028  0.2329  0.1166  0.7435
   32SAPC  H13A 4234   1.656   3.822  18.016  1.1780  0.1741 -2.1347
   32SAPC  H13B 4235   1.648   3.674  17.939  0.6509 -0.3398  0.7828
   32SAPC  H13C 4236   1.659   3.667  18.117 -3.3189 -1.1940 -1.0420
   32SAPC   C14 4237   1.883   3.787  17.890 -0.0104  0.3031  0.3610
   32SAPC  H14A 4238   1.885   3.895  17.887 -2.3455  0.3898 -0.0426
   32SAPC  H14B 4239   1.977   3.746  17.856 -0.3486  0.2719 -0.5822
   32SAPC  H14C 4240   1.815   3.769  17.808  0.5746  0.4492 -0.1676
   32SAPC   C15 4241   1.880   3.572  18.015  0.4963  0.0570 -0.7795
   32SAPC  H15A 4242   1.823   3.535  18.098 -0.9384  4.3790  0.4243
   32SAPC  H15B 4243   1.847   3.518  17.927  0.8242 -0.7563 -0.4135
   32SAPC  H15C 4244   1.987   3.555  18.021  0.6181  1.0595  0.2372
   32SAPC   C11 4245   2.063   3.779  18.163 -0.2371 -0.3944  0.4982
   32SAPC  H11A 4246   2.098   3.675  18.175  1.1767  0.0686  0.6695
   32SAPC  H11B 4247   2.090   3.823  18.262  1.8434  1.8598 -0.9495
   32SAPC     P 4248   2.148   3.998  18.051 -0.1719  0.0863  0.3309
   32SAPC   O13 4249   2.048   4.055  17.956  0.9808  0.0697  0.1017
   32SAPC   O14 4250   2.143   4.041  18.194 -0.1438 -0.4518  0.1894
   32SAPC   O12 4251   2.130   3.836  18.053  0.1049 -0.1230 -0.2211
   32SAPC   O11 4252   2.289   4.035  18.004  0.7211  0.1884 -0.5194
   32SAPC    C1 4253   2.382   3.935  17.955  0.6133 -0.4648 -0.3534
   32SAPC    HA 4254   2.329   3.853  17.902 -2.0439 -0.6829  2.3539
   32SAPC    HB 4255   2.440   3.995  17.882 -1.3627  1.0308 -0.7583
   32SAPC    C2 4256   2.475   3.871  18.066  0.2725  0.1895 -0.1567
   32SAPC    HS 4257   2.421   3.792  18.123 -0.4240  0.6934 -0.1031
   32SAPC   O21 4258   2.531   3.971  18.147 -0.0955  0.5199 -0.4342
   32SAPC   C21 4259   2.529   3.965  18.278 -0.5278 -0.6045 -0.6636
   32SAPC   O22 4260   2.459   3.892  18.345  0.1335  0.8176 -0.9179
   32SAPC   C22 4261   2.643   4.065  18.339  0.7562  0.0855  0.6563
   32SAPC   H2R 4262   2.742   4.023  18.314 -0.5753 -2.1899 -1.2073
   32SAPC   H2S 4263   2.637   4.155  18.273 -1.7053  0.7926  1.7107
   32SAPC    C3 4264   2.580   3.777  17.996 -0.7925  0.1805  0.4238
   32SAPC    HX 4265   2.602   3.829  17.899 -0.8889  1.1682  0.9150
   32SAPC    HY 4266   2.530   3.681  17.970 -1.8288  0.7431  0.2603
   32SAPC   O31 4267   2.703   3.761  18.068  0.5530  0.8359  0.2848
   32SAPC   C31 4268   2.710   3.667  18.160 -0.4619  0.0405  0.0144
   32SAPC   O32 4269   2.623   3.592  18.192  0.8182 -0.5859 -0.6526
   32SAPC   C32 4270   2.849   3.681  18.237  0.3345 -0.2432  0.8956
   32SAPC   H2X 4271   2.907   3.587  18.222  0.4306 -0.0905  0.2782
   32SAPC   H2Y 4272   2.814   3.697  18.341 -0.5858  0.4405  0.4948
   32SAPC   C23 4273   2.619   4.110  18.480  1.2227 -0.2707 -0.5430
   32SAPC   H3R 4274   2.580   4.025  18.540  0.4408 -0.4952 -1.3569
   32SAPC   H3S 4275   2.549   4.196  18.489  0.8966 -0.5069 -0.8654
   32SAPC   C24 4276   2.749   4.148  18.552 -0.0090 -0.4893  0.8229
   32SAPC   H4R 4277   2.803   4.207  18.475 -2.5318  0.9172  0.0497
   32SAPC   H4S 4278   2.818   4.060  18.555  2.6769  1.4346 -0.3312
   32SAPC   C25 4279   2.744   4.217  18.685  0.7696 -0.2497 -0.0508
   32SAPC   H5R 4280   2.644   4.196  18.726  1.2726 -0.9572  0.8625
   32SAPC   C26 4281   2.829   4.288  18.756  0.2564 -0.4251 -0.5156
   32SAPC   H6R 4282   2.795   4.327  18.853  0.0661 -0.3679 -0.6048
   32SAPC   C27 4283   2.970   4.327  18.719  0.8191 -0.1125  0.6667
   32SAPC   H7R 4284   2.983   4.326  18.608  0.9027 -1.1559  0.6745
   32SAPC   H7S 4285   3.033   4.241  18.750 -0.0760 -1.4709 -1.0793
   32SAPC   C28 4286   3.028   4.451  18.767 -0.0741 -0.0855 -0.8143
   32SAPC   H8R 4287   3.033   4.535  18.697 -1.3119 -1.1550 -2.2454
   32SAPC   C29 4288   3.095   4.462  18.885 -0.4860  0.1352 -0.0908
   32SAPC   H9R 4289   3.147   4.556  18.908 -1.2845  1.1237 -2.0710
   32SAPC  C210 4290   3.125   4.355  18.991  0.2654  0.1410 -0.0623
   32SAPC  H10R 4291   3.068   4.262  18.970  0.4382  0.2232 -0.9417
   32SAPC  H10S 4292   3.078   4.395  19.083  0.1959  3.1638 -1.3108
   32SAPC  C211 4293   3.269   4.321  19.012  0.1493  0.0610 -0.7915
   32SAPC  H11R 4294   3.324   4.302  18.918 -0.1458 -1.0701 -0.7518
   32SAPC  C212 4295   3.345   4.311  19.124 -0.1286  0.4129 -0.3050
   32SAPC  H12R 4296   3.447   4.273  19.108 -0.9841 -1.5719 -1.5015
   32SAPC  C213 4297   3.310   4.327  19.264  0.2210  0.4097 -0.6168
   32SAPC  H13R 4298   3.231   4.405  19.261 -0.1970 -0.0318 -1.4759
   32SAPC  H13S 4299   3.402   4.358  19.318  1.5854 -2.1045 -1.3076
   32SAPC  C214 4300   3.246   4.202  19.321  1.1444 -0.0585  0.1477
   32SAPC  H14R 4301   3.158   4.170  19.264  0.2415  1.7626  0.4707
   32SAPC  C215 4302   3.264   4.141  19.440  0.2511  0.0700 -0.0779
   32SAPC  H15R 4303   3.197   4.056  19.462  0.1620  0.3145  0.6431
   32SAPC  C216 4304   3.363   4.191  19.539  0.4784 -0.1962 -0.1560
   32SAPC  H16R 4305   3.315   4.275  19.595  0.5485  0.5043 -1.1225
   32SAPC  H16S 4306   3.457   4.212  19.485 -0.5556  1.8960 -1.2850
   32SAPC  C217 4307   3.407   4.080  19.635 -0.3033 -0.7442  0.2014
   32SAPC  H17R 4308   3.448   3.997  19.572  0.1164  0.1117 -0.6798
   32SAPC  H17S 4309   3.317   4.041  19.687 -0.6796  1.0599  0.9530
   32SAPC  C218 4310   3.499   4.127  19.750 -0.7893  0.2849 -0.1661
   32SAPC  H18R 4311   3.511   4.049  19.829 -3.1308 -0.0881 -0.0918
   32SAPC  H18S 4312   3.443   4.204  19.807 -0.9126  0.3620 -0.3932
   32SAPC  C219 4313   3.641   4.168  19.704  0.8142 -0.1258 -0.1346
   32SAPC  H19R 4314   3.634   4.208  19.600 -0.5610  1.7250  0.6164
   32SAPC  H19S 4315   3.707   4.079  19.695  0.7159 -0.4118  1.6365
   32SAPC  C220 4316   3.701   4.269  19.792 -1.0747  0.1725 -0.7166
   32SAPC  H20R 4317   3.715   4.225  19.893 -0.1065  0.0474 -0.8918
   32SAPC  H20S 4318   3.622   4.347  19.803 -0.3524  0.7913  0.3429
   32SAPC  H20T 4319   3.795   4.312  19.751 -0.2833 -0.8551 -0.0375
   32SAPC   C33 4320   2.927   3.809  18.196  0.0419  0.8380  1.1936
   32SAPC   H3X 4321   2.856   3.894  18.186 -0.6534  0.0897 -0.7414
   32SAPC   H3Y 4322   2.968   3.784  18.096 -0.4294 -2.8620  1.7663
   32SAPC   C34 4323   3.032   3.842  18.299 -0.3628  0.5740 -0.1323
   32SAPC   H4X 4324   3.111   3.764  18.294 -0.2084  0.6613  0.7689
   32SAPC   H4Y 4325   2.992   3.828  18.402 -0.1138  1.8577  0.1598
   32SAPC   C35 4326   3.095   3.979  18.285  0.2545  0.7656  0.1176
   32SAPC   H5X 4327   3.012   4.053  18.300 -0.9460 -0.7840  1.6085
   32SAPC   H5Y 4328   3.131   3.987  18.180  0.3822 -1.5460 -0.0487
   32SAPC   C36 4329   3.202   4.006  18.382 -0.0922 -0.0283 -0.4444
   32SAPC   H6X 4330   3.277   3.926  18.364 -1.9682 -1.9994 -0.0491
   32SAPC   H6Y 4331   3.167   4.000  18.488  2.1079  0.4019  0.3602
   32SAPC   C37 4332   3.266   4.143  18.356  0.8687  0.3615  0.1296
   32SAPC   H7X 4333   3.186   4.209  18.316  0.1868 -1.2879 -1.3870
   32SAPC   H7Y 4334   3.335   4.135  18.269 -0.8751 -2.7433 -1.1399
   32SAPC   C38 4335   3.327   4.209  18.478  0.0474  0.8062  0.0995
   32SAPC   H8X 4336   3.254   4.215  18.562 -0.0120  1.8566 -0.0035
   32SAPC   H8Y 4337   3.342   4.317  18.456  2.0266  0.6483  0.5277
   32SAPC   C39 4338   3.460   4.142  18.532 -0.3938  0.3937  0.7691
   32SAPC   H9X 4339   3.541   4.189  18.472 -1.5320 -0.6802 -1.7426
   32SAPC   H9Y 4340   3.451   4.037  18.497 -1.7499  0.6567  0.2498
   32SAPC  C310 4341   3.467   4.156  18.687 -0.0834 -0.8826  0.8616
   32SAPC  H10X 4342   3.378   4.101  18.726  0.2206 -1.3050  0.9690
   32SAPC  H10Y 4343   3.456   4.263  18.714  0.2620 -0.1166 -1.7908
   32SAPC  C311 4344   3.602   4.106  18.749 -0.0580  0.2649  0.0456
   32SAPC  H11X 4345   3.605   3.995  18.742 -3.2452  0.0746  0.1071
   32SAPC  H11Y 4346   3.594   4.128  18.857  0.7573  1.7006 -0.1518
   32SAPC  C312 4347   3.725   4.184  18.696 -0.3746 -0.2467  0.1095
   32SAPC  H12X 4348   3.745   4.162  18.589 -2.0242  0.6444 -0.4158
   32SAPC  H12Y 4349   3.812   4.142  18.751 -0.1758  1.4991  1.2273
   32SAPC  C313 4350   3.721   4.338  18.719  0.0433 -0.2592  1.1377
   32SAPC  H13X 4351   3.683   4.349  18.824 -0.2894  0.8311  0.9175
   32SAPC  H13Y 4352   3.655   4.375  18.638  1.2261 -2.6106 -1.0075
   32SAPC  C314 4353   3.856   4.410  18.711  0.6530  0.2549 -0.0494
   32SAPC  H14X 4354   3.904   4.391  18.612  0.0763 -2.4539  0.1300
   32SAPC  H14Y 4355   3.929   4.367  18.782  0.6555 -0.5293 -0.5236
   32SAPC  C315 4356   3.845   4.563  18.729 -0.4763  0.4396 -0.2596
   32SAPC  H15X 4357   3.804   4.588  18.829 -0.2595  1.2716 -0.3779
   32SAPC  H15Y 4358   3.782   4.598  18.644 -0.0473 -0.7467 -1.1007
   32SAPC  C316 4359   3.987   4.632  18.716 -0.5082  0.1538 -0.4879
   32SAPC  H16X 4360   4.025   4.612  18.613 -0.3151 -1.4022 -0.1461
   32SAPC  H16Y 4361   4.047   4.583  18.796 -3.7200 -2.1865  0.7165
   32SAPC  C317 4362   3.985   4.789  18.735  0.4573 -0.2335 -0.6597
   32SAPC  H17X 4363   4.091   4.821  18.723  0.2141  1.1655  0.6921
   32SAPC  H17Y 4364   3.958   4.821  18.838 -2.1809 -2.8979 -0.4101
   32SAPC  C318 4365   3.904   4.866  18.630 -0.0169  0.3524  0.3848
   32SAPC  H18X 4366   3.951   4.859  18.530 -1.2382  1.4527 -0.2988
   32SAPC  H18Y 4367   3.909   4.977  18.637 -2.0110  0.5804 -1.0135
   32SAPC  H18Z 4368   3.799   4.832  18.625  0.5442 -1.3275 -0.8717
   33POPC     N 4369   4.341   0.329  23.884  0.0959 -0.5508  0.4734
   33POPC   C12 4370   4.347   0.381  23.741 -0.1995  0.1955  0.3012
   33POPC  H12A 4371   4.419   0.461  23.748 -0.5180  0.3445  4.1379
   33POPC  H12B 4372   4.250   0.421  23.716 -0.1677 -0.6817 -1.4142
   33POPC   C13 4373   4.478   0.284  23.935  0.4764 -0.6653  0.2113
   33POPC  H13A 4374   4.532   0.377  23.935 -3.1563  1.6547 -0.8576
   33POPC  H13B 4375   4.463   0.229  24.026 -1.7219  1.2167  1.0877
   33POPC  H13C 4376   4.523   0.218  23.862  1.5459  1.2104 -0.8912
   33POPC   C14 4377   4.303   0.446  23.966 -0.3527 -0.6547 -0.1875
   33POPC  H14A 4378   4.203   0.472  23.935 -0.1096  1.7779  0.8457
   33POPC  H14B 4379   4.288   0.414  24.068  0.0629 -1.7103 -0.4486
   33POPC  H14C 4380   4.361   0.537  23.958 -0.9374  0.0333  2.4223
   33POPC   C15 4381   4.242   0.219  23.915  0.0360  0.4457  0.4160
   33POPC  H15A 4382   4.260   0.134  23.851 -1.2141  0.6956 -0.3154
   33POPC  H15B 4383   4.143   0.253  23.887 -0.3578 -0.9718  0.0171
   33POPC  H15C 4384   4.245   0.202  24.022 -0.1651  5.4755  1.4482
   33POPC   C11 4385   4.393   0.278  23.633  0.4053  0.2177  0.0946
   33POPC  H11A 4386   4.372   0.319  23.532 -0.0357  1.9315  0.8308
   33POPC  H11B 4387   4.336   0.183  23.637  1.9487 -0.7418  0.0909
   33POPC     P 4388   4.642   0.360  23.613 -0.4374 -0.2204 -0.2187
   33POPC   O13 4389   4.628   0.466  23.711 -0.1886 -0.0739 -0.2331
   33POPC   O14 4390   4.627   0.399  23.474 -0.6110 -0.4032 -0.2672
   33POPC   O12 4391   4.533   0.248  23.645 -0.5863  0.1484  0.7369
   33POPC   O11 4392   4.778   0.282  23.630 -0.0279 -0.7418 -0.3707
   33POPC    C1 4393   4.822   0.210  23.741  0.9720  0.1311 -0.6734
   33POPC    HA 4394   4.765   0.235  23.834  1.3996 -0.0485 -0.3569
   33POPC    HB 4395   4.808   0.100  23.734 -2.5375  0.3959  0.2501
   33POPC    C2 4396   4.975   0.226  23.762  0.3809 -0.4582  0.6881
   33POPC    HS 4397   5.005   0.172  23.855  0.8953  1.9162  1.9941
   33POPC   O21 4398   5.011   0.367  23.786 -0.0795  0.1521 -0.1882
   33POPC   C21 4399   4.991   0.419  23.912 -0.3761 -0.2204 -0.4178
   33POPC   O22 4400   4.964   0.349  24.011 -0.6767  0.3657  0.2137
   33POPC   C22 4401   4.997   0.572  23.894 -0.1297 -0.0294 -0.2401
   33POPC   H2R 4402   4.912   0.603  23.830 -1.3542 -0.5132  1.0852
   33POPC   H2S 4403   5.094   0.587  23.843  0.9434 -2.4137  0.9607
   33POPC    C3 4404   5.055   0.150  23.652 -0.1491  0.1111  0.5979
   33POPC    HX 4405   4.996   0.165  23.559 -0.5460  0.7232  0.9442
   33POPC    HY 4406   5.073   0.045  23.685  1.2659 -0.1652 -0.9272
   33POPC   O31 4407   5.186   0.206  23.641 -0.0056 -0.4770  0.5206
   33POPC   C31 4408   5.244   0.169  23.522  0.7156  0.2592 -0.3822
   33POPC   O32 4409   5.193   0.095  23.446 -0.5613  0.1916 -0.0244
   33POPC   C32 4410   5.385   0.220  23.510 -1.3300  0.5777  0.7164
   33POPC   H2X 4411   5.442   0.194  23.602 -0.4209  0.4887  0.1432
   33POPC   H2Y 4412   5.382   0.331  23.499  3.1332  0.7470 -1.3551
   33POPC   C23 4413   4.992   0.637  24.039  0.7159 -0.0865  0.4966
   33POPC   H3R 4414   5.085   0.617  24.096  1.0874 -1.4351 -0.5178
   33POPC   H3S 4415   4.908   0.607  24.105  1.4294 -1.0725  0.9894
   33POPC   C24 4416   4.988   0.793  24.024  0.5082  0.2402  0.4793
   33POPC   H4R 4417   4.902   0.828  23.963  1.7356  2.1243 -0.2569
   33POPC   H4S 4418   5.075   0.833  23.967 -0.5585  0.6924 -0.8850
   33POPC   C25 4419   4.977   0.860  24.158 -0.2406  0.4514  1.2054
   33POPC   H5R 4420   5.063   0.836  24.224  1.9350  1.8981 -0.8900
   33POPC   H5S 4421   4.891   0.823  24.217  1.2277  0.4723  3.4631
   33POPC   C26 4422   4.978   1.016  24.149  0.1354  0.4353  0.2242
   33POPC   H6R 4423   4.971   1.056  24.253 -1.6688  0.8053 -0.0135
   33POPC   H6S 4424   4.889   1.039  24.087 -0.6542 -2.2621  0.2027
   33POPC   C27 4425   5.101   1.078  24.091 -0.7927  0.1560  0.0295
   33POPC   H7R 4426   5.091   1.054  23.983 -2.4682 -1.3826  0.4963
   33POPC   H7S 4427   5.192   1.030  24.133 -1.1098 -1.1234 -0.7136
   33POPC   C28 4428   5.122   1.229  24.099 -0.5537 -0.0742  0.2713
   33POPC   H8R 4429   5.035   1.292  24.073  1.2565  2.3529 -0.2584
   33POPC   H8S 4430   5.192   1.259  24.018 -2.2874  2.2479 -0.4862
   33POPC   C29 4431   5.160   1.270  24.240 -0.8653  0.6184  0.2223
   33POPC   H91 4432   5.073   1.267  24.307 -0.7692  0.7694  0.3564
   33POPC  C210 4433   5.280   1.299  24.295  0.9953 -0.7867 -1.0518
   33POPC  H101 4434   5.282   1.336  24.399 -1.8769 -0.9381 -0.8502
   33POPC  C211 4435   5.409   1.313  24.220 -0.0266 -0.5130 -0.2203
   33POPC  H11R 4436   5.487   1.378  24.266 -0.2612 -0.1921 -0.2736
   33POPC  H11S 4437   5.392   1.352  24.117 -0.1706 -0.8215 -0.3126
   33POPC  C212 4438   5.495   1.183  24.201 -0.1582  0.3149  0.1682
   33POPC  H12R 4439   5.430   1.100  24.167  3.5131 -3.3731  1.2324
   33POPC  H12S 4440   5.543   1.146  24.294  0.1032  1.4252  0.4961
   33POPC  C213 4441   5.593   1.205  24.084 -0.3214 -0.4151 -0.1196
   33POPC  H13R 4442   5.672   1.277  24.115  0.0171 -0.8331  0.0047
   33POPC  H13S 4443   5.546   1.259  24.000  1.8336  4.0259  1.2462
   33POPC  C214 4444   5.661   1.079  24.039  0.5468 -0.1327  0.2102
   33POPC  H14R 4445   5.580   1.003  24.035  0.5512 -0.1015 -0.7283
   33POPC  H14S 4446   5.731   1.043  24.118 -0.7043 -0.9102  0.9984
   33POPC  C215 4447   5.734   1.073  23.904 -0.0158  0.4647 -0.3814
   33POPC  H15R 4448   5.653   1.083  23.829 -0.1228 -1.4298 -0.5830
   33POPC  H15S 4449   5.763   0.966  23.897 -1.6666  0.0155 -0.8024
   33POPC  C216 4450   5.837   1.175  23.896 -0.0920 -0.2728 -0.7701
   33POPC  H16R 4451   5.926   1.158  23.961 -0.7031  0.4105  0.2692
   33POPC  H16S 4452   5.793   1.275  23.911 -0.9169 -0.7399  0.0461
   33POPC  C217 4453   5.898   1.187  23.751  0.0261  0.4404 -0.3230
   33POPC  H17R 4454   5.813   1.197  23.681 -1.0639 -1.4254  0.6738
   33POPC  H17S 4455   5.963   1.101  23.727  3.3093  2.6764 -0.1895
   33POPC  C218 4456   5.977   1.316  23.738  0.4823 -0.2025  0.8249
   33POPC  H18R 4457   6.051   1.311  23.656 -0.1682 -0.4183  0.2435
   33POPC  H18S 4458   6.046   1.322  23.825  1.3946 -0.1853  0.1215
   33POPC  H18T 4459   5.927   1.415  23.733  1.4885  0.4037  2.0287
   33POPC   C33 4460   5.450   0.174  23.381  0.3927 -0.1850  0.1364
   33POPC   H3X 4461   5.379   0.169  23.296 -0.2260 -2.1441  0.7127
   33POPC   H3Y 4462   5.483   0.068  23.382 -0.9596 -0.6302 -0.8790
   33POPC   C34 4463   5.557   0.278  23.341  0.7437  0.3331  0.0823
   33POPC   H4X 4464   5.629   0.278  23.425  0.8843 -0.0479 -0.0396
   33POPC   H4Y 4465   5.506   0.377  23.348 -2.1967 -0.8958 -2.0343
   33POPC   C35 4466   5.621   0.251  23.208 -0.0267  0.1504 -0.5967
   33POPC   H5X 4467   5.671   0.339  23.163 -1.3040  0.4277 -1.5286
   33POPC   H5Y 4468   5.536   0.224  23.141  0.5093 -1.2526 -0.7699
   33POPC   C36 4469   5.728   0.140  23.222 -0.0869 -0.3429 -0.0495
   33POPC   H6X 4470   5.758   0.094  23.126  1.6888  1.5542 -0.4653
   33POPC   H6Y 4471   5.692   0.071  23.302 -0.4410  1.3613  1.3340
   33POPC   C37 4472   5.869   0.190  23.288 -0.5880 -0.2453  0.0132
   33POPC   H7X 4473   5.938   0.102  23.283 -0.0720  0.0455  1.4027
   33POPC   H7Y 4474   5.831   0.217  23.389  1.5957  0.2310  0.7561
   33POPC   C38 4475   5.961   0.306  23.228  0.7939  0.4361 -0.7145
   33POPC   H8X 4476   5.890   0.389  23.208  1.7110  1.5288  0.4047
   33POPC   H8Y 4477   5.992   0.283  23.124  1.2829 -1.6825 -0.1470
   33POPC   C39 4478   6.077   0.338  23.321  0.0722  1.0289 -0.6247
   33POPC   H9X 4479   6.129   0.422  23.270  0.0178  1.2889 -0.2587
   33POPC   H9Y 4480   6.144   0.250  23.323 -2.3985 -0.9691  1.7264
   33POPC  C310 4481   6.035   0.375  23.464  0.7029 -0.3532 -0.3414
   33POPC  H10X 4482   5.998   0.285  23.518 -2.2099  1.4473  0.9504
   33POPC  H10Y 4483   5.943   0.434  23.441  1.0194 -0.3770 -1.8162
   33POPC  C311 4484   6.133   0.456  23.555 -0.4686  0.0147  0.7006
   33POPC  H11X 4485   6.173   0.546  23.503 -0.6587  0.1540  0.7951
   33POPC  H11Y 4486   6.224   0.393  23.563  0.7620  1.6733  0.3081
   33POPC  C312 4487   6.090   0.492  23.686  0.2353  0.1259 -0.6968
   33POPC  H12X 4488   6.166   0.549  23.744 -2.2321  0.5107  2.4097
   33POPC  H12Y 4489   6.074   0.399  23.745  1.7924 -0.6389 -1.4083
   33POPC  C313 4490   5.960   0.569  23.677  0.0600 -0.5152  0.1232
   33POPC  H13X 4491   5.878   0.512  23.629 -0.7184  1.0276 -0.4459
   33POPC  H13Y 4492   5.992   0.651  23.609  0.8993 -1.8467 -1.1634
   33POPC  C314 4493   5.917   0.627  23.820 -0.3735  0.1254  0.1675
   33POPC  H14X 4494   5.931   0.544  23.893  1.7357  2.4658  2.6506
   33POPC  H14Y 4495   5.809   0.651  23.824  0.1642  2.8574  0.3218
   33POPC  C315 4496   5.999   0.752  23.863 -1.6451  0.2066 -0.1469
   33POPC  H15X 4497   5.980   0.844  23.804  2.8396  0.3603 -1.8102
   33POPC  H15Y 4498   6.106   0.728  23.842 -0.9772  1.9486  1.0084
   33POPC  C316 4499   5.978   0.794  24.003  0.6922 -0.0908  0.4326
   33POPC  H16X 4500   6.012   0.722  24.080 -1.4239 -0.4199  1.1289
   33POPC  H16Y 4501   5.871   0.810  24.028  0.3416 -1.9265  0.2197
   33POPC  H16Z 4502   6.020   0.894  24.025 -2.0244  1.3307 -0.3744
   34POPC     N 4503   4.153   3.155  22.506 -0.6560 -0.9683  1.0713
   34POPC   C12 4504   4.017   3.196  22.432  0.1397 -0.2085  0.3311
   34POPC  H12A 4505   4.049   3.281  22.375  0.6153 -2.1855 -2.5600
   34POPC  H12B 4506   3.939   3.228  22.499  0.5390 -1.4474  1.4453
   34POPC   C13 4507   4.196   3.261  22.587 -0.4616 -0.6062 -0.6932
   34POPC  H13A 4508   4.290   3.241  22.637 -1.5470 -0.1870  1.6678
   34POPC  H13B 4509   4.207   3.353  22.531  0.4184 -0.7946 -0.8379
   34POPC  H13C 4510   4.134   3.300  22.667  1.3061  3.4887 -1.0348
   34POPC   C14 4511   4.134   3.042  22.587 -0.2274  0.2037 -0.0550
   34POPC  H14A 4512   4.066   3.067  22.667 -0.8265  0.7756 -0.7305
   34POPC  H14B 4513   4.085   2.958  22.539 -0.0022 -0.2393  0.4815
   34POPC  H14C 4514   4.228   3.010  22.629  0.1605  0.5304 -0.6681
   34POPC   C15 4515   4.257   3.124  22.399 -0.7692  0.3647 -0.5549
   34POPC  H15A 4516   4.229   3.042  22.335  2.6384 -4.1385  3.0433
   34POPC  H15B 4517   4.350   3.092  22.444 -0.1583  1.2557 -1.1355
   34POPC  H15C 4518   4.290   3.213  22.346  2.5525  0.4928  1.4477
   34POPC   C11 4519   3.954   3.088  22.335  0.4878 -0.4579 -0.7201
   34POPC  H11A 4520   3.848   3.119  22.328  0.6386 -0.0583 -1.3114
   34POPC  H11B 4521   3.940   2.987  22.379  1.8995 -0.6805 -0.7385
   34POPC     P 4522   4.030   3.200  22.110 -0.0971  0.1711  0.2449
   34POPC   O13 4523   4.147   3.180  22.019  0.6175  0.2077  0.1848
   34POPC   O14 4524   4.023   3.327  22.188  0.0949  0.0602 -0.1362
   34POPC   O12 4525   4.024   3.079  22.212 -0.5549  0.2157 -0.2723
   34POPC   O11 4526   3.900   3.180  22.025  0.4216  0.6981 -0.0048
   34POPC    C1 4527   3.818   3.066  22.037 -0.2084 -0.3337 -0.3163
   34POPC    HA 4528   3.778   3.052  22.139 -2.7503 -1.5765 -1.3953
   34POPC    HB 4529   3.876   2.973  22.017  1.3100  1.0623 -3.0486
   34POPC    C2 4530   3.713   3.073  21.928  0.1518 -0.2239 -0.3634
   34POPC    HS 4531   3.757   3.078  21.826  0.4513  2.0905 -0.1845
   34POPC   O21 4532   3.623   3.182  21.939  0.1665 -0.0965  0.3472
   34POPC   C21 4533   3.564   3.234  21.834 -0.2495 -0.5547  0.3714
   34POPC   O22 4534   3.581   3.203  21.721  0.0693  0.0042  0.4060
   34POPC   C22 4535   3.459   3.344  21.884 -0.2888  0.1259 -0.5449
   34POPC   H2R 4536   3.511   3.416  21.951  1.4104 -1.4960 -0.0228
   34POPC   H2S 4537   3.385   3.290  21.946  0.8406 -0.0942  0.6442
   34POPC    C3 4538   3.644   2.927  21.924 -0.6380  0.5029  0.0018
   34POPC    HX 4539   3.589   2.921  22.021  1.9456  1.5835  1.6285
   34POPC    HY 4540   3.718   2.844  21.916 -0.6707  0.6429 -2.5687
   34POPC   O31 4541   3.537   2.917  21.826 -0.1369 -0.1575  0.4907
   34POPC   C31 4542   3.571   2.861  21.711  0.3206  0.1763 -0.5802
   34POPC   O32 4543   3.680   2.819  21.676 -0.7998  0.3255 -0.7379
   34POPC   C32 4544   3.433   2.848  21.635 -0.5743 -1.3327  0.7225
   34POPC   H2X 4545   3.383   2.945  21.658 -0.0201 -1.2353  1.5789
   34POPC   H2Y 4546   3.373   2.762  21.670  1.0618 -2.6848  0.3088
   34POPC   C23 4547   3.383   3.414  21.771 -0.0090 -0.0354 -0.1077
   34POPC   H3R 4548   3.444   3.430  21.680 -0.6791  0.1037 -0.5446
   34POPC   H3S 4549   3.338   3.513  21.795 -1.4583 -0.4740 -0.8647
   34POPC   C24 4550   3.242   3.351  21.736 -0.6060  0.4637 -0.1352
   34POPC   H4R 4551   3.177   3.428  21.690 -0.2931  0.4043 -0.6904
   34POPC   H4S 4552   3.194   3.320  21.831  0.1952 -2.0282 -0.4744
   34POPC   C25 4553   3.257   3.243  21.623  0.7249  0.0166 -0.8883
   34POPC   H5R 4554   3.342   3.175  21.645 -0.1161 -0.8544 -0.2290
   34POPC   H5S 4555   3.283   3.299  21.530  0.6542  0.7205 -0.4931
   34POPC   C26 4556   3.131   3.163  21.596  0.3294  1.2363 -0.0919
   34POPC   H6R 4557   3.119   3.096  21.684 -1.0238  1.7747  0.1640
   34POPC   H6S 4558   3.140   3.093  21.511  0.8804  0.3647  0.6662
   34POPC   C27 4559   2.999   3.243  21.579  0.3002 -0.3204  0.4689
   34POPC   H7R 4560   3.001   3.297  21.482 -0.2716 -0.4793  0.3652
   34POPC   H7S 4561   2.981   3.316  21.660 -0.7006 -0.4071  0.3358
   34POPC   C28 4562   2.871   3.154  21.587 -0.2347  0.6558  0.2067
   34POPC   H8R 4563   2.851   3.098  21.681 -0.7081 -1.1131 -0.9091
   34POPC   H8S 4564   2.897   3.074  21.515 -1.5925 -1.2885  1.7641
   34POPC   C29 4565   2.756   3.228  21.549  0.2636 -0.0626  0.1596
   34POPC   H91 4566   2.778   3.321  21.493 -0.4073 -0.9097 -1.5756
   34POPC  C210 4567   2.631   3.206  21.577  0.5138 -0.3762 -0.8116
   34POPC  H101 4568   2.552   3.277  21.552 -0.2084  0.7289  3.8389
   34POPC  C211 4569   2.584   3.074  21.634  0.5837  0.0940 -0.6525
   34POPC  H11R 4570   2.517   3.089  21.721 -0.7924 -1.1793 -1.4420
   34POPC  H11S 4571   2.666   3.004  21.662 -0.1758 -0.1402  1.0714
   34POPC  C212 4572   2.482   3.010  21.531 -0.6553 -0.5133 -0.0976
   34POPC  H12R 4573   2.463   2.904  21.560 -2.5057 -0.7461 -1.9142
   34POPC  H12S 4574   2.526   3.000  21.430  2.2966 -2.7273  1.2551
   34POPC  C213 4575   2.337   3.074  21.513 -0.5599  0.1553  0.3011
   34POPC  H13R 4576   2.321   3.075  21.403 -0.8073 -2.0399  0.2790
   34POPC  H13S 4577   2.329   3.177  21.554 -0.1046 -0.0869  1.0170
   34POPC  C214 4578   2.239   2.975  21.575  0.7690 -0.4941  0.8487
   34POPC  H14R 4579   2.260   2.946  21.680  0.5134 -3.8721  0.0855
   34POPC  H14S 4580   2.244   2.881  21.515 -0.3334  0.9861 -1.7371
   34POPC  C215 4581   2.095   3.035  21.551  0.2589  0.3492  0.5593
   34POPC  H15R 4582   2.024   2.950  21.541 -1.6010  2.0055 -1.4449
   34POPC  H15S 4583   2.099   3.082  21.450  1.0998 -2.1049 -0.6048
   34POPC  C216 4584   2.050   3.138  21.655 -0.8669  0.4685  1.0872
   34POPC  H16R 4585   1.981   3.210  21.607  0.4106  1.5777  0.8630
   34POPC  H16S 4586   2.140   3.195  21.687 -0.5675  0.5826  0.0785
   34POPC  C217 4587   1.976   3.074  21.778 -0.0381  0.3396 -0.3352
   34POPC  H17R 4588   2.055   3.026  21.840 -0.1869 -0.2459 -0.5929
   34POPC  H17S 4589   1.902   3.001  21.738 -0.4266 -0.3399  1.5203
   34POPC  C218 4590   1.915   3.186  21.862  0.5096  0.0085  0.4856
   34POPC  H18R 4591   1.812   3.209  21.826  1.3509  2.2687 -0.7139
   34POPC  H18S 4592   1.981   3.272  21.837  0.5057 -0.4998 -1.4266
   34POPC  H18T 4593   1.905   3.158  21.969 -0.4029  0.8559  0.6360
   34POPC   C33 4594   3.466   2.849  21.486 -0.1966  0.3453  0.1143
   34POPC   H3X 4595   3.378   2.826  21.422  0.1787  0.3656 -0.4173
   34POPC   H3Y 4596   3.534   2.764  21.464  2.0575  2.4236 -1.4586
   34POPC   C34 4597   3.521   2.984  21.428 -0.8764  0.8850  0.1895
   34POPC   H4X 4598   3.609   3.016  21.488  0.0604 -1.1045 -0.0355
   34POPC   H4Y 4599   3.450   3.064  21.459 -0.0017  1.4822  0.6787
   34POPC   C35 4600   3.550   2.980  21.271  0.4615 -0.4831 -0.9355
   34POPC   H5X 4601   3.462   2.965  21.205 -0.3051 -0.3665  0.0261
   34POPC   H5Y 4602   3.613   2.890  21.262  1.9242  0.3701  0.2891
   34POPC   C36 4603   3.642   3.104  21.235  0.3309  0.8095  0.5687
   34POPC   H6X 4604   3.728   3.108  21.306  1.2237 -0.4404 -0.4029
   34POPC   H6Y 4605   3.577   3.193  21.224 -0.9086 -0.1638 -0.2551
   34POPC   C37 4606   3.706   3.083  21.097 -0.3175  0.7779  0.1978
   34POPC   H7X 4607   3.754   2.983  21.104  0.5218  1.1712  0.1466
   34POPC   H7Y 4608   3.785   3.161  21.086 -0.4345  0.8705  0.0086
   34POPC   C38 4609   3.610   3.102  20.977  0.4489  0.0051  0.1811
   34POPC   H8X 4610   3.583   3.209  20.986 -1.8375 -0.5971  1.0712
   34POPC   H8Y 4611   3.516   3.045  20.989 -0.3261  1.2971  0.3606
   34POPC   C39 4612   3.679   3.083  20.840  0.4051 -0.2824 -0.0948
   34POPC   H9X 4613   3.789   3.100  20.851  0.4067 -1.2766  1.9106
   34POPC   H9Y 4614   3.655   3.175  20.783 -0.5341  0.0658  0.8213
   34POPC  C310 4615   3.634   2.960  20.765 -0.5416 -0.0900 -1.0336
   34POPC  H10X 4616   3.524   2.952  20.772 -0.7592  2.5273 -0.3845
   34POPC  H10Y 4617   3.673   2.879  20.831 -2.0161  1.1373  1.5014
   34POPC  C311 4618   3.686   2.944  20.626 -0.3314  0.1495 -0.5491
   34POPC  H11X 4619   3.796   2.956  20.638 -0.2242  0.0364 -1.3802
   34POPC  H11Y 4620   3.664   3.037  20.568 -0.2993  0.2701 -0.3692
   34POPC  C312 4621   3.646   2.818  20.555  0.2496 -0.2698 -0.0503
   34POPC  H12X 4622   3.696   2.809  20.457 -0.6513 -0.7205 -0.4853
   34POPC  H12Y 4623   3.535   2.822  20.545  0.0559 -1.3345  1.2547
   34POPC  C313 4624   3.699   2.688  20.631  0.0450 -0.3782 -0.1067
   34POPC  H13X 4625   3.629   2.695  20.717 -2.1859 -1.4988 -1.7211
   34POPC  H13Y 4626   3.806   2.700  20.659  0.2005  3.2627 -1.7008
   34POPC  C314 4627   3.673   2.551  20.556  0.1311  0.9177 -1.0191
   34POPC  H14X 4628   3.566   2.558  20.528  0.1141  0.5225 -1.0481
   34POPC  H14Y 4629   3.675   2.472  20.633 -0.1290  1.9383  0.0746
   34POPC  C315 4630   3.777   2.519  20.447 -0.2676 -0.4490 -0.5312
   34POPC  H15X 4631   3.873   2.572  20.468 -0.8458  1.1121 -1.6635
   34POPC  H15Y 4632   3.741   2.569  20.355  1.3955  1.1822 -0.3458
   34POPC  C316 4633   3.785   2.371  20.426  0.0101  0.4316  0.5157
   34POPC  H16X 4634   3.686   2.336  20.390 -0.3744  2.5361 -0.6407
   34POPC  H16Y 4635   3.818   2.317  20.517  0.4435 -0.5455 -0.2082
   34POPC  H16Z 4636   3.850   2.341  20.341 -0.6198 -1.9266  0.8029
   35POPC     N 4637   0.535   2.618  22.090  0.1735 -0.3276  0.1850
   35POPC   C12 4638   0.600   2.488  22.033 -0.3252  0.0189  0.0622
   35POPC  H12A 4639   0.663   2.441  22.107  0.7546  0.8748 -0.2939
   35POPC  H12B 4640   0.651   2.519  21.943  1.9461  1.3407  1.6977
   35POPC   C13 4641   0.633   2.724  22.124 -0.9212  0.6597  0.3594
   35POPC  H13A 4642   0.703   2.695  22.201 -1.3237  0.8872  0.8166
   35POPC  H13B 4643   0.682   2.742  22.029 -2.5432 -0.5109 -0.7647
   35POPC  H13C 4644   0.577   2.810  22.155 -0.0598  1.3501  0.0512
   35POPC   C14 4645   0.444   2.673  21.988  0.1072  0.0254  1.1038
   35POPC  H14A 4646   0.497   2.703  21.899  1.1017  0.0879  1.6979
   35POPC  H14B 4647   0.391   2.583  21.962 -0.1574  0.3886  0.3527
   35POPC  H14C 4648   0.378   2.753  22.020 -0.1537  0.5072 -0.5426
   35POPC   C15 4649   0.453   2.601  22.209 -0.1728  0.3869  0.5338
   35POPC  H15A 4650   0.511   2.554  22.287 -0.5501 -0.6421  0.2124
   35POPC  H15B 4651   0.373   2.534  22.182  1.3548 -1.5070  0.4751
   35POPC  H15C 4652   0.406   2.694  22.236 -1.6234  0.8190 -2.8829
   35POPC   C11 4653   0.505   2.372  21.986 -0.8964  0.1566 -0.2534
   35POPC  H11A 4654   0.462   2.327  22.078  0.8281 -1.1254 -0.0100
   35POPC  H11B 4655   0.569   2.294  21.938  0.1736  1.1449 -0.4781
   35POPC     P 4656   0.323   2.312  21.816  0.3770  0.6640 -0.1647
   35POPC   O13 4657   0.195   2.378  21.777 -0.5390  0.2476  0.5228
   35POPC   O14 4658   0.310   2.191  21.900 -0.8962  0.5656 -0.8321
   35POPC   O12 4659   0.417   2.415  21.886 -0.0065  0.5547 -0.4045
   35POPC   O11 4660   0.394   2.281  21.672  0.8988  0.1712 -0.4024
   35POPC    C1 4661   0.428   2.383  21.579 -0.4763  0.1111  0.0949
   35POPC    HA 4662   0.359   2.470  21.586  0.2669  0.5903  1.9540
   35POPC    HB 4663   0.421   2.334  21.479 -0.5489 -1.7223  0.9594
   35POPC    C2 4664   0.579   2.425  21.590 -0.5078  0.4758 -0.7056
   35POPC    HS 4665   0.596   2.464  21.692 -1.8979 -0.8649  0.0854
   35POPC   O21 4666   0.604   2.520  21.482  0.2625  0.4092  0.2213
   35POPC   C21 4667   0.667   2.632  21.517 -0.3366  0.1088  1.0620
   35POPC   O22 4668   0.696   2.654  21.628 -0.0149  0.2309 -0.2248
   35POPC   C22 4669   0.703   2.721  21.394 -0.6645  0.2806 -0.6753
   35POPC   H2R 4670   0.673   2.827  21.409 -0.4392  0.8348 -3.5180
   35POPC   H2S 4671   0.651   2.695  21.300 -2.5967  1.5644 -0.0267
   35POPC    C3 4672   0.672   2.302  21.572  0.7031  0.0978 -0.2964
   35POPC    HX 4673   0.649   2.259  21.472 -2.8200  2.3728 -0.6358
   35POPC    HY 4674   0.651   2.224  21.648  0.4428  1.1019  0.6854
   35POPC   O31 4675   0.813   2.334  21.562  0.1991  0.1873  0.2564
   35POPC   C31 4676   0.868   2.371  21.678 -0.3021 -0.6842  0.6194
   35POPC   O32 4677   0.803   2.382  21.779 -0.3595  0.0880 -0.3064
   35POPC   C32 4678   1.018   2.386  21.652  0.2457  0.0222  0.1519
   35POPC   H2X 4679   1.065   2.375  21.753 -0.7706  1.9605  0.9003
   35POPC   H2Y 4680   1.042   2.494  21.635 -0.0565  0.1151  0.3077
   35POPC   C23 4681   0.862   2.713  21.366  0.1275 -0.0615  0.6649
   35POPC   H3R 4682   0.879   2.604  21.381 -0.2583 -0.1547  0.4497
   35POPC   H3S 4683   0.918   2.771  21.442  2.8160 -0.9112 -0.5376
   35POPC   C24 4684   0.913   2.756  21.220  0.3024  0.2283 -0.1700
   35POPC   H4R 4685   0.887   2.680  21.143  1.2880 -1.3816  1.0171
   35POPC   H4S 4686   1.024   2.753  21.216  0.2542 -0.6698 -1.2107
   35POPC   C25 4687   0.851   2.894  21.173  0.5874  0.2158  0.2221
   35POPC   H5R 4688   0.837   2.969  21.254  2.2039  0.2825  0.4720
   35POPC   H5S 4689   0.754   2.859  21.131 -0.6851  0.6775  2.5851
   35POPC   C26 4690   0.931   2.963  21.053  0.2728  0.5642 -0.0709
   35POPC   H6R 4691   0.970   2.880  20.991  0.0455 -0.4621  1.1160
   35POPC   H6S 4692   1.004   3.036  21.095 -0.2776  0.6968  0.6682
   35POPC   C27 4693   0.829   3.030  20.960 -0.4729  0.2141  0.1466
   35POPC   H7R 4694   0.767   3.095  21.025 -0.6827  0.6481 -0.4764
   35POPC   H7S 4695   0.765   2.959  20.903  0.6995  0.0206 -0.9800
   35POPC   C28 4696   0.912   3.105  20.853 -0.0360  0.1789  0.3585
   35POPC   H8R 4697   0.842   3.127  20.770  0.2715 -1.7178 -0.4543
   35POPC   H8S 4698   0.982   3.029  20.812  0.9594  2.2017 -1.9052
   35POPC   C29 4699   0.990   3.231  20.894 -0.2485  0.0438 -0.4834
   35POPC   H91 4700   1.009   3.248  21.001  1.2524  0.1153 -0.7410
   35POPC  C210 4701   1.036   3.319  20.808  0.4428 -0.1134  0.0808
   35POPC  H101 4702   1.082   3.414  20.838  4.1035 -0.5971 -3.1968
   35POPC  C211 4703   1.023   3.308  20.657  0.5045 -0.1359 -0.2898
   35POPC  H11R 4704   0.936   3.358  20.610  1.6038  0.1537 -2.1183
   35POPC  H11S 4705   1.016   3.203  20.623 -1.3813 -1.0577  2.5647
   35POPC  C212 4706   1.152   3.368  20.607  0.4546 -0.1544 -0.0187
   35POPC  H12R 4707   1.240   3.326  20.660  0.0254  1.7602  2.3719
   35POPC  H12S 4708   1.157   3.476  20.632  0.2840 -0.5413  1.7991
   35POPC  C213 4709   1.180   3.355  20.454  0.1540  0.7573 -0.1203
   35POPC  H13R 4710   1.259   3.421  20.413  1.3797 -0.4874  0.1477
   35POPC  H13S 4711   1.090   3.392  20.400 -0.1095 -1.4852 -1.3367
   35POPC  C214 4712   1.191   3.211  20.396  0.4782  0.3467  0.2297
   35POPC  H14R 4713   1.094   3.157  20.401  0.2607  0.6476 -0.6340
   35POPC  H14S 4714   1.264   3.152  20.456  0.6336 -1.2755 -1.4822
   35POPC  C215 4715   1.238   3.204  20.256  0.3266 -0.5197  0.2286
   35POPC  H15R 4716   1.331   3.264  20.249  0.2469 -0.5033 -0.7512
   35POPC  H15S 4717   1.164   3.260  20.195 -1.7158 -3.2699 -0.0029
   35POPC  C216 4718   1.271   3.073  20.190  0.6216  0.1026 -0.2560
   35POPC  H16R 4719   1.183   3.009  20.210 -0.2066  0.1997 -3.1658
   35POPC  H16S 4720   1.360   3.020  20.231 -0.5194 -1.5531  0.1981
   35POPC  C217 4721   1.265   3.077  20.031  0.5475  0.2578 -0.0705
   35POPC  H17R 4722   1.173   3.131  20.000 -1.4180 -2.3764  0.8609
   35POPC  H17S 4723   1.260   2.972  19.995  0.6707 -0.1072  0.9268
   35POPC  C218 4724   1.394   3.146  19.975  0.4157  0.3795  0.6087
   35POPC  H18R 4725   1.400   3.255  19.991  0.8491  0.6380 -1.1977
   35POPC  H18S 4726   1.401   3.101  19.874  0.8490 -0.6597  1.0764
   35POPC  H18T 4727   1.469   3.089  20.034 -0.0726 -1.3434 -0.3643
   35POPC   C33 4728   1.074   2.291  21.541 -0.1180 -0.1987 -0.1554
   35POPC   H3X 4729   1.058   2.332  21.438 -0.9313  2.6864  1.0047
   35POPC   H3Y 4730   1.021   2.195  21.558  2.8935 -1.8546  0.5105
   35POPC   C34 4731   1.222   2.245  21.552  0.5547  0.8630  0.4168
   35POPC   H4X 4732   1.240   2.170  21.472  0.3517 -0.2298  1.3673
   35POPC   H4Y 4733   1.238   2.205  21.654  1.7405 -1.3158 -0.5456
   35POPC   C35 4734   1.329   2.349  21.517  0.2048  0.2719  0.3526
   35POPC   H5X 4735   1.339   2.441  21.578 -1.0820  0.4688  0.2852
   35POPC   H5Y 4736   1.304   2.386  21.415  0.4226  0.2814  0.2999
   35POPC   C36 4737   1.466   2.279  21.502 -0.3803 -0.4665 -0.3505
   35POPC   H6X 4738   1.448   2.174  21.474  1.5900 -1.0265  0.3057
   35POPC   H6Y 4739   1.513   2.274  21.602  2.0720  0.6846 -1.3517
   35POPC   C37 4740   1.569   2.342  21.404 -0.3294 -0.0448  0.0766
   35POPC   H7X 4741   1.597   2.438  21.453 -1.2167 -1.1909  3.0434
   35POPC   H7Y 4742   1.521   2.368  21.307 -1.7010  0.7108  0.9268
   35POPC   C38 4743   1.683   2.245  21.385  0.4852  0.6518  0.1447
   35POPC   H8X 4744   1.638   2.148  21.356  1.4452  0.1971  0.1449
   35POPC   H8Y 4745   1.734   2.225  21.482 -2.0930 -0.0237  1.4764
   35POPC   C39 4746   1.777   2.297  21.278  0.4038 -0.0767  0.7508
   35POPC   H9X 4747   1.840   2.376  21.325  1.4598  0.2040 -1.0548
   35POPC   H9Y 4748   1.727   2.341  21.190  4.3505 -0.5918 -2.0130
   35POPC  C310 4749   1.879   2.193  21.236 -0.1080  0.2820 -0.0174
   35POPC  H10X 4750   1.832   2.100  21.198  0.3321  0.7512 -1.8097
   35POPC  H10Y 4751   1.948   2.184  21.322 -0.5939  2.8892  0.7430
   35POPC  C311 4752   1.960   2.237  21.119 -0.3441  0.2680 -0.3375
   35POPC  H11X 4753   1.904   2.250  21.024  1.3143  1.2177 -1.2289
   35POPC  H11Y 4754   2.021   2.148  21.093 -1.9341 -0.5459 -1.4584
   35POPC  C312 4755   2.056   2.352  21.150 -0.5557  0.1383 -0.4858
   35POPC  H12X 4756   2.082   2.342  21.257 -1.1116 -2.9653 -0.5611
   35POPC  H12Y 4757   1.996   2.443  21.132 -1.3012  0.4900  3.0740
   35POPC  C313 4758   2.182   2.351  21.065 -0.3751 -0.5489  0.0594
   35POPC  H13X 4759   2.163   2.321  20.959  2.0497  0.9764 -0.8753
   35POPC  H13Y 4760   2.254   2.272  21.094 -1.5079 -0.8812  2.1129
   35POPC  C314 4761   2.259   2.488  21.063 -0.0862  0.5896  0.0941
   35POPC  H14X 4762   2.264   2.525  21.168 -3.8312 -1.1563  1.0574
   35POPC  H14Y 4763   2.206   2.569  21.009  1.3713  2.0472  0.7556
   35POPC  C315 4764   2.392   2.457  21.003  0.0182  0.4342 -0.4079
   35POPC  H15X 4765   2.377   2.390  20.915 -3.4533 -2.7736  2.2836
   35POPC  H15Y 4766   2.447   2.393  21.076  0.9500 -1.2388 -2.4709
   35POPC  C316 4767   2.478   2.569  20.976 -0.0855 -0.3304  0.2466
   35POPC  H16X 4768   2.431   2.648  20.912  0.5435 -0.4198 -0.3315
   35POPC  H16Y 4769   2.578   2.534  20.944  0.4314  1.0276  0.2880
   35POPC  H16Z 4770   2.493   2.620  21.074 -2.2249  1.0411 -0.0617
   36POPC     N 4771   3.995   3.219  23.994  0.1014 -0.1718 -0.0657
   36POPC   C12 4772   3.864   3.286  23.977  0.2061 -0.1716 -0.7416
   36POPC  H12A 4773   3.847   3.324  24.076  0.7410  1.0976 -1.1151
   36POPC  H12B 4774   3.781   3.224  23.944  1.4548 -0.1995 -4.3351
   36POPC   C13 4775   3.980   3.103  24.090 -0.4644  0.2648 -0.1732
   36POPC  H13A 4776   3.922   3.016  24.063 -1.1460  0.9991 -1.1548
   36POPC  H13B 4777   4.080   3.069  24.112  0.0048  1.5416 -0.2479
   36POPC  H13C 4778   3.946   3.138  24.186  0.3338 -0.3934  0.3624
   36POPC   C14 4779   4.060   3.166  23.868  0.4973 -0.7071 -0.3958
   36POPC  H14A 4780   4.166   3.146  23.876  0.9150  1.6316  0.6107
   36POPC  H14B 4781   4.012   3.084  23.816 -0.0812  0.8576 -2.4947
   36POPC  H14C 4782   4.039   3.249  23.803 -0.8123  0.7374  1.7711
   36POPC   C15 4783   4.092   3.318  24.043  0.2223 -1.4462 -0.2520
   36POPC  H15A 4784   4.188   3.269  24.042  0.7205 -0.6559  2.3144
   36POPC  H15B 4785   4.063   3.359  24.139  2.0083 -1.2974  0.2655
   36POPC  H15C 4786   4.097   3.405  23.979 -1.2649 -0.1667  1.2732
   36POPC   C11 4787   3.862   3.400  23.872 -1.0838  0.1026  0.7529
   36POPC  H11A 4788   3.944   3.465  23.911 -2.0562  0.7415  1.7712
   36POPC  H11B 4789   3.768   3.459  23.876  0.7409  3.2826  0.1478
   36POPC     P 4790   3.880   3.443  23.609  0.1745  0.1749 -0.0904
   36POPC   O13 4791   3.806   3.372  23.502  0.4196 -0.0531 -0.0700
   36POPC   O14 4792   4.019   3.492  23.593 -0.8149 -0.1435 -0.3582
   36POPC   O12 4793   3.875   3.351  23.739  0.3542 -0.4242 -0.3572
   36POPC   O11 4794   3.790   3.576  23.639 -0.4153  0.5194  0.0748
   36POPC    C1 4795   3.725   3.645  23.531 -0.2006 -0.3425 -0.4970
   36POPC    HA 4796   3.758   3.601  23.434  2.1374  0.2753 -0.0447
   36POPC    HB 4797   3.761   3.750  23.530  1.7979 -0.9752 -1.8062
   36POPC    C2 4798   3.567   3.655  23.544  0.4504 -1.0442  0.6444
   36POPC    HS 4799   3.524   3.702  23.453 -1.8119 -2.8378  0.6987
   36POPC   O21 4800   3.535   3.726  23.663  0.0744 -0.2816 -0.2823
   36POPC   C21 4801   3.478   3.848  23.660  0.2037  0.0507 -0.3197
   36POPC   O22 4802   3.476   3.916  23.561 -0.6879  0.1948  0.5746
   36POPC   C22 4803   3.404   3.870  23.787 -0.2974 -0.1499  0.3444
   36POPC   H2R 4804   3.329   3.949  23.762 -0.2400 -1.0295 -3.1133
   36POPC   H2S 4805   3.463   3.913  23.870  0.1954 -2.6739  1.3642
   36POPC    C3 4806   3.498   3.515  23.550 -1.0197  0.4758  0.5678
   36POPC    HX 4807   3.531   3.473  23.648 -0.0022  1.0857  0.5083
   36POPC    HY 4808   3.534   3.466  23.457 -0.3606 -0.2614  1.1968
   36POPC   O31 4809   3.354   3.517  23.540 -0.3160 -0.8577 -0.8970
   36POPC   C31 4810   3.299   3.398  23.582  0.4361 -1.1549 -0.3933
   36POPC   O32 4811   3.360   3.300  23.610  1.5278  0.2461 -0.5407
   36POPC   C32 4812   3.151   3.415  23.567  0.5807 -0.2471  0.1020
   36POPC   H2X 4813   3.112   3.319  23.526  1.6386 -0.0701 -1.4134
   36POPC   H2Y 4814   3.126   3.484  23.483  0.9514 -1.7970 -1.3455
   36POPC   C23 4815   3.322   3.745  23.820 -0.2535  0.0043  0.8510
   36POPC   H3R 4816   3.396   3.664  23.837  0.5250  0.6986  0.8133
   36POPC   H3S 4817   3.263   3.719  23.730 -0.9006  1.4124  0.8498
   36POPC   C24 4818   3.229   3.757  23.937 -0.9347 -0.1544 -0.3263
   36POPC   H4R 4819   3.301   3.792  24.014 -0.2073  0.2661 -1.1878
   36POPC   H4S 4820   3.201   3.656  23.976 -1.1830  0.6197  1.6012
   36POPC   C25 4821   3.112   3.863  23.940  0.1154  0.2352 -0.3223
   36POPC   H5R 4822   3.173   3.950  23.907 -0.9143  0.5624 -1.4567
   36POPC   H5S 4823   3.078   3.865  24.045 -0.8654 -1.3692 -0.5694
   36POPC   C26 4824   2.993   3.826  23.847  0.4670 -0.0595 -0.5219
   36POPC   H6R 4825   2.958   3.723  23.867  2.1855 -0.3195  1.4710
   36POPC   H6S 4826   3.039   3.819  23.746 -0.6212  0.3496 -1.0625
   36POPC   C27 4827   2.878   3.934  23.858  0.3647  0.3259 -0.0781
   36POPC   H7R 4828   2.922   4.031  23.890 -1.2080  1.1713 -0.3760
   36POPC   H7S 4829   2.813   3.893  23.938 -0.0198  1.0874  0.0047
   36POPC   C28 4830   2.796   3.958  23.730  0.0743  0.1555 -0.0191
   36POPC   H8R 4831   2.754   3.859  23.702 -1.3301 -0.2135  2.9876
   36POPC   H8S 4832   2.877   3.991  23.662 -0.5327  0.3732 -0.6488
   36POPC   C29 4833   2.694   4.071  23.745  0.2162  0.2216  0.3389
   36POPC   H91 4834   2.738   4.169  23.721  1.6181 -0.1385  1.3621
   36POPC  C210 4835   2.564   4.068  23.772  0.3699  0.4637  0.1853
   36POPC  H101 4836   2.503   4.160  23.770 -0.2119  0.0716 -0.5561
   36POPC  C211 4837   2.483   3.942  23.779  0.8170  0.0161  0.4126
   36POPC  H11R 4838   2.552   3.869  23.826  2.1213  0.3740 -0.8565
   36POPC  H11S 4839   2.480   3.909  23.672  1.8170  2.8222 -0.5703
   36POPC  C212 4840   2.346   3.957  23.843  0.5778  0.1830  0.7980
   36POPC  H12R 4841   2.351   4.022  23.933 -2.8213  1.2735  0.3243
   36POPC  H12S 4842   2.311   3.856  23.874 -0.6985  0.1186 -0.7094
   36POPC  C213 4843   2.229   3.983  23.742  0.6170 -0.6668 -0.0006
   36POPC  H13R 4844   2.220   3.896  23.674  2.3421 -1.5148  0.7840
   36POPC  H13S 4845   2.252   4.079  23.691 -0.5913 -1.5040 -2.2606
   36POPC  C214 4846   2.091   3.984  23.808  0.1721  0.1488  0.1775
   36POPC  H14R 4847   2.073   3.882  23.847 -1.9213 -0.2910 -1.7423
   36POPC  H14S 4848   2.009   3.999  23.735  0.5608 -2.4268 -0.8973
   36POPC  C215 4849   2.060   4.073  23.929 -0.8215 -0.1630 -0.7080
   36POPC  H15R 4850   2.050   4.178  23.894 -3.4110  0.7496  2.3051
   36POPC  H15S 4851   2.145   4.069  24.001 -0.9394 -1.5535 -0.6167
   36POPC  C216 4852   1.926   4.038  23.992  0.6540  0.5894 -0.2344
   36POPC  H16R 4853   1.928   3.930  24.019  1.9166 -0.2125 -3.0882
   36POPC  H16S 4854   1.845   4.046  23.917 -0.5388  0.1092  0.9642
   36POPC  C217 4855   1.885   4.127  24.108  0.1911  0.5382 -0.1722
   36POPC  H17R 4856   1.879   4.226  24.059 -2.1440  0.0506 -0.9791
   36POPC  H17S 4857   1.963   4.128  24.188 -0.9082  0.5596  0.9315
   36POPC  C218 4858   1.755   4.087  24.175  0.9919  0.2909 -0.1680
   36POPC  H18R 4859   1.762   3.983  24.214 -0.9459  0.2866  0.2634
   36POPC  H18S 4860   1.667   4.100  24.108 -2.4014  0.6088  3.9500
   36POPC  H18T 4861   1.730   4.156  24.258 -0.0558 -1.4454  1.0182
   36POPC   C33 4862   3.059   3.429  23.694 -0.6888 -0.2389  0.3081
   36POPC   H3X 4863   3.081   3.520  23.754 -0.8508  0.7391 -1.0705
   36POPC   H3Y 4864   3.086   3.356  23.773 -1.9030  0.6422  1.5953
   36POPC   C34 4865   2.913   3.429  23.646 -0.2863 -0.1151  0.1431
   36POPC   H4X 4866   2.895   3.338  23.585 -0.1340 -1.4337  1.9959
   36POPC   H4Y 4867   2.904   3.512  23.572  3.1442  0.0701 -0.2288
   36POPC   C35 4868   2.814   3.443  23.760  0.1935 -0.2639 -0.1270
   36POPC   H5X 4869   2.834   3.539  23.813  0.7821 -1.0012  1.0491
   36POPC   H5Y 4870   2.838   3.363  23.833  2.4739  0.0221 -0.4657
   36POPC   C36 4871   2.661   3.428  23.723  0.6348 -0.0645  0.0173
   36POPC   H6X 4872   2.655   3.350  23.645 -0.4565 -0.2721  0.2960
   36POPC   H6Y 4873   2.624   3.526  23.687  0.7456 -0.0665 -0.1000
   36POPC   C37 4874   2.574   3.380  23.839 -0.8458 -0.1543 -0.5846
   36POPC   H7X 4875   2.561   3.458  23.917 -1.7746 -0.6486 -0.2300
   36POPC   H7Y 4876   2.612   3.294  23.898 -0.5595 -0.0057 -0.5498
   36POPC   C38 4877   2.429   3.351  23.797 -0.1469 -0.0068 -0.6103
   36POPC   H8X 4878   2.424   3.281  23.711  1.9311  0.3729 -1.0818
   36POPC   H8Y 4879   2.389   3.454  23.784 -1.7237 -0.6182 -0.7820
   36POPC   C39 4880   2.343   3.288  23.901 -0.6321  0.7324 -0.5684
   36POPC   H9X 4881   2.338   3.336  24.001 -0.4376 -0.1297 -0.1429
   36POPC   H9Y 4882   2.386   3.188  23.919  0.5358  1.0988 -1.1740
   36POPC  C310 4883   2.200   3.269  23.854  0.6232 -0.7942  0.0772
   36POPC  H10X 4884   2.154   3.179  23.899 -2.3246 -0.1391 -1.3746
   36POPC  H10Y 4885   2.195   3.246  23.745  0.4168  1.1639 -0.3701
   36POPC  C311 4886   2.115   3.390  23.891 -0.0992 -1.3580  0.4239
   36POPC  H11X 4887   2.177   3.475  23.857 -2.7436  0.5962  0.2396
   36POPC  H11Y 4888   2.091   3.407  23.998 -0.4880 -0.4819  0.2012
   36POPC  C312 4889   1.988   3.399  23.806 -0.5954  0.2761  0.2366
   36POPC  H12X 4890   2.018   3.370  23.703  0.3815  0.8906  0.3437
   36POPC  H12Y 4891   1.931   3.493  23.824  0.1563  0.3570  2.4917
   36POPC  C313 4892   1.891   3.284  23.850  0.6465 -0.4846  0.0285
   36POPC  H13X 4893   1.852   3.301  23.953  0.0898 -0.2789 -0.2156
   36POPC  H13Y 4894   1.943   3.185  23.854 -0.7395 -1.2482 -0.0931
   36POPC  C314 4895   1.765   3.265  23.751 -0.2704  0.1224 -0.6749
   36POPC  H14X 4896   1.791   3.218  23.654 -0.8887  3.4785 -2.6183
   36POPC  H14Y 4897   1.725   3.365  23.723  0.5225  0.6363 -0.0052
   36POPC  C315 4898   1.654   3.183  23.815 -0.1118  0.4091 -0.5136
   36POPC  H15X 4899   1.554   3.205  23.771  0.0687 -0.0300 -1.1642
   36POPC  H15Y 4900   1.661   3.192  23.925  0.7622  1.7396 -0.6562
   36POPC  C316 4901   1.657   3.024  23.786 -0.2331 -0.8974  0.0863
   36POPC  H16X 4902   1.586   2.979  23.859 -3.1031  0.3797 -1.7142
   36POPC  H16Y 4903   1.760   2.985  23.794  0.6139  1.4786  2.3263
   36POPC  H16Z 4904   1.616   3.010  23.683  0.1307  0.1217 -0.2109
   37POPC     N 4905   1.765   3.356  14.385 -0.7723 -0.2710  0.3942
   37POPC   C12 4906   1.721   3.213  14.371 -0.1911 -0.1710 -0.0488
   37POPC  H12A 4907   1.626   3.189  14.327 -0.6896 -1.6914  1.7374
   37POPC  H12B 4908   1.703   3.167  14.467  1.3188 -1.2910 -0.2575
   37POPC   C13 4909   1.662   3.430  14.470  0.1905  0.7254 -0.4762
   37POPC  H13A 4910   1.679   3.534  14.491 -2.6347  0.9968  0.9568
   37POPC  H13B 4911   1.570   3.443  14.416  0.0563  1.2803 -0.1298
   37POPC  H13C 4912   1.628   3.384  14.562  0.1151 -1.7824 -1.6846
   37POPC   C14 4913   1.903   3.361  14.456  0.9087 -0.5365  1.1513
   37POPC  H14A 4914   1.916   3.465  14.482 -0.6162  0.2894 -1.1240
   37POPC  H14B 4915   1.904   3.317  14.555  0.4189 -0.7582  1.0565
   37POPC  H14C 4916   1.978   3.325  14.387  0.4759 -1.5872  1.2130
   37POPC   C15 4917   1.760   3.422  14.248  0.5152 -0.0809  0.4426
   37POPC  H15A 4918   1.802   3.350  14.180 -0.1728 -0.2162  0.1493
   37POPC  H15B 4919   1.825   3.508  14.252 -1.1726  1.2076  1.0813
   37POPC  H15C 4920   1.657   3.438  14.219  1.1464  1.2380 -1.2201
   37POPC   C11 4921   1.826   3.121  14.298  0.1719 -0.5606  0.0466
   37POPC  H11A 4922   1.791   3.015  14.295 -0.4449 -0.3562 -3.4623
   37POPC  H11B 4923   1.919   3.134  14.357 -0.6085  0.6859  1.0492
   37POPC     P 4924   1.953   3.091  14.074  0.3373  0.2150 -0.0027
   37POPC   O13 4925   2.049   3.201  14.032  0.0806  0.3101 -0.2437
   37POPC   O14 4926   1.878   3.018  13.968 -0.3863 -0.1066  0.9086
   37POPC   O12 4927   1.849   3.166  14.162  0.1653  0.5371 -0.2890
   37POPC   O11 4928   2.015   2.989  14.175  0.6202  0.0116 -0.4220
   37POPC    C1 4929   2.069   2.862  14.135  0.7205  0.3740  0.0887
   37POPC    HA 4930   2.047   2.831  14.031 -0.5885 -0.2101  0.5170
   37POPC    HB 4931   2.019   2.785  14.198  0.1914  0.1735 -0.5593
   37POPC    C2 4932   2.222   2.862  14.155  0.4773 -0.1710 -0.4998
   37POPC    HS 4933   2.243   2.755  14.173  0.4483 -0.5196 -2.3112
   37POPC   O21 4934   2.269   2.944  14.265  0.2703  0.0575  0.0895
   37POPC   C21 4935   2.242   2.888  14.385  0.0522  0.3592 -0.3168
   37POPC   O22 4936   2.182   2.782  14.407 -0.0603  0.0953  0.2583
   37POPC   C22 4937   2.305   2.975  14.499 -0.3039 -0.1067  0.1428
   37POPC   H2R 4938   2.266   3.079  14.486  0.1233  0.1140  0.6042
   37POPC   H2S 4939   2.414   2.965  14.483 -0.2204 -1.7158  1.4213
   37POPC    C3 4940   2.296   2.905  14.028  0.1187 -0.0647 -0.3329
   37POPC    HX 4941   2.314   3.015  14.032 -0.3991 -0.0075  0.6751
   37POPC    HY 4942   2.230   2.881  13.941 -0.1269  1.6682 -0.6605
   37POPC   O31 4943   2.418   2.834  14.015  0.3445  0.3950 -0.1316
   37POPC   C31 4944   2.529   2.891  14.061  0.1688 -0.7744 -0.8050
   37POPC   O32 4945   2.535   2.997  14.130  0.0032  0.6311 -0.4014
   37POPC   C32 4946   2.651   2.814  14.003 -0.5373  0.2087 -0.5633
   37POPC   H2X 4947   2.670   2.865  13.906 -0.1561  1.5149  0.1612
   37POPC   H2Y 4948   2.624   2.707  13.999  0.7657 -0.2258  1.1644
   37POPC   C23 4949   2.272   2.939  14.642  0.3676 -0.0363  0.1232
   37POPC   H3R 4950   2.162   2.939  14.660  0.2940  0.7858 -0.2551
   37POPC   H3S 4951   2.311   3.021  14.707 -2.2075 -1.1188  3.2993
   37POPC   C24 4952   2.334   2.812  14.697 -0.1075  0.2646  0.5327
   37POPC   H4R 4953   2.443   2.832  14.703 -0.2263  1.3120 -0.3973
   37POPC   H4S 4954   2.321   2.734  14.618  0.7993  0.5576  0.0843
   37POPC   C25 4955   2.296   2.773  14.839 -0.8717 -0.1269  0.4152
   37POPC   H5R 4956   2.188   2.749  14.849 -0.7203 -0.4543  1.3579
   37POPC   H5S 4957   2.316   2.862  14.902 -1.1605 -1.0250  1.8134
   37POPC   C26 4958   2.369   2.653  14.898 -1.0766 -0.1213 -0.0974
   37POPC   H6R 4959   2.470   2.692  14.925  0.3046 -1.7326 -2.5245
   37POPC   H6S 4960   2.380   2.574  14.820  0.7518  1.0658 -1.1186
   37POPC   C27 4961   2.302   2.595  15.022 -0.1435 -0.1611 -0.5132
   37POPC   H7R 4962   2.201   2.557  14.996 -1.2313  1.7157  0.7654
   37POPC   H7S 4963   2.288   2.683  15.088 -0.0204 -0.5439  0.0323
   37POPC   C28 4964   2.389   2.500  15.100  0.1039 -0.3258 -0.4131
   37POPC   H8R 4965   2.490   2.545  15.097  0.2986 -0.7293 -0.0283
   37POPC   H8S 4966   2.396   2.406  15.041 -0.0863 -0.1036 -0.7950
   37POPC   C29 4967   2.357   2.465  15.241  0.3866  0.0712 -0.3551
   37POPC   H91 4968   2.256   2.425  15.257  0.3924 -0.0174 -0.5303
   37POPC  C210 4969   2.440   2.479  15.352  0.1218  0.0285  0.1954
   37POPC  H101 4970   2.394   2.452  15.448  0.3890 -0.9304  0.0591
   37POPC  C211 4971   2.576   2.532  15.348 -0.3168 -0.4397  0.2839
   37POPC  H11R 4972   2.605   2.574  15.446 -0.8656 -1.2262  0.8001
   37POPC  H11S 4973   2.607   2.604  15.269  1.6458 -2.0480 -0.5139
   37POPC  C212 4974   2.671   2.417  15.321 -0.9915  0.4898 -0.3670
   37POPC  H12R 4975   2.678   2.389  15.213  0.4999  0.8108 -0.3848
   37POPC  H12S 4976   2.640   2.322  15.370 -0.1486  0.1353 -0.5000
   37POPC  C213 4977   2.815   2.449  15.357 -0.2069 -0.4006  0.2784
   37POPC  H13R 4978   2.825   2.486  15.461  1.3216  2.6091 -0.8094
   37POPC  H13S 4979   2.849   2.535  15.296  0.6803 -0.5364  0.5670
   37POPC  C214 4980   2.905   2.326  15.335  0.5514  0.4863 -0.0309
   37POPC  H14R 4981   2.881   2.313  15.228 -1.9326  0.6117  0.4469
   37POPC  H14S 4982   2.859   2.241  15.391  0.8111 -0.2542 -0.9077
   37POPC  C215 4983   3.054   2.338  15.371  0.4880  0.5150 -0.2154
   37POPC  H15R 4984   3.057   2.378  15.475  1.6712  1.6273 -0.6549
   37POPC  H15S 4985   3.090   2.422  15.308  1.6533 -2.9307 -4.6108
   37POPC  C216 4986   3.133   2.217  15.351 -0.7165  0.0502 -0.2043
   37POPC  H16R 4987   3.083   2.124  15.388  1.0493 -1.1342 -0.6582
   37POPC  H16S 4988   3.226   2.218  15.411  0.3622 -0.2301 -1.8006
   37POPC  C217 4989   3.176   2.190  15.205 -0.1608 -0.4603 -0.2346
   37POPC  H17R 4990   3.215   2.287  15.167  1.1669 -0.6890  0.4695
   37POPC  H17S 4991   3.082   2.161  15.154 -0.2414 -1.0131  0.2219
   37POPC  C218 4992   3.286   2.079  15.174  0.2141 -0.0653 -1.0365
   37POPC  H18R 4993   3.379   2.113  15.223  0.3595  0.6353 -1.7842
   37POPC  H18S 4994   3.298   2.074  15.064 -0.1746  2.2083 -1.2353
   37POPC  H18T 4995   3.251   1.983  15.219  2.0597 -0.0577  0.5255
   37POPC   C33 4996   2.777   2.819  14.094 -0.3870  1.0090 -0.4430
   37POPC   H3X 4997   2.815   2.921  14.112  2.5599 -0.2232  1.0059
   37POPC   H3Y 4998   2.861   2.768  14.041  0.9898  1.0968  1.5530
   37POPC   C34 4999   2.770   2.751  14.234 -0.1258 -0.0845  0.8684
   37POPC   H4X 5000   2.705   2.812  14.301  1.7878  3.1155  0.0277
   37POPC   H4Y 5001   2.865   2.761  14.291 -0.4228  1.1338  1.1697
   37POPC   C35 5002   2.721   2.604  14.241 -0.4062  0.0901 -0.1006
   37POPC   H5X 5003   2.800   2.529  14.218 -0.1065  1.1566 -2.8679
   37POPC   H5Y 5004   2.629   2.578  14.186 -1.1387  0.8781  0.7189
   37POPC   C36 5005   2.669   2.579  14.389  0.5790 -0.0973 -0.0681
   37POPC   H6X 5006   2.582   2.645  14.407  1.0461  0.3960  0.3877
   37POPC   H6Y 5007   2.745   2.606  14.466  0.7758  0.4860 -0.4635
   37POPC   C37 5008   2.633   2.432  14.410  0.4502 -0.4918 -0.1658
   37POPC   H7X 5009   2.718   2.366  14.382 -0.6173 -2.1034  0.2893
   37POPC   H7Y 5010   2.545   2.420  14.344 -0.8758  2.4490  0.8721
   37POPC   C38 5011   2.588   2.405  14.555 -0.4858 -0.5994  0.2057
   37POPC   H8X 5012   2.540   2.305  14.558  0.6773 -1.1678  0.5023
   37POPC   H8Y 5013   2.522   2.481  14.603  0.8161  1.1926 -0.7143
   37POPC   C39 5014   2.719   2.391  14.641 -0.0359  0.1527 -0.2137
   37POPC   H9X 5015   2.788   2.474  14.614  0.1123  0.0426 -0.1745
   37POPC   H9Y 5016   2.773   2.297  14.615 -0.2258 -0.3475  1.1371
   37POPC  C310 5017   2.683   2.388  14.787  0.0885 -0.0745 -0.8011
   37POPC  H10X 5018   2.628   2.292  14.802 -1.3504  1.0248  1.6162
   37POPC  H10Y 5019   2.606   2.467  14.804  0.4324  0.0030  0.4729
   37POPC  C311 5020   2.803   2.411  14.887 -0.3204  0.2718  0.6501
   37POPC  H11X 5021   2.753   2.440  14.982 -1.7321 -0.4731  0.1584
   37POPC  H11Y 5022   2.874   2.491  14.857 -1.4570 -0.1117 -3.6698
   37POPC  C312 5023   2.875   2.287  14.924  0.5316 -0.7553 -0.4183
   37POPC  H12X 5024   2.817   2.193  14.911  0.9620 -0.7281 -3.2214
   37POPC  H12Y 5025   2.915   2.296  15.027  0.6412  0.6788 -0.5707
   37POPC  C313 5026   3.006   2.262  14.849  0.1805 -0.6396  0.4927
   37POPC  H13X 5027   3.001   2.251  14.739  0.0838  1.0916  0.2998
   37POPC  H13Y 5028   3.036   2.161  14.884  2.1548 -1.2948 -2.7129
   37POPC  C314 5029   3.116   2.372  14.878 -0.0127  0.7081 -0.1581
   37POPC  H14X 5030   3.115   2.391  14.987  1.2078 -0.6897  0.1344
   37POPC  H14Y 5031   3.093   2.469  14.829  1.8889  0.9022 -0.7873
   37POPC  C315 5032   3.260   2.326  14.846  0.0403  0.0649 -0.4451
   37POPC  H15X 5033   3.273   2.291  14.742  1.1024  0.7133 -0.5525
   37POPC  H15Y 5034   3.286   2.241  14.913 -1.3655 -0.8591 -1.0374
   37POPC  C316 5035   3.359   2.434  14.874 -0.6542  1.3613  0.2311
   37POPC  H16X 5036   3.328   2.535  14.840 -0.3954  1.2654 -0.2895
   37POPC  H16Y 5037   3.456   2.408  14.828 -0.9920 -0.4340  0.4699
   37POPC  H16Z 5038   3.386   2.432  14.982 -0.5316 -2.3590  0.2471
   38POPC     N 5039   0.788   2.496  13.545  0.0966 -0.2088  0.3688
   38POPC   C12 5040   0.689   2.408  13.623  0.0012 -0.1155  0.4227
   38POPC  H12A 5041   0.737   2.397  13.719 -0.3928 -0.4136  0.5896
   38POPC  H12B 5042   0.669   2.310  13.582  1.0007  0.4717 -1.5887
   38POPC   C13 5043   0.794   2.641  13.586  0.5916  0.3764 -0.2300
   38POPC  H13A 5044   0.709   2.688  13.538 -0.0111 -0.4259  0.0193
   38POPC  H13B 5045   0.786   2.659  13.692  0.4496 -1.2162  0.0529
   38POPC  H13C 5046   0.882   2.695  13.557 -0.5617  1.8705 -1.0839
   38POPC   C14 5047   0.928   2.444  13.551  0.3243 -0.5853  0.1443
   38POPC  H14A 5048   1.000   2.495  13.488  0.4239  0.9371  1.4075
   38POPC  H14B 5049   0.960   2.465  13.652 -1.5187  0.9255  0.4610
   38POPC  H14C 5050   0.941   2.345  13.511  2.7920  0.4709 -1.9864
   38POPC   C15 5051   0.759   2.485  13.396 -0.0075 -0.0960 -0.3388
   38POPC  H15A 5052   0.770   2.382  13.366  2.5611 -0.0849  0.3161
   38POPC  H15B 5053   0.825   2.535  13.326 -0.7917  0.5874 -0.6043
   38POPC  H15C 5054   0.657   2.518  13.382 -0.3575 -0.1097  1.8455
   38POPC   C11 5055   0.543   2.454  13.660 -0.0140  0.0498 -0.3605
   38POPC  H11A 5056   0.547   2.547  13.720 -1.5711 -0.1638  0.1387
   38POPC  H11B 5057   0.491   2.375  13.719 -2.6625  1.9681  0.0737
   38POPC     P 5058   0.355   2.397  13.479  0.6073  0.2928  0.3290
   38POPC   O13 5059   0.400   2.260  13.442  0.5013 -0.2109 -0.6301
   38POPC   O14 5060   0.290   2.478  13.367  0.2060  0.0676  0.0229
   38POPC   O12 5061   0.473   2.491  13.538 -0.2050  0.7253 -0.5220
   38POPC   O11 5062   0.243   2.387  13.598  0.2285 -0.2519 -0.0846
   38POPC    C1 5063   0.201   2.253  13.641 -0.3543 -0.0383  0.0733
   38POPC    HA 5064   0.278   2.176  13.618 -0.4385  0.9275 -4.6220
   38POPC    HB 5065   0.121   2.221  13.571 -0.2365  0.8224 -0.4731
   38POPC    C2 5066   0.160   2.263  13.785 -0.3244 -0.1547 -0.4983
   38POPC    HS 5067   0.130   2.160  13.813  3.2658 -0.9035  1.1058
   38POPC   O21 5068   0.056   2.357  13.799 -0.2369 -0.3392  0.2444
   38POPC   C21 5069  -0.064   2.330  13.751  0.3764  0.0457  0.0558
   38POPC   O22 5070  -0.098   2.230  13.693 -0.2250  0.8001 -0.1313
   38POPC   C22 5071  -0.157   2.453  13.780 -0.7086  0.1345 -0.1495
   38POPC   H2R 5072  -0.219   2.477  13.692 -0.8416  0.7678  0.1123
   38POPC   H2S 5073  -0.087   2.538  13.790 -0.6253  0.0262  0.2198
   38POPC    C3 5074   0.270   2.296  13.883 -0.3505  0.5322  0.3039
   38POPC    HX 5075   0.321   2.386  13.842 -1.5155 -0.1831 -3.0118
   38POPC    HY 5076   0.340   2.210  13.884  2.0623  2.3474  2.7942
   38POPC   O31 5077   0.219   2.306  14.019 -0.1853  0.2234  0.0044
   38POPC   C31 5078   0.264   2.417  14.093  0.4482 -0.2862  0.5613
   38POPC   O32 5079   0.336   2.499  14.049 -0.4801  0.1476 -0.0697
   38POPC   C32 5080   0.222   2.408  14.243 -0.1690  0.0072  0.0476
   38POPC   H2X 5081   0.309   2.450  14.298 -2.3956  0.5284  3.4314
   38POPC   H2Y 5082   0.224   2.298  14.258 -0.9388 -0.3152 -1.9075
   38POPC   C23 5083  -0.244   2.433  13.904  0.1101  0.6478  0.1061
   38POPC   H3R 5084  -0.200   2.377  13.989 -1.5814 -1.4726 -0.3097
   38POPC   H3S 5085  -0.333   2.371  13.879  0.8361 -1.6938  2.8678
   38POPC   C24 5086  -0.302   2.564  13.963  0.4680  0.2848  0.9343
   38POPC   H4R 5087  -0.397   2.544  14.017 -0.3596 -1.3598 -1.0283
   38POPC   H4S 5088  -0.319   2.639  13.882  0.3551  1.1280  1.7192
   38POPC   C25 5089  -0.210   2.631  14.066 -0.2042  0.4209  0.3678
   38POPC   H5R 5090  -0.111   2.658  14.024 -0.1615 -1.0896 -0.5569
   38POPC   H5S 5091  -0.192   2.565  14.154 -0.0201  0.2015  0.1668
   38POPC   C26 5092  -0.276   2.757  14.118  0.0453 -0.2969  0.3006
   38POPC   H6R 5093  -0.379   2.734  14.152 -1.1596 -0.3995 -3.1052
   38POPC   H6S 5094  -0.284   2.834  14.038 -0.3069  1.3701  1.8547
   38POPC   C27 5095  -0.190   2.822  14.228  0.6067  0.5436  0.0686
   38POPC   H7R 5096  -0.091   2.849  14.185  1.1019 -0.3468  0.6358
   38POPC   H7S 5097  -0.174   2.744  14.305 -0.2102 -2.4749 -2.6213
   38POPC   C28 5098  -0.246   2.959  14.285 -0.1619  0.5781 -0.4043
   38POPC   H8R 5099  -0.225   2.966  14.394  2.1902  1.7058 -0.8644
   38POPC   H8S 5100  -0.355   2.963  14.266 -0.4901  0.7168  1.3453
   38POPC   C29 5101  -0.207   3.082  14.216 -0.4497 -0.1208  1.0521
   38POPC   H91 5102  -0.195   3.060  14.109 -2.3431 -0.5540  0.9041
   38POPC  C210 5103  -0.190   3.212  14.261  0.0379  0.1984  0.2577
   38POPC  H101 5104  -0.159   3.280  14.181  0.0638 -0.4963 -0.3349
   38POPC  C211 5105  -0.199   3.259  14.401 -0.1198 -0.2741 -0.0700
   38POPC  H11R 5106  -0.122   3.336  14.418  0.5806 -0.5651 -1.7879
   38POPC  H11S 5107  -0.188   3.175  14.474  1.6162  0.4644  0.5515
   38POPC  C212 5108  -0.337   3.313  14.435 -0.6107 -0.4501  0.3359
   38POPC  H12R 5109  -0.411   3.241  14.394 -0.5263 -1.9321  2.5823
   38POPC  H12S 5110  -0.355   3.416  14.398  0.3083 -0.9893 -1.7606
   38POPC  C213 5111  -0.357   3.302  14.590 -0.1643  0.1141  0.2555
   38POPC  H13R 5112  -0.273   3.356  14.638  0.3141  0.6136 -1.1098
   38POPC  H13S 5113  -0.337   3.196  14.617 -0.5684  0.3748  1.6822
   38POPC  C214 5114  -0.494   3.356  14.639 -0.4110  0.7353  0.1508
   38POPC  H14R 5115  -0.571   3.300  14.581  2.7975 -1.7980 -2.0512
   38POPC  H14S 5116  -0.507   3.465  14.622  1.4864  1.1636  1.2365
   38POPC  C215 5117  -0.521   3.326  14.795 -0.1942  0.5967 -0.0283
   38POPC  H15R 5118  -0.449   3.377  14.863  1.2083 -0.6247 -0.5235
   38POPC  H15S 5119  -0.496   3.218  14.802  0.5820  0.6160 -1.8475
   38POPC  C216 5120  -0.658   3.367  14.842 -0.3698  0.1042 -0.3799
   38POPC  H16R 5121  -0.681   3.323  14.941 -1.3230  0.4917 -0.4165
   38POPC  H16S 5122  -0.742   3.335  14.777 -0.0085  1.6729 -1.6956
   38POPC  C217 5123  -0.670   3.522  14.855 -0.1208  0.2610 -0.0991
   38POPC  H17R 5124  -0.696   3.564  14.756  0.3040  0.5061 -0.1103
   38POPC  H17S 5125  -0.571   3.561  14.889  1.4695  0.3654 -4.2766
   38POPC  C218 5126  -0.770   3.555  14.961  0.6095  0.1036 -0.0070
   38POPC  H18R 5127  -0.787   3.665  14.960  2.4771  0.4649 -2.1706
   38POPC  H18S 5128  -0.746   3.515  15.061  1.7987  0.1348 -0.2553
   38POPC  H18T 5129  -0.862   3.498  14.937  1.3652 -1.1300 -0.0560
   38POPC   C33 5130   0.085   2.469  14.275 -0.3951 -0.0034 -0.0941
   38POPC   H3X 5131   0.018   2.454  14.188  1.1051  0.9025 -1.4703
   38POPC   H3Y 5132   0.110   2.576  14.288  2.6234 -0.7587  1.5346
   38POPC   C34 5133   0.032   2.410  14.401  0.1613  0.2701 -0.1622
   38POPC   H4X 5134   0.108   2.418  14.482  0.0279  0.0755 -0.0141
   38POPC   H4Y 5135   0.018   2.301  14.382  3.4420 -0.1529 -0.7670
   38POPC   C35 5136  -0.097   2.478  14.456 -0.0698 -0.2640  0.6125
   38POPC   H5X 5137  -0.178   2.442  14.389  0.9067 -2.0371  0.3338
   38POPC   H5Y 5138  -0.085   2.588  14.443 -2.1730 -0.0192  0.4134
   38POPC   C36 5139  -0.112   2.455  14.601  0.1722  0.2409 -0.6655
   38POPC   H6X 5140  -0.025   2.503  14.651 -2.0107  2.0172  1.6715
   38POPC   H6Y 5141  -0.107   2.347  14.628  0.4313  0.3093 -0.4251
   38POPC   C37 5142  -0.245   2.519  14.651 -0.0725 -0.2099 -0.0483
   38POPC   H7X 5143  -0.320   2.448  14.610  1.5615 -0.9073 -2.0103
   38POPC   H7Y 5144  -0.258   2.617  14.601  1.4353 -0.4587 -0.9936
   38POPC   C38 5145  -0.254   2.525  14.803 -0.2813  0.6368 -0.1337
   38POPC   H8X 5146  -0.200   2.609  14.850  1.4999  0.2963 -1.4760
   38POPC   H8Y 5147  -0.198   2.439  14.846  2.0093  2.1295  0.0380
   38POPC   C39 5148  -0.404   2.525  14.847 -0.2785  0.0785  0.1758
   38POPC   H9X 5149  -0.463   2.451  14.790 -0.1159  0.2591 -0.2375
   38POPC   H9Y 5150  -0.456   2.622  14.833  0.5188  0.9398  2.6463
   38POPC  C310 5151  -0.422   2.496  15.000  0.6477  0.8392 -0.4727
   38POPC  H10X 5152  -0.349   2.560  15.054  0.6940 -0.0928  0.5845
   38POPC  H10Y 5153  -0.392   2.390  15.010 -0.0511  0.7173  0.3831
   38POPC  C311 5154  -0.563   2.492  15.054  0.0602 -0.1247  0.7254
   38POPC  H11X 5155  -0.551   2.413  15.132 -0.8938 -0.5525  0.4467
   38POPC  H11Y 5156  -0.626   2.466  14.967 -2.1486 -0.3353  2.3073
   38POPC  C312 5157  -0.614   2.618  15.114  0.3186  0.1227  0.0716
   38POPC  H12X 5158  -0.541   2.687  15.162 -0.2841  0.6076  0.2940
   38POPC  H12Y 5159  -0.685   2.600  15.197 -1.0357  1.4041 -0.7686
   38POPC  C313 5160  -0.693   2.708  15.015  0.0378 -0.6295 -0.4524
   38POPC  H13X 5161  -0.791   2.668  14.982  1.1556 -2.5871 -1.6083
   38POPC  H13Y 5162  -0.626   2.748  14.935 -1.9813 -0.0883 -1.9678
   38POPC  C314 5163  -0.741   2.835  15.091 -0.1825 -0.1137  0.0817
   38POPC  H14X 5164  -0.649   2.884  15.128  1.4361 -1.8848 -1.4394
   38POPC  H14Y 5165  -0.810   2.820  15.178 -1.0703  2.9019 -0.0009
   38POPC  C315 5166  -0.810   2.928  14.984  0.0545  0.3587 -0.0537
   38POPC  H15X 5167  -0.910   2.958  15.020 -0.0379  1.1840 -0.9393
   38POPC  H15Y 5168  -0.858   2.868  14.904 -0.7536  1.7321 -0.6403
   38POPC  C316 5169  -0.729   3.047  14.940 -0.2377 -0.0144 -0.0111
   38POPC  H16X 5170  -0.789   3.110  14.870  1.9031  1.0748 -0.9689
   38POPC  H16Y 5171  -0.638   3.018  14.882  0.6994  2.0145  0.3835
   38POPC  H16Z 5172  -0.680   3.111  15.016 -1.9881  2.4661 -0.8504
   39POPC     N 5173   2.209   1.070  18.571  0.1040 -0.3168 -0.3147
   39POPC   C12 5174   2.254   1.012  18.440 -0.0015 -0.0445  0.1725
   39POPC  H12A 5175   2.348   0.963  18.461 -1.0884 -1.9557  0.8447
   39POPC  H12B 5176   2.271   1.091  18.369  0.9024 -0.2404  0.1615
   39POPC   C13 5177   2.321   1.145  18.643  0.1645 -0.2024  0.8337
   39POPC  H13A 5178   2.280   1.219  18.711  0.3780  0.5256  0.1808
   39POPC  H13B 5179   2.382   1.073  18.695  0.3053  0.3449  1.4412
   39POPC  H13C 5180   2.384   1.194  18.571  0.1165  0.1235  1.0101
   39POPC   C14 5181   2.087   1.157  18.555 -0.9037 -0.5052  0.4299
   39POPC  H14A 5182   2.117   1.252  18.513 -1.0161  0.2620  2.0166
   39POPC  H14B 5183   2.023   1.105  18.486 -0.9566 -1.0303  0.8729
   39POPC  H14C 5184   2.044   1.180  18.651  1.5076  0.5382  1.3321
   39POPC   C15 5185   2.173   0.958  18.667 -1.1176 -0.6360  0.2156
   39POPC  H15A 5186   2.256   0.895  18.695 -0.4154 -0.1132 -0.6330
   39POPC  H15B 5187   2.112   0.889  18.610  1.4434 -1.0400 -2.2399
   39POPC  H15C 5188   2.122   0.999  18.754  1.1288 -1.6330  2.1006
   39POPC   C11 5189   2.162   0.904  18.371 -0.4937  0.7384  0.1924
   39POPC  H11A 5190   2.202   0.889  18.268 -1.5390  1.1564 -0.2882
   39POPC  H11B 5191   2.056   0.936  18.381 -0.3060  0.5644  4.3067
   39POPC     P 5192   2.135   0.640  18.369  0.0269 -0.0603 -0.3672
   39POPC   O13 5193   2.200   0.641  18.239  0.6424  0.0756  0.4128
   39POPC   O14 5194   1.992   0.606  18.367 -0.0433 -0.9332 -0.5635
   39POPC   O12 5195   2.156   0.778  18.448 -0.3504 -0.0647  0.1734
   39POPC   O11 5196   2.209   0.532  18.457  0.2107  0.0959  0.1728
   39POPC    C1 5197   2.293   0.554  18.568  0.0122 -0.4746 -0.0706
   39POPC    HA 5198   2.344   0.457  18.588 -0.9248 -0.5681  2.0953
   39POPC    HB 5199   2.246   0.594  18.660  4.5564 -0.8683  2.7587
   39POPC    C2 5200   2.414   0.641  18.544  0.3042 -0.0039  0.1022
   39POPC    HS 5201   2.385   0.748  18.542  2.2751  0.5596 -1.0945
   39POPC   O21 5202   2.479   0.599  18.426  0.4900  0.3871  0.1511
   39POPC   C21 5203   2.522   0.705  18.346  0.4046  0.0002  0.2253
   39POPC   O22 5204   2.525   0.818  18.390  0.2315  0.0616 -0.2379
   39POPC   C22 5205   2.581   0.652  18.221  0.6208  0.4232 -0.4233
   39POPC   H2R 5206   2.510   0.681  18.140 -1.4964 -1.6876  0.5801
   39POPC   H2S 5207   2.580   0.541  18.224 -1.5694  0.4146  0.0148
   39POPC    C3 5208   2.518   0.625  18.657 -0.1213  0.0036 -0.3687
   39POPC    HX 5209   2.558   0.527  18.624 -1.7993 -0.7061 -0.4207
   39POPC    HY 5210   2.464   0.610  18.753 -1.7906 -1.4293 -1.4660
   39POPC   O31 5211   2.620   0.730  18.661 -0.0790  0.4186  0.9511
   39POPC   C31 5212   2.577   0.845  18.714  0.3333 -0.7914 -1.1065
   39POPC   O32 5213   2.468   0.865  18.757  0.4535 -0.0113 -0.2345
   39POPC   C32 5214   2.691   0.952  18.723 -0.1706 -0.0534 -0.0095
   39POPC   H2X 5215   2.715   0.969  18.830 -0.8155 -0.2619  0.1780
   39POPC   H2Y 5216   2.779   0.911  18.670  0.2305  1.8325 -0.8704
   39POPC   C23 5217   2.710   0.716  18.183  0.3592 -0.0431  0.5724
   39POPC   H3R 5218   2.697   0.826  18.185 -0.1995 -0.1082  0.6293
   39POPC   H3S 5219   2.738   0.705  18.076 -0.3154 -1.1951  0.4954
   39POPC   C24 5220   2.822   0.677  18.275 -0.2478  0.1044 -0.2095
   39POPC   H4R 5221   2.851   0.572  18.253  1.2059  0.0313  1.8170
   39POPC   H4S 5222   2.788   0.680  18.381  0.3357 -2.0867  0.0838
   39POPC   C25 5223   2.946   0.769  18.275  0.5259  0.1169 -0.4037
   39POPC   H5R 5224   2.920   0.868  18.320  1.5519 -0.4710  1.6294
   39POPC   H5S 5225   2.966   0.781  18.167 -1.5723  1.4151 -0.7136
   39POPC   C26 5226   3.064   0.715  18.356  0.2357 -0.1815  0.0704
   39POPC   H6R 5227   3.157   0.766  18.323  1.6287 -2.4045  0.3509
   39POPC   H6S 5228   3.079   0.607  18.332 -0.1221 -0.1352 -0.3706
   39POPC   C27 5229   3.049   0.727  18.507  0.2231 -0.5771  0.3417
   39POPC   H7R 5230   2.958   0.674  18.543  1.2945 -3.8592 -1.4460
   39POPC   H7S 5231   3.048   0.835  18.534  2.2596 -0.2156 -0.8455
   39POPC   C28 5232   3.174   0.675  18.582 -0.0932 -0.2530  0.2602
   39POPC   H8R 5233   3.260   0.733  18.542 -0.5737 -0.1163 -0.6205
   39POPC   H8S 5234   3.191   0.567  18.564 -0.1088 -0.6539  2.4655
   39POPC   C29 5235   3.165   0.701  18.726 -0.5411 -0.2696 -0.1739
   39POPC   H91 5236   3.173   0.806  18.756  0.4501  0.1283 -1.7251
   39POPC  C210 5237   3.124   0.614  18.822  0.0779  0.3157  0.3503
   39POPC  H101 5238   3.125   0.639  18.929 -0.2487 -1.1250  0.7238
   39POPC  C211 5239   3.064   0.475  18.809  0.6545 -0.3086  0.1017
   39POPC  H11R 5240   3.097   0.412  18.894  2.3119  0.4788  0.0783
   39POPC  H11S 5241   3.108   0.413  18.728  4.3450  0.3676  1.4349
   39POPC  C212 5242   2.918   0.505  18.818 -0.5707 -0.2748  0.1705
   39POPC  H12R 5243   2.896   0.587  18.746  1.1348 -0.0350 -0.1055
   39POPC  H12S 5244   2.876   0.540  18.915 -0.7549 -2.2845  0.8728
   39POPC  C213 5245   2.825   0.384  18.783 -0.4050  0.0647 -0.5010
   39POPC  H13R 5246   2.722   0.403  18.823 -0.0756 -1.7397  1.3968
   39POPC  H13S 5247   2.854   0.296  18.843 -1.9598 -1.3686 -1.7524
   39POPC  C214 5248   2.826   0.365  18.633  0.9778  0.1219 -0.0013
   39POPC  H14R 5249   2.921   0.339  18.580  1.0829 -2.4010  1.2580
   39POPC  H14S 5250   2.789   0.459  18.588 -1.0923 -0.4186  0.4648
   39POPC  C215 5251   2.741   0.251  18.590  0.1561 -0.6350  0.4782
   39POPC  H15R 5252   2.644   0.265  18.642  0.3038 -0.2189  0.6417
   39POPC  H15S 5253   2.769   0.151  18.630  1.7276  0.7266  3.0605
   39POPC  C216 5254   2.728   0.244  18.433  0.8828  0.5836  0.9835
   39POPC  H16R 5255   2.831   0.251  18.393  0.1890 -0.2134 -1.0557
   39POPC  H16S 5256   2.667   0.327  18.391  0.2294 -0.8190 -1.0004
   39POPC  C217 5257   2.661   0.107  18.394 -0.3113  0.5050 -0.3421
   39POPC  H17R 5258   2.561   0.114  18.443  0.5801  1.6809  1.4143
   39POPC  H17S 5259   2.717   0.025  18.444 -0.4214 -0.2684 -1.4584
   39POPC  C218 5260   2.654   0.074  18.242  0.4860  0.4733 -0.0865
   39POPC  H18R 5261   2.623  -0.032  18.227 -0.9029  0.9644 -0.8574
   39POPC  H18S 5262   2.755   0.088  18.197  0.3227 -0.4829 -0.7987
   39POPC  H18T 5263   2.582   0.146  18.197  0.3998 -0.5888 -1.7373
   39POPC   C33 5264   2.666   1.080  18.649  0.0473 -0.8050 -0.2349
   39POPC   H3X 5265   2.611   1.157  18.706 -0.1018 -1.5298  0.6264
   39POPC   H3Y 5266   2.597   1.056  18.565  0.7292 -1.6899 -0.5668
   39POPC   C34 5267   2.794   1.138  18.586  0.1328 -0.3502 -0.7887
   39POPC   H4X 5268   2.760   1.229  18.532 -3.8894 -1.9128 -1.2124
   39POPC   H4Y 5269   2.829   1.059  18.516  3.3163 -0.7193  1.0280
   39POPC   C35 5270   2.896   1.167  18.697 -0.1768 -0.9344 -0.4058
   39POPC   H5X 5271   2.908   1.094  18.780 -3.1425  0.2646  1.2531
   39POPC   H5Y 5272   2.854   1.260  18.743  1.3430  0.5938 -1.9676
   39POPC   C36 5273   3.029   1.218  18.644  0.4159  0.4478 -0.2541
   39POPC   H6X 5274   3.011   1.299  18.570 -0.4903  2.1227  1.6693
   39POPC   H6Y 5275   3.075   1.136  18.586  1.3141  1.3903 -0.9119
   39POPC   C37 5276   3.133   1.247  18.749 -0.4793  0.5810  0.5321
   39POPC   H7X 5277   3.152   1.154  18.806 -2.4807 -0.1201  0.1342
   39POPC   H7Y 5278   3.098   1.322  18.823  0.8935  0.5816  1.1994
   39POPC   C38 5279   3.270   1.304  18.709 -0.1148  0.6794  0.5435
   39POPC   H8X 5280   3.254   1.411  18.685 -1.9720  0.6304  1.3868
   39POPC   H8Y 5281   3.316   1.258  18.619  0.2799 -0.5084  1.3204
   39POPC   C39 5282   3.375   1.286  18.819  0.1856 -0.1290 -0.1806
   39POPC   H9X 5283   3.372   1.177  18.838 -1.8782  0.1016  1.1589
   39POPC   H9Y 5284   3.361   1.342  18.914  0.2479  2.0914 -1.4013
   39POPC  C310 5285   3.508   1.321  18.764  0.5372  0.4829  0.4642
   39POPC  H10X 5286   3.503   1.423  18.721  1.1663  0.6398  0.7641
   39POPC  H10Y 5287   3.542   1.259  18.679 -0.8281  1.3390 -0.7526
   39POPC  C311 5288   3.618   1.319  18.871 -0.3749 -0.0610  0.5208
   39POPC  H11X 5289   3.611   1.224  18.927 -1.5241 -0.4359 -0.2410
   39POPC  H11Y 5290   3.602   1.395  18.951  1.4036  1.3677 -0.3908
   39POPC  C312 5291   3.756   1.345  18.802 -0.8549 -0.0032 -0.5224
   39POPC  H12X 5292   3.750   1.429  18.731 -0.5583  1.7860  1.4582
   39POPC  H12Y 5293   3.784   1.253  18.746 -0.2938 -1.0414  1.3358
   39POPC  C313 5294   3.858   1.371  18.913 -0.3360 -0.3654  0.5045
   39POPC  H13X 5295   3.855   1.281  18.979 -1.0707  1.1159  2.6016
   39POPC  H13Y 5296   3.821   1.452  18.980 -0.2811 -0.6260  0.8528
   39POPC  C314 5297   3.992   1.408  18.855 -0.4338 -0.3472  0.9369
   39POPC  H14X 5298   4.010   1.340  18.768 -1.3904 -1.4781  1.5826
   39POPC  H14Y 5299   4.080   1.400  18.921  1.8862  0.9434 -1.7630
   39POPC  C315 5300   4.001   1.550  18.794  0.0454 -0.0139 -0.1166
   39POPC  H15X 5301   3.980   1.621  18.877  1.2098  0.0581  0.1370
   39POPC  H15Y 5302   3.911   1.576  18.733 -0.5726 -0.4451  0.5974
   39POPC  C316 5303   4.123   1.591  18.717  0.0640  0.5242  0.6512
   39POPC  H16X 5304   4.117   1.694  18.676 -0.7547 -0.5702 -2.2387
   39POPC  H16Y 5305   4.143   1.519  18.635 -1.0276  2.1744 -1.1339
   39POPC  H16Z 5306   4.214   1.587  18.781  0.9954  0.2815 -0.6677
   40POPC     N 5307   1.097   0.467  15.572  0.2650 -0.3230 -0.3997
   40POPC   C12 5308   1.089   0.534  15.710  0.3122 -0.0064 -0.2276
   40POPC  H12A 5309   1.143   0.627  15.702 -0.5519  0.5071 -0.2554
   40POPC  H12B 5310   1.144   0.477  15.784 -0.5241  0.7421  1.0017
   40POPC   C13 5311   1.031   0.332  15.554 -0.2742 -0.3358 -0.4176
   40POPC  H13A 5312   0.929   0.332  15.590 -0.7700  0.6458 -1.7400
   40POPC  H13B 5313   1.041   0.297  15.452  0.9822  1.6350 -1.0378
   40POPC  H13C 5314   1.089   0.264  15.616 -1.8863 -0.7957  0.6491
   40POPC   C14 5315   1.028   0.549  15.456 -0.1079  0.6234  0.2200
   40POPC  H14A 5316   1.083   0.628  15.406 -0.4435  0.4869 -0.3838
   40POPC  H14B 5317   1.003   0.480  15.377 -0.5526  0.7310  0.2623
   40POPC  H14C 5318   0.935   0.595  15.487  1.3148  3.3565  0.7532
   40POPC   C15 5319   1.236   0.439  15.537 -1.1264  0.1731  0.1245
   40POPC  H15A 5320   1.247   0.372  15.452 -0.4224  0.5251 -0.0763
   40POPC  H15B 5321   1.288   0.387  15.616 -1.9678  0.1871  0.6939
   40POPC  H15C 5322   1.287   0.531  15.511  1.5922 -1.0446  0.7771
   40POPC   C11 5323   0.954   0.549  15.767  0.0894 -0.6855 -0.5480
   40POPC  H11A 5324   0.887   0.606  15.699  1.5066  0.5506 -0.9531
   40POPC  H11B 5325   0.958   0.617  15.854  1.5561  0.2279 -1.2987
   40POPC     P 5326   0.921   0.352  15.934  0.4638  0.4953 -0.0121
   40POPC   O13 5327   0.933   0.447  16.047 -0.6488  0.6107  0.4645
   40POPC   O14 5328   1.042   0.278  15.894  0.0931  0.2457 -0.2723
   40POPC   O12 5329   0.891   0.430  15.799  0.6069 -0.4465 -0.1816
   40POPC   O11 5330   0.793   0.260  15.960  0.2202 -0.2915  0.3997
   40POPC    C1 5331   0.713   0.202  15.856  0.0261 -0.4429  0.2966
   40POPC    HA 5332   0.719   0.092  15.874  0.5903 -0.1210  2.3982
   40POPC    HB 5333   0.741   0.221  15.751  0.1150  0.6752  0.5120
   40POPC    C2 5334   0.561   0.235  15.866 -0.2887 -0.5390  0.1264
   40POPC    HS 5335   0.507   0.195  15.778  0.8990  0.3407 -1.0465
   40POPC   O21 5336   0.542   0.371  15.874 -0.0415  0.0305  0.0360
   40POPC   C21 5337   0.562   0.440  15.756  0.0581 -0.2135 -0.3611
   40POPC   O22 5338   0.558   0.392  15.645 -0.1195  0.3247 -0.0868
   40POPC   C22 5339   0.579   0.592  15.783  0.2560  0.0304 -0.6111
   40POPC   H2R 5340   0.665   0.620  15.718  1.0285 -2.0848 -0.5702
   40POPC   H2S 5341   0.612   0.604  15.889  0.7639 -2.3198 -0.4554
   40POPC    C3 5342   0.514   0.173  16.001 -0.1715 -0.0981  0.5079
   40POPC    HX 5343   0.573   0.228  16.078  0.1605  1.3984 -0.7713
   40POPC    HY 5344   0.531   0.065  16.021  1.6377  0.0583 -0.0537
   40POPC   O31 5345   0.378   0.227  16.021  0.4781 -0.5243  0.0437
   40POPC   C31 5346   0.290   0.149  15.960  0.0879 -0.3930 -0.3568
   40POPC   O32 5347   0.315   0.050  15.892  0.2700 -0.2901  0.2138
   40POPC   C32 5348   0.152   0.204  15.991  0.0856  0.0168  0.7214
   40POPC   H2X 5349   0.145   0.315  15.991 -1.9593 -0.0510  2.2698
   40POPC   H2Y 5350   0.134   0.186  16.099 -2.0450 -0.7344  0.2786
   40POPC   C23 5351   0.452   0.683  15.750  0.3828 -0.1048  0.1443
   40POPC   H3R 5352   0.424   0.659  15.646  0.7480  2.1589 -0.5264
   40POPC   H3S 5353   0.490   0.787  15.743 -0.2293  0.2797  2.0095
   40POPC   C24 5354   0.345   0.656  15.849  0.3319  0.0853 -0.0581
   40POPC   H4R 5355   0.378   0.661  15.955  1.6423 -2.3061 -0.2888
   40POPC   H4S 5356   0.310   0.551  15.833  1.1315  0.1619 -2.7812
   40POPC   C25 5357   0.212   0.728  15.824  0.0004  0.2303 -0.1687
   40POPC   H5R 5358   0.204   0.757  15.717  0.0161 -1.4202 -0.6466
   40POPC   H5S 5359   0.213   0.820  15.885 -0.5777  0.4542 -0.4959
   40POPC   C26 5360   0.081   0.657  15.850 -0.5321 -0.1172  0.4053
   40POPC   H6R 5361   0.097   0.604  15.946 -0.5040 -0.1436  0.3863
   40POPC   H6S 5362   0.071   0.572  15.779  2.4413 -0.0631 -0.2055
   40POPC   C27 5363  -0.038   0.751  15.834 -0.4584 -0.0283 -0.4453
   40POPC   H7R 5364  -0.004   0.824  15.757  1.3630  0.8466  1.1181
   40POPC   H7S 5365  -0.036   0.811  15.927  0.1651  1.7293 -1.5498
   40POPC   C28 5366  -0.177   0.696  15.786 -0.6470  0.8261 -0.0476
   40POPC   H8R 5367  -0.214   0.624  15.863 -1.2441  1.1525 -0.0269
   40POPC   H8S 5368  -0.163   0.634  15.695 -2.5205 -1.5902  1.1748
   40POPC   C29 5369  -0.277   0.799  15.744 -0.0377 -0.7619  0.6861
   40POPC   H91 5370  -0.231   0.891  15.706  0.7141 -0.0475  3.1095
   40POPC  C210 5371  -0.410   0.808  15.778  0.8004  0.0189 -0.6297
   40POPC  H101 5372  -0.474   0.895  15.756  0.7226  0.1610  0.1181
   40POPC  C211 5373  -0.483   0.704  15.862  0.0020 -0.1756 -0.1342
   40POPC  H11R 5374  -0.472   0.713  15.972  1.8528  0.8748 -0.3543
   40POPC  H11S 5375  -0.430   0.606  15.850 -1.2146 -0.7100 -1.4222
   40POPC  C212 5376  -0.637   0.684  15.835  0.2252 -0.1315 -0.6086
   40POPC  H12R 5377  -0.654   0.581  15.874 -1.1931  0.0381 -0.7072
   40POPC  H12S 5378  -0.642   0.681  15.724  1.9429 -1.0992 -0.6863
   40POPC  C213 5379  -0.725   0.787  15.904 -0.3657  0.2221 -0.1020
   40POPC  H13R 5380  -0.823   0.777  15.854  0.0472 -2.7910 -0.5320
   40POPC  H13S 5381  -0.673   0.885  15.902  1.4725 -0.6535  1.2367
   40POPC  C214 5382  -0.754   0.759  16.055 -0.0939 -0.3458  0.0147
   40POPC  H14R 5383  -0.664   0.753  16.121  0.3860 -1.1237 -0.6845
   40POPC  H14S 5384  -0.801   0.658  16.062 -1.3889  0.2827  0.5967
   40POPC  C215 5385  -0.856   0.862  16.109  0.1337 -0.6193  0.1921
   40POPC  H15R 5386  -0.945   0.864  16.042 -0.5423 -0.2282  1.0869
   40POPC  H15S 5387  -0.801   0.958  16.107  0.5854 -0.8827 -0.6784
   40POPC  C216 5388  -0.902   0.828  16.252  0.0504  0.2474 -0.0824
   40POPC  H16R 5389  -0.813   0.805  16.315 -1.3132 -1.0036  1.4773
   40POPC  H16S 5390  -0.947   0.727  16.245 -0.3681  0.2530  1.9039
   40POPC  C217 5391  -1.000   0.920  16.325  0.8672 -0.0610 -0.7744
   40POPC  H17R 5392  -0.963   1.025  16.322  1.4909 -0.1612  1.4372
   40POPC  H17S 5393  -1.005   0.881  16.430  0.5342  0.3049 -0.6516
   40POPC  C218 5394  -1.139   0.914  16.265  0.2026 -1.1284  0.2896
   40POPC  H18R 5395  -1.165   0.806  16.259  2.2604 -1.7484  1.5383
   40POPC  H18S 5396  -1.145   0.943  16.158  0.4837 -1.0715  0.2899
   40POPC  H18T 5397  -1.211   0.963  16.334 -0.1389 -2.3512  0.8260
   40POPC   C33 5398   0.042   0.144  15.906  0.5559  0.1187 -0.4819
   40POPC   H3X 5399   0.074   0.039  15.890  1.2643 -0.4414  3.6326
   40POPC   H3Y 5400   0.025   0.206  15.815  0.0710  0.2256 -0.3194
   40POPC   C34 5401  -0.086   0.149  15.992  0.6991 -0.2054 -0.4861
   40POPC   H4X 5402  -0.069   0.090  16.085  1.3780 -0.6716 -0.9002
   40POPC   H4Y 5403  -0.162   0.096  15.931  1.3593  2.2136 -3.6287
   40POPC   C35 5404  -0.139   0.288  16.033  0.4816 -0.8820  0.2194
   40POPC   H5X 5405  -0.175   0.330  15.937  0.7212 -2.2719 -0.5074
   40POPC   H5Y 5406  -0.064   0.358  16.076 -1.5929  0.5263  1.7591
   40POPC   C36 5407  -0.261   0.292  16.126 -0.2289 -0.0847 -1.0127
   40POPC   H6X 5408  -0.242   0.299  16.235 -0.8236  2.5479 -1.0215
   40POPC   H6Y 5409  -0.336   0.210  16.118 -0.1280 -0.5179  1.7738
   40POPC   C37 5410  -0.338   0.419  16.096  0.4656 -0.2786  0.0053
   40POPC   H7X 5411  -0.353   0.431  15.986 -1.4455  1.7537  0.4238
   40POPC   H7Y 5412  -0.286   0.512  16.127 -1.3554  1.2631 -1.3668
   40POPC   C38 5413  -0.477   0.420  16.159  0.1865 -1.1247 -0.3575
   40POPC   H8X 5414  -0.539   0.506  16.125  0.2903 -1.5931 -1.8179
   40POPC   H8Y 5415  -0.468   0.437  16.268  1.0730  0.0025 -0.5917
   40POPC   C39 5416  -0.580   0.300  16.128 -0.7262  0.0217  0.7351
   40POPC   H9X 5417  -0.539   0.203  16.166 -3.0221 -0.9590  0.8539
   40POPC   H9Y 5418  -0.585   0.292  16.018  0.5617  1.0627  0.5789
   40POPC  C310 5419  -0.714   0.307  16.204 -0.6795 -0.6544 -0.2139
   40POPC  H10X 5420  -0.686   0.318  16.310  0.2767  2.5566 -0.7089
   40POPC  H10Y 5421  -0.763   0.207  16.200  0.9311 -1.4977  0.4870
   40POPC  C311 5422  -0.807   0.418  16.164 -0.4460 -0.3717 -0.4036
   40POPC  H11X 5423  -0.815   0.433  16.055  1.7926  2.6147 -0.2687
   40POPC  H11Y 5424  -0.763   0.511  16.204  0.4340 -1.7347  2.0120
   40POPC  C312 5425  -0.949   0.410  16.222 -0.3550  0.0077 -0.1686
   40POPC  H12X 5426  -0.949   0.454  16.324 -2.8838 -0.2720  0.0068
   40POPC  H12Y 5427  -0.968   0.301  16.227  0.6757 -0.2436 -1.2570
   40POPC  C313 5428  -1.057   0.476  16.138  0.3458 -0.2261 -0.3459
   40POPC  H13X 5429  -1.022   0.578  16.111  0.3492  0.2608  1.3929
   40POPC  H13Y 5430  -1.147   0.496  16.200  0.5319 -0.6357  0.0643
   40POPC  C314 5431  -1.095   0.403  16.021  0.1419  0.1948 -0.5255
   40POPC  H14X 5432  -1.124   0.301  16.052 -0.8133  0.4498 -0.5296
   40POPC  H14Y 5433  -1.009   0.382  15.955  1.3545  0.9149  0.7623
   40POPC  C315 5434  -1.205   0.474  15.943  0.3729 -0.3549  0.2774
   40POPC  H15X 5435  -1.284   0.496  16.018 -0.2054 -1.3300 -0.0428
   40POPC  H15Y 5436  -1.245   0.409  15.863 -1.2737  2.1619 -1.0707
   40POPC  C316 5437  -1.157   0.600  15.867  0.0085  0.6427 -0.7148
   40POPC  H16X 5438  -1.150   0.681  15.943 -1.5324  0.9595 -0.8796
   40POPC  H16Y 5439  -1.233   0.632  15.793  2.3078  2.6691 -2.3844
   40POPC  H16Z 5440  -1.064   0.583  15.807 -0.3478  1.9539 -1.7011
   41CHL1    C3 5441   3.822   0.728  20.508 -0.2213  0.5591  0.2128
   41CHL1    H3 5442   3.919   0.684  20.476 -0.0204  0.3520  1.0941
   41CHL1    O3 5443   3.831   0.735  20.652 -0.4194 -0.4282 -0.0593
   41CHL1   H3' 5444   3.750   0.784  20.671 -0.5597 -1.1932  1.4403
   41CHL1    C4 5445   3.805   0.871  20.456  0.6565  0.3384  0.2046
   41CHL1   H4A 5446   3.718   0.905  20.516  0.5741  0.7989 -0.1697
   41CHL1   H4B 5447   3.895   0.930  20.486  0.6522  2.2262 -2.9691
   41CHL1    C5 5448   3.783   0.890  20.307 -0.2084  0.5371 -0.2397
   41CHL1    C6 5449   3.857   0.979  20.232  0.6924 -0.1044 -0.7373
   41CHL1    H6 5450   3.940   1.022  20.290  0.7503  0.9999 -1.5980
   41CHL1    C7 5451   3.842   0.991  20.084  0.3663  0.6970 -0.6436
   41CHL1   H7A 5452   3.853   1.098  20.057  2.6446  0.5366 -0.5435
   41CHL1   H7B 5453   3.929   0.945  20.034  1.5162  3.9666 -1.9127
   41CHL1    C8 5454   3.710   0.926  20.031 -0.1465 -0.1545  1.3861
   41CHL1    H8 5455   3.622   0.981  20.071 -0.4843 -2.0529  3.4362
   41CHL1   C14 5456   3.718   0.914  19.885  0.2513 -0.6615  0.5062
   41CHL1   H14 5457   3.808   0.850  19.872  2.0211  1.4135  1.6877
   41CHL1   C15 5458   3.755   1.040  19.800 -0.3841 -0.1023  0.5658
   41CHL1  H15A 5459   3.709   1.136  19.829 -0.2043  0.3513 -0.5887
   41CHL1  H15B 5460   3.864   1.063  19.807 -0.4859  0.0467  1.7823
   41CHL1   C16 5461   3.711   1.000  19.656  0.2853 -0.9313  0.0582
   41CHL1  H16A 5462   3.623   1.066  19.640  1.2050  0.6615  1.3470
   41CHL1  H16B 5463   3.790   1.012  19.579 -1.1563 -1.1392 -1.5295
   41CHL1   C17 5464   3.646   0.855  19.665 -0.4608  0.2069  0.0099
   41CHL1   H17 5465   3.732   0.787  19.647 -0.2330  0.6712 -0.7268
   41CHL1   C13 5466   3.600   0.837  19.815 -0.4833 -0.2444 -0.2858
   41CHL1   C18 5467   3.472   0.912  19.836 -0.5961 -0.5099  0.4469
   41CHL1  H18A 5468   3.402   0.873  19.759  0.5779  1.7561 -1.9197
   41CHL1  H18B 5469   3.423   0.897  19.935  0.6989  1.4093  1.4395
   41CHL1  H18C 5470   3.483   1.021  19.817 -0.5613 -0.1684  2.2434
   41CHL1   C12 5471   3.591   0.698  19.872 -0.5269 -0.3676  0.8030
   41CHL1  H12A 5472   3.516   0.632  19.825  1.2850 -2.1351  0.2615
   41CHL1  H12B 5473   3.683   0.651  19.832  0.6067  2.2337  0.1005
   41CHL1   C11 5474   3.584   0.693  20.025  0.0583  0.2724  0.0800
   41CHL1  H11A 5475   3.477   0.712  20.049 -0.4843 -1.4322 -0.8352
   41CHL1  H11B 5476   3.605   0.588  20.052 -0.5365  0.1867  0.2186
   41CHL1    C9 5477   3.692   0.787  20.096  0.0780  0.2681  0.7992
   41CHL1    H9 5478   3.788   0.734  20.077 -1.6067 -2.5005 -0.6284
   41CHL1   C10 5479   3.675   0.792  20.246 -0.0329 -0.5835  0.2411
   41CHL1   C19 5480   3.531   0.842  20.282 -0.4494  0.1272  0.2303
   41CHL1  H19A 5481   3.457   0.762  20.261 -1.0224  0.6318  0.2939
   41CHL1  H19B 5482   3.538   0.867  20.390  0.9082  0.9730 -0.0362
   41CHL1  H19C 5483   3.508   0.935  20.227  0.6267 -0.2048 -0.7980
   41CHL1    C1 5484   3.684   0.648  20.307 -0.3133 -0.7960  0.2029
   41CHL1   H1A 5485   3.603   0.582  20.270  0.0676 -1.3465  0.3379
   41CHL1   H1B 5486   3.787   0.621  20.273  0.7572  3.0373 -0.0970
   41CHL1    C2 5487   3.707   0.633  20.457  0.0336 -0.3952 -0.5610
   41CHL1   H2A 5488   3.729   0.526  20.475 -0.9808 -0.9392 -2.3510
   41CHL1   H2B 5489   3.613   0.657  20.511  0.9641  0.9046  0.5552
   41CHL1   C20 5490   3.550   0.823  19.549  0.3105 -0.4897  0.5415
   41CHL1   H20 5491   3.457   0.882  19.569  0.9614  0.9976 -0.6096
   41CHL1   C21 5492   3.511   0.670  19.558 -0.6317  0.0595 -0.5219
   41CHL1  H21A 5493   3.433   0.646  19.633  2.0009  0.1193  2.3966
   41CHL1  H21B 5494   3.602   0.607  19.550 -1.2670 -0.8050 -1.2021
   41CHL1  H21C 5495   3.455   0.646  19.465 -1.4417 -0.4620  0.0854
   41CHL1   C22 5496   3.615   0.861  19.420  0.0372 -0.0212  0.2494
   41CHL1  H22A 5497   3.650   0.967  19.416  0.8117 -0.2481  0.9302
   41CHL1  H22B 5498   3.702   0.800  19.388  2.4904  1.4892  3.5303
   41CHL1   C23 5499   3.505   0.866  19.308  0.3529  0.2947  0.1475
   41CHL1  H23A 5500   3.461   0.765  19.294  0.8332  0.1405 -0.2829
   41CHL1  H23B 5501   3.418   0.931  19.332 -1.7254 -0.5267 -4.2444
   41CHL1   C24 5502   3.560   0.912  19.170 -0.4121  0.3452  0.2531
   41CHL1  H24A 5503   3.591   1.019  19.175  0.0900  0.1340  2.1930
   41CHL1  H24B 5504   3.651   0.854  19.144 -0.7167  1.3856 -3.8494
   41CHL1   C25 5505   3.458   0.906  19.048  0.1489 -0.2582 -0.5573
   41CHL1   H25 5506   3.513   0.937  18.957  1.1117 -2.0667 -0.6438
   41CHL1   C26 5507   3.407   0.765  19.015 -0.0743  0.8576  0.7592
   41CHL1  H26A 5508   3.370   0.770  18.910 -0.5595  1.2552  0.9441
   41CHL1  H26B 5509   3.486   0.687  19.028 -0.5340  0.4130  0.9509
   41CHL1  H26C 5510   3.319   0.733  19.076 -0.6334  0.1786 -0.3748
   41CHL1   C27 5511   3.333   1.001  19.065  0.3569 -0.2180 -0.6920
   41CHL1  H27A 5512   3.294   0.983  19.168 -0.6775  1.0050 -0.8416
   41CHL1  H27B 5513   3.371   1.104  19.057  1.2704 -0.3204  1.7077
   41CHL1  H27C 5514   3.249   0.970  18.998  0.3606  1.9420 -1.7678
   42CHL1    C3 5515   0.783   0.068  20.839  0.6414 -0.0241 -1.2078
   42CHL1    H3 5516   0.737   0.149  20.778 -0.1786  2.2442  2.1296
   42CHL1    O3 5517   0.691   0.017  20.936  0.4677 -0.0514  0.4328
   42CHL1   H3' 5518   0.668   0.090  20.993 -2.0948 -0.4311  0.0016
   42CHL1    C4 5519   0.830  -0.049  20.747 -0.0584 -0.3145  0.2301
   42CHL1   H4A 5520   0.852  -0.135  20.814  3.1606  1.7443  2.0876
   42CHL1   H4B 5521   0.739  -0.083  20.692 -1.9092  0.6995  2.4711
   42CHL1    C5 5522   0.952  -0.014  20.668 -0.4869 -0.1644  0.2247
   42CHL1    C6 5523   0.950  -0.023  20.538 -0.1688 -0.1425  0.0416
   42CHL1    H6 5524   0.871  -0.073  20.479  2.0958 -0.1061 -3.3575
   42CHL1    C7 5525   1.068   0.009  20.449  0.1556 -0.4131 -0.0414
   42CHL1   H7A 5526   1.079  -0.081  20.384  0.7042 -1.1307  1.0216
   42CHL1   H7B 5527   1.047   0.099  20.387  1.2819 -0.9526 -1.2606
   42CHL1    C8 5528   1.197   0.019  20.533  0.2851 -0.0447  0.2210
   42CHL1    H8 5529   1.236  -0.080  20.565  0.4393  0.0111  0.2037
   42CHL1   C14 5530   1.302   0.090  20.439 -0.4456  0.1840 -1.0004
   42CHL1   H14 5531   1.270   0.196  20.429 -0.1288  0.3846 -0.0079
   42CHL1   C15 5532   1.319   0.043  20.300  0.1632  0.0204  1.4793
   42CHL1  H15A 5533   1.342  -0.063  20.279 -1.6267 -0.1312  0.0881
   42CHL1  H15B 5534   1.238   0.065  20.227  0.0717 -1.3582  1.1444
   42CHL1   C16 5535   1.444   0.124  20.257  0.0255 -0.2880 -0.1870
   42CHL1  H16A 5536   1.511   0.060  20.195  0.8964  0.0118  0.4296
   42CHL1  H16B 5537   1.419   0.200  20.180  1.0047 -0.2220 -0.4576
   42CHL1   C17 5538   1.511   0.172  20.386 -0.2117  0.2079 -0.2479
   42CHL1   H17 5539   1.487   0.281  20.393  1.9576  0.6663  0.7806
   42CHL1   C13 5540   1.441   0.101  20.504  0.1453  0.2556 -0.1425
   42CHL1   C18 5541   1.497  -0.049  20.514  0.2733 -0.7531 -0.8691
   42CHL1  H18A 5542   1.495  -0.105  20.418 -2.3475 -1.6259 -0.4064
   42CHL1  H18B 5543   1.600  -0.041  20.554 -1.2771  5.5728  3.2284
   42CHL1  H18C 5544   1.440  -0.107  20.591  0.0088 -0.4167 -0.8088
   42CHL1   C12 5545   1.414   0.179  20.633  0.1372 -0.3520 -0.7527
   42CHL1  H12A 5546   1.511   0.204  20.681  0.0111  0.2114 -0.7809
   42CHL1  H12B 5547   1.364   0.274  20.602 -0.0383 -0.6830 -1.5222
   42CHL1   C11 5548   1.318   0.112  20.738 -0.4328  0.6783  0.2471
   42CHL1  H11A 5549   1.363   0.015  20.769  0.8414  0.9388 -0.6998
   42CHL1  H11B 5550   1.297   0.181  20.823  1.4771  0.0060  1.3073
   42CHL1    C9 5551   1.180   0.095  20.662 -0.5096  0.0864 -0.7882
   42CHL1    H9 5552   1.158   0.200  20.632  0.4287  0.4077 -0.4106
   42CHL1   C10 5553   1.069   0.041  20.749 -0.3151  0.0315 -0.4706
   42CHL1   C19 5554   1.127  -0.075  20.842  0.0573  0.2026 -0.1084
   42CHL1  H19A 5555   1.194  -0.028  20.917 -0.6533 -0.2003  0.8038
   42CHL1  H19B 5556   1.050  -0.129  20.901 -0.2906  1.5744  0.7421
   42CHL1  H19C 5557   1.179  -0.153  20.782 -3.2486 -1.3520 -1.1804
   42CHL1    C1 5558   1.016   0.152  20.843 -0.0391 -0.8142  0.1508
   42CHL1   H1A 5559   1.096   0.199  20.905 -0.3085 -0.5374  0.2874
   42CHL1   H1B 5560   0.968   0.236  20.788  0.7840 -0.5378 -0.1626
   42CHL1    C2 5561   0.896   0.115  20.926 -0.3187 -0.2193  0.4672
   42CHL1   H2A 5562   0.879   0.208  20.983  1.0078  0.4948 -0.2445
   42CHL1   H2B 5563   0.927   0.044  21.005  0.1134 -0.0043  0.4923
   42CHL1   C20 5564   1.664   0.174  20.387 -0.3984 -0.4501  0.2124
   42CHL1   H20 5565   1.711   0.077  20.414 -0.9455 -0.1906  2.2621
   42CHL1   C21 5566   1.702   0.267  20.497  0.1279  0.2460  0.3141
   42CHL1  H21A 5567   1.700   0.221  20.598 -1.5879 -0.4324 -0.0121
   42CHL1  H21B 5568   1.638   0.357  20.504 -1.3944 -0.9097  2.6313
   42CHL1  H21C 5569   1.808   0.298  20.483  1.0445 -2.3590  1.0236
   42CHL1   C22 5570   1.732   0.227  20.257 -0.0740 -0.5261  0.2973
   42CHL1  H22A 5571   1.841   0.232  20.277  0.0718  0.5293 -0.6497
   42CHL1  H22B 5572   1.719   0.146  20.181  1.5164 -0.9032  0.3904
   42CHL1   C23 5573   1.704   0.367  20.212  0.5922  0.1413  0.2259
   42CHL1  H23A 5574   1.598   0.375  20.177 -0.2004 -0.8926  2.2690
   42CHL1  H23B 5575   1.709   0.435  20.300  0.1083 -0.1672  0.4948
   42CHL1   C24 5576   1.808   0.406  20.098  0.3660 -0.2241  0.3089
   42CHL1  H24A 5577   1.903   0.361  20.133 -0.5099 -2.0860  0.3760
   42CHL1  H24B 5578   1.783   0.369  19.997 -2.4393  1.3684  0.3015
   42CHL1   C25 5579   1.835   0.554  20.083  0.7016  0.5808  0.2795
   42CHL1   H25 5580   1.886   0.581  20.178  1.1727 -2.0944  0.8707
   42CHL1   C26 5581   1.938   0.576  19.972 -0.5041 -0.6150 -0.0163
   42CHL1  H26A 5582   1.891   0.583  19.872 -0.0826  0.9347 -0.1365
   42CHL1  H26B 5583   2.009   0.660  19.992  0.1518 -1.5256  1.6663
   42CHL1  H26C 5584   2.003   0.486  19.963  0.8559  0.3989 -0.6812
   42CHL1   C27 5585   1.713   0.645  20.070 -0.0109  0.1861 -0.5635
   42CHL1  H27A 5586   1.651   0.644  20.162 -1.0848 -0.8285 -1.2668
   42CHL1  H27B 5587   1.739   0.750  20.046 -0.8191 -0.1085 -3.0314
   42CHL1  H27C 5588   1.638   0.615  19.994  1.1623  1.6759 -2.4130
   43CHL1    C3 5589   3.710   1.310  20.576  0.9262  0.3899  0.3085
   43CHL1    H3 5590   3.601   1.333  20.575 -0.1507 -3.7565  1.0841
   43CHL1    O3 5591   3.724   1.222  20.685 -0.3870 -0.2116  0.6194
   43CHL1   H3' 5592   3.730   1.284  20.757  1.0832  3.6496 -2.4449
   43CHL1    C4 5593   3.752   1.224  20.461 -0.3895  0.6940  0.0723
   43CHL1   H4A 5594   3.852   1.177  20.474 -1.2062 -0.9230  0.8911
   43CHL1   H4B 5595   3.689   1.133  20.454 -1.6963  1.6045 -0.3672
   43CHL1    C5 5596   3.743   1.307  20.335  0.3628 -1.0473  0.5859
   43CHL1    C6 5597   3.662   1.274  20.231 -0.7746 -0.4809 -0.0104
   43CHL1    H6 5598   3.595   1.187  20.245 -1.7766  0.2375 -0.2336
   43CHL1    C7 5599   3.657   1.337  20.095  0.1554  0.1209  0.3765
   43CHL1   H7A 5600   3.670   1.253  20.024 -1.4813 -0.4709  0.7437
   43CHL1   H7B 5601   3.566   1.395  20.071  0.2710  0.1876  0.0862
   43CHL1    C8 5602   3.782   1.436  20.083 -0.3592  0.2686 -0.0364
   43CHL1    H8 5603   3.868   1.366  20.073 -0.9946 -0.5314 -0.0218
   43CHL1   C14 5604   3.761   1.514  19.961  0.2955 -0.0651 -0.4507
   43CHL1   H14 5605   3.671   1.577  19.977  0.6993  0.2129  0.8485
   43CHL1   C15 5606   3.726   1.443  19.825 -0.2820  0.4737 -0.7335
   43CHL1  H15A 5607   3.794   1.356  19.814 -0.1216  0.2180  1.6645
   43CHL1  H15B 5608   3.625   1.399  19.809 -0.6407  0.2368  1.7430
   43CHL1   C16 5609   3.749   1.552  19.720  0.4828  0.5566 -0.0986
   43CHL1  H16A 5610   3.808   1.511  19.636  2.0536 -0.8755  1.6082
   43CHL1  H16B 5611   3.647   1.582  19.688 -0.0007  1.0717  1.7876
   43CHL1   C17 5612   3.815   1.671  19.795  0.4586 -0.6782 -0.0749
   43CHL1   H17 5613   3.726   1.730  19.825 -0.2299 -1.4497 -0.5510
   43CHL1   C13 5614   3.864   1.618  19.934  0.0471  0.1407 -0.0116
   43CHL1   C18 5615   3.996   1.548  19.903  0.1683 -0.3474 -0.5331
   43CHL1  H18A 5616   4.073   1.628  19.908 -2.0883  1.8840  1.7983
   43CHL1  H18B 5617   4.035   1.478  19.980 -0.3733 -0.6985 -0.5713
   43CHL1  H18C 5618   4.003   1.509  19.799  0.1492 -1.2278 -0.2094
   43CHL1   C12 5619   3.872   1.711  20.058  0.1963  0.4371  0.0540
   43CHL1  H12A 5620   3.952   1.789  20.055  0.2453  0.5896  2.6980
   43CHL1  H12B 5621   3.772   1.759  20.069 -0.4091 -0.9019  0.5360
   43CHL1   C11 5622   3.908   1.635  20.188  0.5689  0.1578 -0.1847
   43CHL1  H11A 5623   4.000   1.578  20.166  0.4942  0.0363 -0.1873
   43CHL1  H11B 5624   3.913   1.694  20.281  0.9670 -0.4212  0.1662
   43CHL1    C9 5625   3.801   1.517  20.211  0.6365 -0.6685 -0.4050
   43CHL1    H9 5626   3.700   1.562  20.220  1.3450  1.1150 -0.9814
   43CHL1   C10 5627   3.833   1.432  20.340  0.4001 -0.7112 -0.1552
   43CHL1   C19 5628   3.986   1.404  20.347 -0.0982 -0.1111  0.0888
   43CHL1  H19A 5629   4.048   1.492  20.373  0.6553 -0.8269  0.7975
   43CHL1  H19B 5630   4.010   1.328  20.425 -0.8264 -1.2431 -0.7438
   43CHL1  H19C 5631   4.027   1.363  20.252  0.1164  0.4987 -0.0829
   43CHL1    C1 5632   3.796   1.519  20.466  0.2487 -0.3112 -0.4476
   43CHL1   H1A 5633   3.862   1.609  20.467 -1.3863  0.9338 -1.1473
   43CHL1   H1B 5634   3.692   1.556  20.456  0.7181  1.5521  0.9659
   43CHL1    C2 5635   3.797   1.438  20.594 -0.0184 -0.5120  0.2220
   43CHL1   H2A 5636   3.756   1.500  20.677  1.0004  0.1880  0.2303
   43CHL1   H2B 5637   3.902   1.407  20.617 -0.1242 -1.2733 -0.3196
   43CHL1   C20 5638   3.901   1.766  19.709 -0.0482  0.0829 -0.4090
   43CHL1   H20 5639   3.992   1.716  19.670 -0.9813 -1.0363 -1.2377
   43CHL1   C21 5640   3.948   1.875  19.802  0.1650  0.2168  0.1261
   43CHL1  H21A 5641   4.008   1.954  19.751  2.6029 -2.6354 -1.7646
   43CHL1  H21B 5642   4.024   1.845  19.877  1.6931  0.6710 -1.1939
   43CHL1  H21C 5643   3.857   1.896  19.861 -0.3403 -1.9503  0.1902
   43CHL1   C22 5644   3.822   1.833  19.591 -0.5352  0.1116  0.1554
   43CHL1  H22A 5645   3.888   1.910  19.546 -1.7862  1.5693  0.7284
   43CHL1  H22B 5646   3.802   1.750  19.519 -1.4617  0.3721  0.1039
   43CHL1   C23 5647   3.689   1.907  19.618 -0.3003 -0.0917 -0.4736
   43CHL1  H23A 5648   3.619   1.831  19.659 -1.2224  0.8176 -0.3013
   43CHL1  H23B 5649   3.698   1.991  19.690  1.8744 -0.9296  0.3095
   43CHL1   C24 5650   3.618   1.957  19.485  0.6615 -0.7630  0.4766
   43CHL1  H24A 5651   3.670   2.042  19.436  1.9674 -1.7669  0.0602
   43CHL1  H24B 5652   3.623   1.881  19.404 -2.5436  0.9923 -1.5512
   43CHL1   C25 5653   3.467   2.008  19.501 -0.0642  0.4012 -0.4540
   43CHL1   H25 5654   3.450   2.058  19.599 -1.0611 -3.0170  1.2537
   43CHL1   C26 5655   3.422   2.104  19.389 -0.6995  0.5426 -0.3746
   43CHL1  H26A 5656   3.314   2.130  19.386 -0.9131 -0.2921 -3.2457
   43CHL1  H26B 5657   3.483   2.197  19.397  0.6451 -0.3973  0.9282
   43CHL1  H26C 5658   3.434   2.062  19.287  0.3984 -2.0434  0.7275
   43CHL1   C27 5659   3.383   1.881  19.507  0.7862  0.4560 -0.5959
   43CHL1  H27A 5660   3.274   1.899  19.518  1.1106  0.7258  3.6993
   43CHL1  H27B 5661   3.398   1.819  19.416  0.6768  0.9040 -0.9219
   43CHL1  H27C 5662   3.412   1.828  19.600  0.2789  1.5277  0.1965
   44CHL1    C3 5663   0.792   0.493  25.800 -0.3648 -0.1398 -1.0687
   44CHL1    H3 5664   0.809   0.599  25.827  0.4346 -1.2927  3.9649
   44CHL1    O3 5665   0.733   0.442  25.914  0.1971  0.2629 -0.0652
   44CHL1   H3' 5666   0.638   0.433  25.905  0.3792 -0.5357 -1.5233
   44CHL1    C4 5667   0.707   0.496  25.677  0.4205  0.0186 -0.4999
   44CHL1   H4A 5668   0.638   0.409  25.680  1.5908 -0.9017  0.5128
   44CHL1   H4B 5669   0.643   0.587  25.684  1.5157  1.0297 -2.4994
   44CHL1    C5 5670   0.775   0.513  25.540  1.4116  0.9875 -0.9039
   44CHL1    C6 5671   0.709   0.584  25.445  0.0002  0.2225  0.2452
   44CHL1    H6 5672   0.607   0.624  25.456  0.0959  0.8799 -1.0783
   44CHL1    C7 5673   0.765   0.604  25.304  0.3994 -0.3700 -0.1033
   44CHL1   H7A 5674   0.687   0.600  25.225  0.9259  1.8078 -0.8086
   44CHL1   H7B 5675   0.792   0.711  25.297 -0.4183 -0.2392 -1.8416
   44CHL1    C8 5676   0.886   0.514  25.270 -0.1126  0.2077  1.4347
   44CHL1    H8 5677   0.855   0.410  25.246  2.2144 -0.1213 -0.4880
   44CHL1   C14 5678   0.960   0.561  25.143 -0.3605 -0.3775  0.8094
   44CHL1   H14 5679   0.987   0.666  25.167 -0.5843 -0.3088  0.7632
   44CHL1   C15 5680   0.875   0.567  25.011  0.6087  0.5137 -0.0483
   44CHL1  H15A 5681   0.821   0.473  24.991  0.9635  1.1444 -5.5293
   44CHL1  H15B 5682   0.809   0.657  25.013  0.4782  0.5901 -2.9476
   44CHL1   C16 5683   0.985   0.562  24.907  0.0039 -0.2268  0.4378
   44CHL1  H16A 5684   0.969   0.473  24.842 -0.1441  1.0585 -1.3792
   44CHL1  H16B 5685   0.981   0.648  24.836  0.0591 -0.8799 -0.3835
   44CHL1   C17 5686   1.120   0.546  24.980 -0.2389 -0.4510  0.0273
   44CHL1   H17 5687   1.157   0.650  24.993 -1.8197  0.1426  0.0065
   44CHL1   C13 5688   1.084   0.483  25.116 -0.1233  0.4392 -0.0740
   44CHL1   C18 5689   1.060   0.331  25.098  0.0969  0.9384 -0.0459
   44CHL1  H18A 5690   1.160   0.288  25.079  0.0222  0.8179 -0.1686
   44CHL1  H18B 5691   1.012   0.272  25.179 -1.7138  1.1853 -0.8927
   44CHL1  H18C 5692   0.994   0.323  25.009 -0.2953  1.1060  0.2260
   44CHL1   C12 5693   1.183   0.502  25.231 -0.4206  0.1978  0.5283
   44CHL1  H12A 5694   1.278   0.445  25.224 -0.9897 -1.2743  3.3579
   44CHL1  H12B 5695   1.218   0.608  25.236  3.5530 -0.9160  0.3778
   44CHL1   C11 5696   1.123   0.458  25.369 -0.2739  0.0502 -0.2382
   44CHL1  H11A 5697   1.112   0.348  25.361 -2.3736  0.2372 -0.8130
   44CHL1  H11B 5698   1.193   0.473  25.453  1.6636 -2.2524 -1.3330
   44CHL1    C9 5699   0.981   0.513  25.394  0.9844  0.5106 -0.1069
   44CHL1    H9 5700   0.978   0.620  25.424 -1.7902  0.6833 -0.7563
   44CHL1   C10 5701   0.917   0.455  25.521  0.4657  0.1351 -0.4530
   44CHL1   C19 5702   0.905   0.301  25.497 -0.1408  0.4275  0.0684
   44CHL1  H19A 5703   1.000   0.247  25.514 -0.8073 -1.6342 -2.1771
   44CHL1  H19B 5704   0.838   0.258  25.575 -0.4027 -1.0241 -0.9118
   44CHL1  H19C 5705   0.858   0.267  25.402 -0.5536 -1.0623  0.7767
   44CHL1    C1 5706   1.005   0.474  25.653 -0.0490 -0.0663  0.1144
   44CHL1   H1A 5707   1.107   0.434  25.635  0.5048  1.7505 -0.9727
   44CHL1   H1B 5708   1.030   0.582  25.652  0.1920 -0.1143  0.5330
   44CHL1    C2 5709   0.935   0.420  25.781 -0.4468  0.6330 -0.3304
   44CHL1   H2A 5710   0.991   0.439  25.875 -1.2112  0.0963  0.2391
   44CHL1   H2B 5711   0.911   0.312  25.787 -0.8653  0.7737  0.7803
   44CHL1   C20 5712   1.220   0.476  24.888 -0.3047  0.3909  0.3129
   44CHL1   H20 5713   1.184   0.372  24.873 -0.3290  0.1086  2.1211
   44CHL1   C21 5714   1.358   0.488  24.962  0.1610 -0.1644  0.1288
   44CHL1  H21A 5715   1.371   0.578  25.027  1.0077  1.3344 -2.0010
   44CHL1  H21B 5716   1.437   0.455  24.892 -1.0866 -2.6558 -0.2193
   44CHL1  H21C 5717   1.349   0.401  25.030  0.2667 -1.7418 -1.8092
   44CHL1   C22 5718   1.242   0.549  24.757  0.1363  0.0827 -0.8122
   44CHL1  H22A 5719   1.146   0.590  24.719  0.7264  1.5722 -0.7500
   44CHL1  H22B 5720   1.297   0.640  24.788 -0.5796 -0.1293  1.2371
   44CHL1   C23 5721   1.316   0.474  24.646  0.5372  0.1468 -0.0326
   44CHL1  H23A 5722   1.426   0.471  24.659  0.8770 -2.7594 -2.4603
   44CHL1  H23B 5723   1.276   0.371  24.656 -1.4373  0.6819 -1.5681
   44CHL1   C24 5724   1.300   0.534  24.498  0.1215  0.0356  0.0786
   44CHL1  H24A 5725   1.198   0.514  24.458  0.3953 -0.5560 -0.3367
   44CHL1  H24B 5726   1.323   0.643  24.489  1.1844 -0.2458 -0.6817
   44CHL1   C25 5727   1.391   0.467  24.394  0.0036 -0.6745  0.3597
   44CHL1   H25 5728   1.498   0.484  24.417  0.2708 -0.5678 -0.8682
   44CHL1   C26 5729   1.356   0.322  24.391 -0.1009 -0.1877  0.4064
   44CHL1  H26A 5730   1.379   0.267  24.484  0.3519  0.6725  0.8198
   44CHL1  H26B 5731   1.247   0.321  24.370 -0.5847  0.2657  2.6541
   44CHL1  H26C 5732   1.399   0.275  24.300  2.3706 -1.4766  2.1268
   44CHL1   C27 5733   1.357   0.530  24.257 -0.6033 -0.0902 -0.2386
   44CHL1  H27A 5734   1.248   0.541  24.237 -0.2977  1.9597 -1.0676
   44CHL1  H27B 5735   1.401   0.632  24.249  2.9503 -1.6195 -1.7612
   44CHL1  H27C 5736   1.400   0.464  24.180  0.4743 -1.5903  1.5870
   45CHL1    C3 5737   0.755   3.483  22.950 -0.5897  0.3802  0.2424
   45CHL1    H3 5738   0.763   3.401  23.025 -0.1993  0.5503  0.3924
   45CHL1    O3 5739   0.634   3.462  22.887  0.9142  0.5869 -0.0325
   45CHL1   H3' 5740   0.642   3.531  22.821 -0.4511  0.5146 -0.2915
   45CHL1    C4 5741   0.767   3.626  23.011  0.0985  1.3058  1.1775
   45CHL1   H4A 5742   0.751   3.688  22.920  1.5189 -1.4117 -1.0634
   45CHL1   H4B 5743   0.683   3.638  23.082 -1.2065  0.8602 -0.2303
   45CHL1    C5 5744   0.897   3.662  23.082 -0.5802  0.6091 -0.1339
   45CHL1    C6 5745   0.896   3.685  23.215  0.8293  0.2103  0.0813
   45CHL1    H6 5746   0.804   3.682  23.276  1.2689  1.2348  0.8319
   45CHL1    C7 5747   1.023   3.709  23.287 -1.2517 -0.2286 -0.6364
   45CHL1   H7A 5748   1.015   3.790  23.364  1.1071 -0.8416  0.3504
   45CHL1   H7B 5749   1.057   3.621  23.346  2.1917  0.4993 -1.2756
   45CHL1    C8 5750   1.151   3.742  23.197  0.3835 -0.4267  0.9512
   45CHL1    H8 5751   1.240   3.708  23.254  0.3814 -1.9186  0.1265
   45CHL1   C14 5752   1.176   3.890  23.162 -0.6084 -0.2777  0.2964
   45CHL1   H14 5753   1.090   3.926  23.101 -2.2413 -1.1697  1.9664
   45CHL1   C15 5754   1.196   3.978  23.280 -0.5947 -0.0309 -0.0509
   45CHL1  H15A 5755   1.147   4.077  23.266 -3.4022 -1.4856 -1.4156
   45CHL1  H15B 5756   1.154   3.929  23.370  1.0850 -2.1650 -0.3232
   45CHL1   C16 5757   1.351   4.002  23.307 -0.2053  0.1239 -0.0868
   45CHL1  H16A 5758   1.380   4.109  23.313  1.0539 -0.2793  2.8714
   45CHL1  H16B 5759   1.388   3.955  23.401 -2.0672  0.4601  0.8442
   45CHL1   C17 5760   1.416   3.933  23.178 -0.1162  0.1191 -0.3737
   45CHL1   H17 5761   1.435   3.828  23.211 -0.0428 -0.0088 -0.8213
   45CHL1   C13 5762   1.304   3.914  23.074  0.5977 -0.3623 -0.7159
   45CHL1   C18 5763   1.280   4.041  23.000 -0.3783 -0.3544  0.3790
   45CHL1  H18A 5764   1.201   4.029  22.923  1.1657 -0.5869 -1.2367
   45CHL1  H18B 5765   1.235   4.121  23.063  1.2549  1.6636 -0.9225
   45CHL1  H18C 5766   1.368   4.084  22.948 -1.7991 -0.4429 -2.2180
   45CHL1   C12 5767   1.328   3.808  22.970 -0.7690 -0.1198  0.7393
   45CHL1  H12A 5768   1.293   3.834  22.868  0.6561  0.8686  0.4732
   45CHL1  H12B 5769   1.438   3.811  22.954 -0.3802  3.9339  2.8650
   45CHL1   C11 5770   1.289   3.666  23.000 -0.4389  0.2519  0.7220
   45CHL1  H11A 5771   1.282   3.594  22.916  3.9113 -2.5838  2.4248
   45CHL1  H11B 5772   1.365   3.619  23.067  0.8769  0.1726 -0.7760
   45CHL1    C9 5773   1.151   3.650  23.070 -0.0346  0.0164 -0.6222
   45CHL1    H9 5774   1.156   3.554  23.126  0.0511  0.0520 -0.5679
   45CHL1   C10 5775   1.020   3.642  22.990  0.4728 -0.1293 -0.6430
   45CHL1   C19 5776   1.017   3.746  22.880  0.0019 -0.5879 -0.3081
   45CHL1  H19A 5777   0.924   3.741  22.820 -0.4010  1.3374  0.0724
   45CHL1  H19B 5778   1.026   3.847  22.926  0.3345 -0.4400 -0.6872
   45CHL1  H19C 5779   1.097   3.734  22.804 -0.3450 -1.1346 -0.5889
   45CHL1    C1 5780   0.999   3.506  22.923  0.1415  0.1564 -0.1023
   45CHL1   H1A 5781   1.082   3.491  22.850  1.2439  0.9967  0.9376
   45CHL1   H1B 5782   1.008   3.425  22.999 -1.4450  0.0045 -0.0377
   45CHL1    C2 5783   0.863   3.469  22.850 -0.4617 -0.8106  0.1659
   45CHL1   H2A 5784   0.862   3.365  22.811 -0.4925 -1.0277  0.7342
   45CHL1   H2B 5785   0.850   3.548  22.772  0.0482 -1.8517 -1.0133
   45CHL1   C20 5786   1.549   3.989  23.118 -0.0033 -0.0516  0.3352
   45CHL1   H20 5787   1.549   3.972  23.008 -0.4542 -0.5154  0.4056
   45CHL1   C21 5788   1.666   3.909  23.177 -0.5239  0.5570 -0.0705
   45CHL1  H21A 5789   1.669   3.798  23.162  0.7481  0.8198 -2.1955
   45CHL1  H21B 5790   1.678   3.927  23.286  1.3017  1.3412 -0.3668
   45CHL1  H21C 5791   1.761   3.941  23.129 -0.2736  0.7891  0.5732
   45CHL1   C22 5792   1.571   4.140  23.134  0.3122 -0.3809 -0.0863
   45CHL1  H22A 5793   1.492   4.208  23.097  0.6729  0.5050  0.7188
   45CHL1  H22B 5794   1.580   4.163  23.243  3.1735  0.2123 -0.3673
   45CHL1   C23 5795   1.695   4.189  23.057  0.1423  0.2157 -0.7952
   45CHL1  H23A 5796   1.784   4.124  23.074  0.1910  0.1419 -1.3402
   45CHL1  H23B 5797   1.672   4.168  22.951 -1.2384 -1.3995 -0.2243
   45CHL1   C24 5798   1.722   4.336  23.076 -0.4288  0.4280 -0.5562
   45CHL1  H24A 5799   1.646   4.391  23.017  0.0536  1.0428 -0.6100
   45CHL1  H24B 5800   1.720   4.357  23.185  1.6715  0.7775 -0.5449
   45CHL1   C25 5801   1.851   4.389  23.017 -0.2244 -0.6351 -0.2899
   45CHL1   H25 5802   1.937   4.326  23.047 -1.5417 -2.3846 -0.0335
   45CHL1   C26 5803   1.836   4.387  22.863 -0.0868  0.0197 -0.6520
   45CHL1  H26A 5804   1.904   4.460  22.814 -0.3174  0.5443 -0.2061
   45CHL1  H26B 5805   1.856   4.287  22.820  0.9887 -0.7886  1.5597
   45CHL1  H26C 5806   1.740   4.428  22.825 -0.4383  0.8727  1.0446
   45CHL1   C27 5807   1.869   4.533  23.073 -0.6635  0.1388  0.0232
   45CHL1  H27A 5808   1.776   4.594  23.064 -0.4180  0.4247 -0.6116
   45CHL1  H27B 5809   1.898   4.525  23.180 -2.6688 -0.7092  0.5516
   45CHL1  H27C 5810   1.957   4.579  23.023 -0.8078  1.4392  0.9200
   46CHL1    C3 5811   0.856   1.462  21.260  0.4561 -0.8029 -0.2129
   46CHL1    H3 5812   0.828   1.569  21.263  0.4364 -0.8159  0.1222
   46CHL1    O3 5813   0.739   1.393  21.305 -0.2070  0.2465  0.1016
   46CHL1   H3' 5814   0.665   1.448  21.277 -0.5809  0.0941  0.7736
   46CHL1    C4 5815   0.879   1.422  21.120 -0.6234 -0.1575 -0.5341
   46CHL1   H4A 5816   0.887   1.311  21.113  1.8879 -0.0779  0.3133
   46CHL1   H4B 5817   0.781   1.450  21.076 -0.7062 -0.0200 -0.2638
   46CHL1    C5 5818   0.999   1.488  21.049  0.6456  1.1919  0.3174
   46CHL1    C6 5819   0.987   1.555  20.932 -0.4611  0.1712  0.0002
   46CHL1    H6 5820   0.891   1.568  20.881 -0.8213 -1.4755  0.1876
   46CHL1    C7 5821   1.103   1.637  20.883  0.1327  0.1503 -0.4060
   46CHL1   H7A 5822   1.090   1.648  20.773 -2.7849 -0.3705 -0.2159
   46CHL1   H7B 5823   1.086   1.739  20.923 -0.5289  0.3985 -1.2788
   46CHL1    C8 5824   1.239   1.592  20.935 -0.0716 -0.1007  0.3592
   46CHL1    H8 5825   1.266   1.495  20.888 -0.4415  1.5578 -3.6870
   46CHL1   C14 5826   1.340   1.699  20.896  0.1978  0.1700 -0.3018
   46CHL1   H14 5827   1.324   1.780  20.971  2.2905 -1.0930  1.6785
   46CHL1   C15 5828   1.343   1.746  20.753  0.7119 -0.0656  0.6308
   46CHL1  H15A 5829   1.318   1.660  20.687  0.1820 -0.5052  1.3976
   46CHL1  H15B 5830   1.257   1.813  20.733  0.7514 -0.9368 -3.3995
   46CHL1   C16 5831   1.483   1.800  20.720  0.1289 -0.2221 -0.4063
   46CHL1  H16A 5832   1.521   1.735  20.639  1.7109  0.1003  0.0592
   46CHL1  H16B 5833   1.483   1.909  20.696  1.5487 -0.3980 -1.2796
   46CHL1   C17 5834   1.561   1.770  20.856 -0.9066  0.4081 -0.4101
   46CHL1   H17 5835   1.552   1.863  20.916 -0.0048  0.1218  0.1936
   46CHL1   C13 5836   1.484   1.660  20.929 -0.1855  0.2010 -0.4620
   46CHL1   C18 5837   1.530   1.532  20.859  0.2035  0.2280  0.7783
   46CHL1  H18A 5838   1.633   1.504  20.889  0.6256 -2.7847 -2.6888
   46CHL1  H18B 5839   1.468   1.440  20.866 -0.4522  0.4307 -1.5695
   46CHL1  H18C 5840   1.535   1.539  20.748  1.8328  0.3995  0.8469
   46CHL1   C12 5841   1.497   1.654  21.077  0.3982 -0.9631 -0.5312
   46CHL1  H12A 5842   1.593   1.608  21.109  0.8508  1.1194  1.3780
   46CHL1  H12B 5843   1.487   1.755  21.121 -1.9580 -1.4783  0.3149
   46CHL1   C11 5844   1.377   1.560  21.139 -0.4214 -0.4516 -0.6339
   46CHL1  H11A 5845   1.418   1.460  21.111 -1.8520 -1.2374 -0.0543
   46CHL1  H11B 5846   1.374   1.575  21.249 -1.5240  2.3334 -0.9625
   46CHL1    C9 5847   1.235   1.584  21.084 -0.2237 -0.2200 -0.4841
   46CHL1    H9 5848   1.198   1.679  21.129  1.0502  0.5575 -1.0095
   46CHL1   C10 5849   1.130   1.479  21.132  0.3133 -0.3350 -0.2400
   46CHL1   C19 5850   1.195   1.341  21.131  0.3715  0.2604  0.1610
   46CHL1  H19A 5851   1.252   1.326  21.036  0.5300  0.7565  0.1779
   46CHL1  H19B 5852   1.271   1.341  21.212 -0.0975  1.0748  0.6052
   46CHL1  H19C 5853   1.118   1.261  21.136 -0.2522  0.7770 -0.9213
   46CHL1    C1 5854   1.095   1.507  21.282 -0.1108  0.6431  0.1058
   46CHL1   H1A 5855   1.178   1.483  21.351 -1.3438  3.0327  2.5782
   46CHL1   H1B 5856   1.066   1.614  21.283 -1.3449  0.3257  0.1042
   46CHL1    C2 5857   0.971   1.434  21.348  0.7383  0.5229 -0.2566
   46CHL1   H2A 5858   0.951   1.472  21.450  0.3380 -0.9656  0.2335
   46CHL1   H2B 5859   0.991   1.325  21.354 -1.2272  0.2121  1.6294
   46CHL1   C20 5860   1.717   1.763  20.825  0.2863 -0.3537  0.3878
   46CHL1   H20 5861   1.746   1.671  20.769 -2.1203 -1.4533  0.8394
   46CHL1   C21 5862   1.777   1.763  20.964 -1.1436  0.1388 -0.3001
   46CHL1  H21A 5863   1.768   1.659  21.005  0.9197 -0.8942 -2.2745
   46CHL1  H21B 5864   1.738   1.832  21.042 -1.3177  0.0863 -0.3398
   46CHL1  H21C 5865   1.887   1.777  20.963 -1.0086 -0.6811  0.8226
   46CHL1   C22 5866   1.759   1.882  20.735 -0.0297 -0.7675  0.6209
   46CHL1  H22A 5867   1.725   1.850  20.635  0.8980  0.9574 -0.2911
   46CHL1  H22B 5868   1.696   1.971  20.761 -0.7371 -0.5131 -1.7195
   46CHL1   C23 5869   1.911   1.912  20.727  0.4024  0.4994 -0.2326
   46CHL1  H23A 5870   1.957   1.944  20.823 -0.8044 -0.2802  0.6293
   46CHL1  H23B 5871   1.953   1.811  20.708  0.1486 -0.1461  2.2795
   46CHL1   C24 5872   1.955   2.024  20.631 -0.4377 -0.5300 -0.5509
   46CHL1  H24A 5873   1.905   2.001  20.534 -1.0070  1.5735 -0.7931
   46CHL1  H24B 5874   1.918   2.124  20.659  0.8124  0.1007 -1.0777
   46CHL1   C25 5875   2.107   2.031  20.605 -0.6869  0.2580 -0.9619
   46CHL1   H25 5876   2.145   1.927  20.591  0.6695  0.6860 -0.5982
   46CHL1   C26 5877   2.128   2.110  20.481 -0.7606  0.0837  0.0106
   46CHL1  H26A 5878   2.235   2.119  20.450 -1.4702  0.6490 -2.5562
   46CHL1  H26B 5879   2.070   2.062  20.399 -0.7014  0.1254 -0.0554
   46CHL1  H26C 5880   2.091   2.214  20.486  0.5266  0.7089 -2.0806
   46CHL1   C27 5881   2.187   2.086  20.724  0.9697 -0.1700 -0.2103
   46CHL1  H27A 5882   2.165   2.195  20.729  0.9273 -0.2228  1.0748
   46CHL1  H27B 5883   2.161   2.036  20.820 -0.3201  1.5946  0.4266
   46CHL1  H27C 5884   2.297   2.072  20.717  0.9606 -0.0610 -0.6107
   47CHL1    C3 5885   0.929   3.342  22.497  0.0869  0.4716  0.1457
   47CHL1    H3 5886   0.919   3.355  22.606 -6.1798  0.7442 -0.1251
   47CHL1    O3 5887   0.812   3.280  22.448  0.0807  1.0051  0.0807
   47CHL1   H3' 5888   0.845   3.259  22.360  1.0140  0.8507  0.4592
   47CHL1    C4 5889   0.946   3.476  22.431 -0.6354  0.0529 -0.2421
   47CHL1   H4A 5890   0.934   3.457  22.322  1.8355 -2.0988 -0.2190
   47CHL1   H4B 5891   0.863   3.542  22.465 -2.8095 -2.9943  0.7818
   47CHL1    C5 5892   1.084   3.541  22.454 -0.4911  0.6472 -1.0006
   47CHL1    C6 5893   1.085   3.668  22.498 -0.4935  0.4183 -0.9163
   47CHL1    H6 5894   0.988   3.718  22.500 -1.5407 -1.5029  1.6707
   47CHL1    C7 5895   1.209   3.745  22.512 -0.7607  0.1634  0.0085
   47CHL1   H7A 5896   1.210   3.826  22.436 -0.7564 -1.1757 -1.4702
   47CHL1   H7B 5897   1.215   3.796  22.611  0.7600  0.1924 -0.0750
   47CHL1    C8 5898   1.345   3.671  22.491  0.2582  0.1511  0.1059
   47CHL1    H8 5899   1.375   3.668  22.384 -0.7695 -0.7131 -0.1827
   47CHL1   C14 5900   1.460   3.737  22.572 -0.3207  0.4293 -0.3641
   47CHL1   H14 5901   1.425   3.718  22.676 -1.3022 -0.4831 -0.8340
   47CHL1   C15 5902   1.486   3.886  22.556  0.4774  0.6880 -0.2261
   47CHL1  H15A 5903   1.510   3.913  22.451 -0.1763  0.9631 -0.3090
   47CHL1  H15B 5904   1.403   3.951  22.590 -0.5929  0.0015 -1.4578
   47CHL1   C16 5905   1.614   3.909  22.642  0.3816  0.7397 -0.2246
   47CHL1  H16A 5906   1.669   3.992  22.592 -3.1106  2.8707 -0.9250
   47CHL1  H16B 5907   1.600   3.934  22.749 -0.8194  0.1834 -0.2330
   47CHL1   C17 5908   1.676   3.764  22.657 -0.2364  0.0385 -0.3269
   47CHL1   H17 5909   1.652   3.729  22.759 -0.7796 -0.5539 -0.6505
   47CHL1   C13 5910   1.595   3.674  22.558  0.4482  0.5373  0.1136
   47CHL1   C18 5911   1.659   3.689  22.416  0.0988  0.1436 -0.3714
   47CHL1  H18A 5912   1.604   3.633  22.337 -1.0509  0.2202  0.3513
   47CHL1  H18B 5913   1.667   3.794  22.382 -0.0241  0.2595 -0.0519
   47CHL1  H18C 5914   1.760   3.644  22.423 -0.5117 -1.1949  0.4973
   47CHL1   C12 5915   1.573   3.522  22.602  0.3175  0.2339  0.8472
   47CHL1  H12A 5916   1.673   3.475  22.597  0.8920  1.5132 -0.5136
   47CHL1  H12B 5917   1.546   3.505  22.708 -2.7961  1.3679  0.3508
   47CHL1   C11 5918   1.464   3.448  22.528  0.2266 -0.1337  0.2074
   47CHL1  H11A 5919   1.509   3.455  22.427  3.2232  1.3791  1.5236
   47CHL1  H11B 5920   1.436   3.347  22.564 -2.6788  0.6262  0.3049
   47CHL1    C9 5921   1.331   3.526  22.535  0.2861  0.4944 -0.0068
   47CHL1    H9 5922   1.295   3.536  22.640 -3.2700  0.1501 -1.0654
   47CHL1   C10 5923   1.212   3.447  22.456 -0.3626  0.3820 -0.5774
   47CHL1   C19 5924   1.258   3.426  22.309 -0.0026 -0.2718  0.1816
   47CHL1  H19A 5925   1.355   3.372  22.323  1.1075  1.5270 -0.1894
   47CHL1  H19B 5926   1.175   3.373  22.258 -0.2195 -1.4324  1.6825
   47CHL1  H19C 5927   1.271   3.526  22.263 -1.8443  1.3445  2.8752
   47CHL1    C1 5928   1.181   3.305  22.524 -0.2822 -0.7423 -0.8274
   47CHL1   H1A 5929   1.257   3.232  22.487  1.0087  0.0512  0.1579
   47CHL1   H1B 5930   1.184   3.318  22.634 -2.2901  1.3384 -0.9376
   47CHL1    C2 5931   1.049   3.247  22.475 -0.4156 -0.4212 -0.3703
   47CHL1   H2A 5932   1.042   3.153  22.534  1.1137 -0.4459 -0.1863
   47CHL1   H2B 5933   1.058   3.223  22.367  0.3058  1.4055 -0.7500
   47CHL1   C20 5934   1.835   3.769  22.647  0.5318  0.1845  1.1805
   47CHL1   H20 5935   1.872   3.810  22.550  1.1630 -0.1191  1.2941
   47CHL1   C21 5936   1.902   3.632  22.671  0.7366 -0.2821 -0.3714
   47CHL1  H21A 5937   2.012   3.634  22.681  0.5467  3.0657  3.1465
   47CHL1  H21B 5938   1.871   3.552  22.599  0.2766  0.1939 -0.7151
   47CHL1  H21C 5939   1.862   3.603  22.770  1.0434  0.1782 -0.1092
   47CHL1   C22 5940   1.889   3.873  22.752 -0.5520  0.2702  0.4742
   47CHL1  H22A 5941   1.853   3.973  22.718 -1.3193 -0.1750 -0.0508
   47CHL1  H22B 5942   1.852   3.840  22.851 -5.4849  0.4889 -1.0108
   47CHL1   C23 5943   2.034   3.904  22.754 -1.0163 -0.0061  0.7538
   47CHL1  H23A 5944   2.105   3.839  22.811  2.1095  2.2742 -0.2247
   47CHL1  H23B 5945   2.068   3.905  22.648 -1.0389 -0.8672  0.7282
   47CHL1   C24 5946   2.053   4.041  22.817 -0.3651  0.6487 -0.1097
   47CHL1  H24A 5947   1.969   4.109  22.792  0.1778  1.0954 -0.7541
   47CHL1  H24B 5948   2.040   4.022  22.926  2.5051  1.9486  0.5831
   47CHL1   C25 5949   2.190   4.108  22.798  0.2902 -1.1153  0.3838
   47CHL1   H25 5950   2.196   4.122  22.688  1.6371 -0.4825  0.5200
   47CHL1   C26 5951   2.195   4.246  22.867  0.4377 -0.4842  0.4901
   47CHL1  H26A 5952   2.119   4.321  22.836 -1.8440 -2.0027  2.0404
   47CHL1  H26B 5953   2.295   4.293  22.860  0.0036  0.4136  0.1601
   47CHL1  H26C 5954   2.172   4.230  22.975  0.2611  0.1899  0.5618
   47CHL1   C27 5955   2.305   4.025  22.844 -0.2666  0.7284 -0.9608
   47CHL1  H27A 5956   2.316   3.925  22.795 -2.3784  0.1709 -0.4289
   47CHL1  H27B 5957   2.398   4.081  22.824 -0.1011  1.0512  0.5982
   47CHL1  H27C 5958   2.306   4.003  22.953  2.1516 -2.2342 -1.4646
   48CHL1    C3 5959   3.332   0.632  25.901 -0.3234 -0.0019 -0.7424
   48CHL1    H3 5960   3.363   0.583  25.807  1.1935 -1.8667  0.6639
   48CHL1    O3 5961   3.429   0.607  26.006 -0.2830  0.4352  0.1829
   48CHL1   H3' 5962   3.423   0.512  26.001  0.5173  0.4172 -0.6261
   48CHL1    C4 5963   3.333   0.782  25.882 -0.0106 -0.0970 -0.2395
   48CHL1   H4A 5964   3.326   0.840  25.976  1.2842  3.2066 -2.0358
   48CHL1   H4B 5965   3.434   0.815  25.850  0.9092 -1.2413  1.3111
   48CHL1    C5 5966   3.225   0.821  25.787  0.2342 -0.1753 -0.6124
   48CHL1    C6 5967   3.258   0.888  25.680 -0.2040  0.0399 -0.4071
   48CHL1    H6 5968   3.361   0.923  25.668  0.4230 -0.3891  2.9514
   48CHL1    C7 5969   3.164   0.921  25.563  0.2729  0.1684  0.1614
   48CHL1   H7A 5970   3.177   1.025  25.527 -1.7745  0.4709  0.1577
   48CHL1   H7B 5971   3.170   0.845  25.482 -0.6751  2.0448 -1.7750
   48CHL1    C8 5972   3.016   0.913  25.607  0.3789 -0.2142  0.1539
   48CHL1    H8 5973   2.984   0.990  25.679  0.7379 -0.8388  1.0021
   48CHL1   C14 5974   2.932   0.941  25.482  0.0086  0.6736  0.1615
   48CHL1   H14 5975   2.959   0.865  25.406 -4.2105  0.4126 -1.3067
   48CHL1   C15 5976   2.940   1.076  25.416  0.1145 -0.1700  0.0390
   48CHL1  H15A 5977   2.942   1.162  25.487 -0.0571  0.1098 -0.2942
   48CHL1  H15B 5978   3.023   1.098  25.345 -0.4255 -0.4252 -0.6721
   48CHL1   C16 5979   2.810   1.075  25.333 -0.0794  0.4231  0.3869
   48CHL1  H16A 5980   2.739   1.152  25.371  0.9816  0.4887  2.3114
   48CHL1  H16B 5981   2.817   1.094  25.223  1.8514  1.6576  0.6863
   48CHL1   C17 5982   2.737   0.935  25.361 -0.0630 -0.0169  0.2874
   48CHL1   H17 5983   2.775   0.861  25.287 -0.4294  1.4925 -1.4731
   48CHL1   C13 5984   2.782   0.898  25.498 -0.8712  0.3424  0.1409
   48CHL1   C18 5985   2.712   0.984  25.603  0.1107 -0.1317  0.5493
   48CHL1  H18A 5986   2.609   0.944  25.610 -0.1962  0.2638 -1.1926
   48CHL1  H18B 5987   2.761   0.981  25.703  0.1803  1.4135  0.5897
   48CHL1  H18C 5988   2.707   1.090  25.570 -0.2289 -0.0725  0.7930
   48CHL1   C12 5989   2.775   0.750  25.536  0.1552  0.3285  0.1223
   48CHL1  H12A 5990   2.668   0.726  25.554 -0.4260  2.6161  0.0131
   48CHL1  H12B 5991   2.811   0.678  25.460  2.5930 -0.7223  2.1160
   48CHL1   C11 5992   2.846   0.726  25.673  0.4421 -1.2356  0.3356
   48CHL1  H11A 5993   2.783   0.773  25.752  0.2904 -1.9970  0.6722
   48CHL1  H11B 5994   2.833   0.617  25.693  0.2505 -1.3789 -0.5255
   48CHL1    C9 5995   2.991   0.776  25.669 -0.0911  0.0530 -0.5341
   48CHL1    H9 5996   3.032   0.707  25.592 -0.6711 -2.8131  1.5701
   48CHL1   C10 5997   3.082   0.761  25.802  0.1704 -1.1160  0.9115
   48CHL1   C19 5998   3.009   0.838  25.915  0.3163 -0.2084 -0.1784
   48CHL1  H19A 5999   2.920   0.782  25.951 -1.3615  1.2698 -1.8763
   48CHL1  H19B 6000   3.083   0.850  25.998 -0.1456  1.5049  0.0111
   48CHL1  H19C 6001   2.971   0.939  25.890 -0.6830 -0.4639  0.2367
   48CHL1    C1 6002   3.095   0.611  25.845  0.4916 -0.9640 -0.5607
   48CHL1   H1A 6003   2.993   0.578  25.870  0.0704 -0.6348 -1.7848
   48CHL1   H1B 6004   3.121   0.566  25.747  2.4980 -0.7216 -0.1956
   48CHL1    C2 6005   3.194   0.581  25.955 -0.4610  0.1111  0.1988
   48CHL1   H2A 6006   3.190   0.473  25.984 -0.1642 -0.3471 -1.3818
   48CHL1   H2B 6007   3.185   0.640  26.048 -1.4763  0.9296 -0.4118
   48CHL1   C20 6008   2.583   0.931  25.331 -0.2363  0.2543  0.1614
   48CHL1   H20 6009   2.534   0.964  25.425  0.8602 -3.5028  2.2611
   48CHL1   C21 6010   2.536   0.787  25.299 -0.0259  0.1090 -0.5311
   48CHL1  H21A 6011   2.527   0.731  25.394 -0.6135  1.0881  0.0130
   48CHL1  H21B 6012   2.607   0.729  25.236  3.8534  0.8000  2.7796
   48CHL1  H21C 6013   2.434   0.792  25.256 -0.5740 -0.2305  0.7046
   48CHL1   C22 6014   2.543   1.012  25.215 -0.3332 -0.5290 -0.5013
   48CHL1  H22A 6015   2.603   1.105  25.209  0.1502 -0.8583 -0.8277
   48CHL1  H22B 6016   2.574   0.963  25.120  0.3625  1.1381 -1.1664
   48CHL1   C23 6017   2.391   1.055  25.206  0.5628 -0.7290 -0.0616
   48CHL1  H23A 6018   2.336   0.958  25.210  0.9332 -0.9764 -0.7662
   48CHL1  H23B 6019   2.371   1.107  25.302 -0.0104  0.0898 -0.6128
   48CHL1   C24 6020   2.350   1.147  25.093  0.2136  0.1992  0.6513
   48CHL1  H24A 6021   2.425   1.229  25.099  0.3134  0.1522  0.1204
   48CHL1  H24B 6022   2.352   1.106  24.989  0.3525 -1.3663  1.2538
   48CHL1   C25 6023   2.217   1.212  25.128  0.2105  0.5648  0.0247
   48CHL1   H25 6024   2.228   1.297  25.198  0.2313  0.8393 -0.3120
   48CHL1   C26 6025   2.171   1.274  24.999 -0.0301 -0.1286 -0.0279
   48CHL1  H26A 6026   2.126   1.196  24.933 -1.8887  0.0346  0.9890
   48CHL1  H26B 6027   2.100   1.358  25.011 -0.0715 -0.4199  2.2946
   48CHL1  H26C 6028   2.260   1.314  24.946  0.4858 -1.6898 -0.4027
   48CHL1   C27 6029   2.106   1.131  25.187 -0.7016 -0.3981 -0.1273
   48CHL1  H27A 6030   2.080   1.043  25.124 -1.8035  0.4384 -0.8890
   48CHL1  H27B 6031   2.142   1.094  25.285 -1.5215  1.7872  1.0536
   48CHL1  H27C 6032   2.013   1.192  25.194 -0.9442 -0.4310 -2.4002
   49CHL1    C3 6033   0.808   0.570  21.065  0.0094 -0.0562  0.3793
   49CHL1    H3 6034   0.846   0.466  21.076 -2.5787 -0.9253  2.1774
   49CHL1    O3 6035   0.766   0.609  21.190 -0.3590  0.1556  0.7353
   49CHL1   H3' 6036   0.690   0.554  21.209  1.1202 -2.1340  0.4289
   49CHL1    C4 6037   0.923   0.659  21.016  0.1033 -0.9851  0.6412
   49CHL1   H4A 6038   0.904   0.768  21.008  1.3637 -0.7926  0.0413
   49CHL1   H4B 6039   1.002   0.655  21.094 -1.2321 -1.4899  2.0139
   49CHL1    C5 6040   0.961   0.615  20.875 -0.5475 -0.8446 -0.4142
   49CHL1    C6 6041   1.089   0.577  20.836 -0.1453 -0.5546  0.1835
   49CHL1    H6 6042   1.172   0.574  20.909 -0.4027  0.7588  0.5641
   49CHL1    C7 6043   1.140   0.533  20.703  0.3762 -0.0461  0.8702
   49CHL1   H7A 6044   1.231   0.583  20.665  0.0808 -2.0620 -2.9075
   49CHL1   H7B 6045   1.165   0.425  20.718 -0.8307 -0.2943  1.3113
   49CHL1    C8 6046   1.025   0.552  20.598  0.0013 -0.0821 -0.3296
   49CHL1    H8 6047   1.027   0.658  20.566 -5.0344  0.5731  0.7193
   49CHL1   C14 6048   1.060   0.473  20.475  0.5389 -0.1947  0.6893
   49CHL1   H14 6049   1.057   0.366  20.507 -2.0523 -1.0674 -1.9420
   49CHL1   C15 6050   1.196   0.493  20.414 -0.1090 -0.5386  0.4993
   49CHL1  H15A 6051   1.228   0.599  20.403 -1.7126 -0.0359  0.4280
   49CHL1  H15B 6052   1.275   0.434  20.464 -2.1796 -5.0046 -0.9884
   49CHL1   C16 6053   1.182   0.425  20.276 -0.0104  0.0198 -0.0311
   49CHL1  H16A 6054   1.217   0.495  20.198 -0.8734 -0.8010 -1.1903
   49CHL1  H16B 6055   1.243   0.335  20.253 -1.8326 -0.7667 -2.2144
   49CHL1   C17 6056   1.029   0.397  20.250 -0.4195  0.9029  0.0377
   49CHL1   H17 6057   1.010   0.294  20.287  0.9491  0.1316 -1.3192
   49CHL1   C13 6058   0.964   0.496  20.350 -0.5270  0.7397  0.1876
   49CHL1   C18 6059   0.963   0.640  20.300  0.2882  0.4191 -0.4448
   49CHL1  H18A 6060   1.060   0.668  20.255 -0.9513  0.6865 -3.1475
   49CHL1  H18B 6061   0.888   0.658  20.220 -0.1695  0.0143 -0.1101
   49CHL1  H18C 6062   0.938   0.716  20.377 -2.4975  0.3085 -1.1245
   49CHL1   C12 6063   0.826   0.459  20.402  0.2155  0.3927  0.8320
   49CHL1  H12A 6064   0.736   0.460  20.338  0.3632  0.3549  0.6234
   49CHL1  H12B 6065   0.832   0.348  20.402  0.6291  0.4135  0.7754
   49CHL1   C11 6066   0.786   0.526  20.531  0.2451  0.5447 -0.8394
   49CHL1  H11A 6067   0.759   0.631  20.506 -0.4643  0.7854  0.7846
   49CHL1  H11B 6068   0.700   0.469  20.574  1.8371 -0.0033  1.8971
   49CHL1    C9 6069   0.884   0.523  20.648  0.9247 -0.3984 -0.3827
   49CHL1    H9 6070   0.887   0.419  20.688  2.0364 -0.5986 -0.9398
   49CHL1   C10 6071   0.845   0.612  20.769  0.6539  0.0725 -0.0202
   49CHL1   C19 6072   0.816   0.759  20.730 -0.7427  0.6459 -0.9919
   49CHL1  H19A 6073   0.726   0.764  20.665 -1.7135  2.0690  0.3913
   49CHL1  H19B 6074   0.790   0.806  20.827  1.0033  1.1885 -0.7529
   49CHL1  H19C 6075   0.903   0.806  20.681  1.1601  0.1451  1.6893
   49CHL1    C1 6076   0.724   0.542  20.832 -0.2616  0.4728  0.4778
   49CHL1   H1A 6077   0.636   0.544  20.764 -0.1432 -1.0586  0.2267
   49CHL1   H1B 6078   0.727   0.431  20.836  0.7602  0.3647 -1.8875
   49CHL1    C2 6079   0.687   0.585  20.971  0.3468 -0.8266 -0.4616
   49CHL1   H2A 6080   0.594   0.527  20.992  0.3957 -1.1445 -1.1106
   49CHL1   H2B 6081   0.650   0.689  20.959  0.2736 -0.8334 -0.3007
   49CHL1   C20 6082   0.979   0.402  20.107  0.3747 -0.1383  0.0515
   49CHL1   H20 6083   1.010   0.494  20.053  2.1763 -1.8044 -1.9267
   49CHL1   C21 6084   0.824   0.385  20.096  0.7715 -0.2686 -0.7668
   49CHL1  H21A 6085   0.768   0.477  20.123  1.5499 -0.1537  0.5464
   49CHL1  H21B 6086   0.773   0.295  20.137  0.9445 -0.1759 -0.3362
   49CHL1  H21C 6087   0.816   0.376  19.986  1.9687  1.1928 -0.9971
   49CHL1   C22 6088   1.042   0.293  20.009 -0.2055 -0.4545  0.4464
   49CHL1  H22A 6089   1.152   0.284  20.025 -0.3708 -1.1288  1.2586
   49CHL1  H22B 6090   1.001   0.195  20.040 -0.8103  0.3394  2.2893
   49CHL1   C23 6091   1.025   0.328  19.857 -0.4554 -0.2852 -0.1791
   49CHL1  H23A 6092   1.057   0.241  19.795 -0.9342 -1.5702  1.3372
   49CHL1  H23B 6093   0.922   0.340  19.818 -0.8327 -0.9979  0.5969
   49CHL1   C24 6094   1.103   0.454  19.814 -0.4648  0.5064 -0.3065
   49CHL1  H24A 6095   1.052   0.547  19.849 -0.7566 -1.0188  3.8159
   49CHL1  H24B 6096   1.201   0.449  19.866 -1.1148  2.2648  1.1972
   49CHL1   C25 6097   1.126   0.481  19.661 -0.0089 -0.0754 -0.0948
   49CHL1   H25 6098   1.176   0.579  19.650  3.1504 -1.7977 -3.0636
   49CHL1   C26 6099   1.223   0.377  19.604 -0.3892 -0.0959 -0.2284
   49CHL1  H26A 6100   1.330   0.387  19.630 -0.1059 -1.2468 -0.9030
   49CHL1  H26B 6101   1.181   0.275  19.616 -0.1858 -0.0656  0.7921
   49CHL1  H26C 6102   1.219   0.414  19.499  0.9998  1.6005  0.2683
   49CHL1   C27 6103   0.994   0.504  19.596 -0.0344 -0.8979 -0.5719
   49CHL1  H27A 6104   0.930   0.567  19.661  0.1466 -1.1745 -0.1221
   49CHL1  H27B 6105   1.004   0.549  19.495  0.2811 -1.3255 -0.7358
   49CHL1  H27C 6106   0.929   0.414  19.594 -0.8728 -0.3012 -0.3255
   50CHL1    C3 6107   3.450   2.833  23.336  0.0020  0.6391 -0.2230
   50CHL1    H3 6108   3.397   2.807  23.431 -3.9977 -0.8892 -2.6208
   50CHL1    O3 6109   3.589   2.859  23.348 -0.1303  0.2523  0.6494
   50CHL1   H3' 6110   3.602   2.954  23.352  0.3275  0.3954 -2.2414
   50CHL1    C4 6111   3.438   2.727  23.231 -0.3927 -0.1830  0.3144
   50CHL1   H4A 6112   3.480   2.765  23.136 -0.5584 -0.0745  0.2839
   50CHL1   H4B 6113   3.504   2.642  23.260 -1.2490 -1.1392 -0.4697
   50CHL1    C5 6114   3.296   2.687  23.214  0.0276  0.4039 -0.4838
   50CHL1    C6 6115   3.264   2.557  23.235  0.4242 -0.1918 -0.4972
   50CHL1    H6 6116   3.336   2.482  23.271 -0.5699 -0.8718  0.1086
   50CHL1    C7 6117   3.122   2.510  23.216  0.4824  0.3424 -1.0218
   50CHL1   H7A 6118   3.126   2.409  23.168 -0.5476 -0.2099 -0.0023
   50CHL1   H7B 6119   3.067   2.491  23.311  0.3158  1.8030 -0.8166
   50CHL1    C8 6120   3.032   2.603  23.135 -0.1169 -0.6895 -0.0594
   50CHL1    H8 6121   3.059   2.605  23.027  0.4358 -0.9135  0.0701
   50CHL1   C14 6122   2.886   2.571  23.165 -0.4409 -0.5329 -0.8585
   50CHL1   H14 6123   2.865   2.583  23.273 -0.6433  0.3261 -0.9865
   50CHL1   C15 6124   2.833   2.435  23.122 -0.1811  0.2840  0.1202
   50CHL1  H15A 6125   2.850   2.426  23.013 -1.4687 -0.4850 -0.0324
   50CHL1  H15B 6126   2.867   2.347  23.181 -2.1303 -1.6198 -1.4056
   50CHL1   C16 6127   2.674   2.455  23.134 -0.5600  0.5451 -0.0447
   50CHL1  H16A 6128   2.637   2.394  23.049  0.3902  2.1737 -1.6999
   50CHL1  H16B 6129   2.652   2.410  23.233  0.6756 -0.2087 -0.1004
   50CHL1   C17 6130   2.646   2.602  23.133  0.4044 -0.4300  0.3946
   50CHL1   H17 6131   2.622   2.638  23.236 -1.4993  0.5136 -0.3273
   50CHL1   C13 6132   2.783   2.671  23.098 -0.4117 -0.1416  0.3293
   50CHL1   C18 6133   2.802   2.671  22.945  0.2096  0.2217  0.3114
   50CHL1  H18A 6134   2.742   2.590  22.901 -0.6703  0.7392  0.5400
   50CHL1  H18B 6135   2.766   2.766  22.900  1.0598  0.5082  0.2068
   50CHL1  H18C 6136   2.910   2.670  22.917  0.2319  1.4502  0.2687
   50CHL1   C12 6137   2.813   2.815  23.155  0.0409  0.2750 -0.1076
   50CHL1  H12A 6138   2.755   2.895  23.105 -1.4223 -0.4991  0.2842
   50CHL1  H12B 6139   2.789   2.813  23.263  0.2129 -0.4321 -0.0767
   50CHL1   C11 6140   2.959   2.852  23.127 -0.3460  0.5900 -0.8137
   50CHL1  H11A 6141   2.958   2.877  23.019  1.4000  0.0426 -0.9913
   50CHL1  H11B 6142   2.974   2.952  23.173  2.3523  0.8055 -2.0291
   50CHL1    C9 6143   3.057   2.751  23.189 -0.0188  0.4085  0.0371
   50CHL1    H9 6144   3.037   2.745  23.298 -1.2904 -1.0989 -0.2499
   50CHL1   C10 6145   3.205   2.807  23.181  0.1814 -0.0104  0.7006
   50CHL1   C19 6146   3.219   2.859  23.032  0.2106 -0.0062 -0.3952
   50CHL1  H19A 6147   3.180   2.794  22.951 -0.6706 -0.6082  0.4949
   50CHL1  H19B 6148   3.187   2.965  23.024 -0.1141 -0.0611  0.1320
   50CHL1  H19C 6149   3.328   2.870  23.012  1.0468 -1.9524  2.4315
   50CHL1    C1 6150   3.226   2.925  23.285  0.3463  0.3115 -0.1794
   50CHL1   H1A 6151   3.167   3.011  23.246  2.6966  0.9815 -2.5129
   50CHL1   H1B 6152   3.187   2.895  23.385 -1.0540 -1.5125 -1.1964
   50CHL1    C2 6153   3.374   2.964  23.294 -0.3050 -0.4406 -0.4129
   50CHL1   H2A 6154   3.385   3.043  23.371 -2.2895 -0.3976 -0.1162
   50CHL1   H2B 6155   3.409   3.007  23.198 -1.6846  2.7281  0.3941
   50CHL1   C20 6156   2.518   2.643  23.045 -0.1876 -0.8681  0.0980
   50CHL1   H20 6157   2.542   2.629  22.938 -1.6405  0.1851 -0.4009
   50CHL1   C21 6158   2.478   2.791  23.070  0.2932 -0.2444 -0.4345
   50CHL1  H21A 6159   2.411   2.817  22.985  0.9749 -2.7324 -1.8351
   50CHL1  H21B 6160   2.560   2.867  23.071 -0.2863  0.4801  2.4470
   50CHL1  H21C 6161   2.433   2.804  23.171  0.4164 -3.4538  0.1135
   50CHL1   C22 6162   2.397   2.552  23.084 -0.7010 -0.6744 -0.3162
   50CHL1  H22A 6163   2.425   2.448  23.058 -2.0124 -1.6448  1.8557
   50CHL1  H22B 6164   2.391   2.556  23.194 -0.8766 -0.7645 -0.3211
   50CHL1   C23 6165   2.265   2.576  23.011  0.4432 -0.1186  0.4033
   50CHL1  H23A 6166   2.232   2.681  23.028 -0.4940 -0.6315  1.9488
   50CHL1  H23B 6167   2.296   2.581  22.905  1.5751 -3.0553  0.5280
   50CHL1   C24 6168   2.161   2.462  23.033 -0.1935  0.4065  0.1886
   50CHL1  H24A 6169   2.087   2.476  22.951 -0.4032 -0.8465  0.1423
   50CHL1  H24B 6170   2.191   2.358  23.008 -0.8554 -0.1728  1.6520
   50CHL1   C25 6171   2.097   2.463  23.173  0.3057  0.0706 -0.0077
   50CHL1   H25 6172   2.187   2.461  23.238  0.5393 -1.3108 -0.3344
   50CHL1   C26 6173   2.004   2.590  23.186  0.5345 -0.0916  0.6177
   50CHL1  H26A 6174   2.059   2.685  23.168 -2.9160  1.7686 -1.0633
   50CHL1  H26B 6175   1.913   2.575  23.124  1.5365 -0.2434 -0.8821
   50CHL1  H26C 6176   1.964   2.596  23.290  1.0318  0.6733  0.7696
   50CHL1   C27 6177   2.016   2.338  23.200 -0.1617 -0.7305 -0.4680
   50CHL1  H27A 6178   2.090   2.257  23.217 -2.1179 -2.1829  1.6725
   50CHL1  H27B 6179   1.949   2.356  23.287  2.7128 -0.2575  1.8124
   50CHL1  H27C 6180   1.946   2.307  23.119 -2.2490  0.9837  0.5865
   51CHL1    C3 6181   3.703   1.083  23.293 -0.1625  0.3996  0.2352
   51CHL1    H3 6182   3.667   1.187  23.275  0.8820  0.7693  0.1710
   51CHL1    O3 6183   3.788   1.091  23.406  0.1357  0.5241  0.6733
   51CHL1   H3' 6184   3.728   1.123  23.474 -0.0065  0.0981  0.7504
   51CHL1    C4 6185   3.586   0.987  23.318  0.5042 -0.0626  0.4677
   51CHL1   H4A 6186   3.634   0.889  23.340  1.2224  0.4970  1.4697
   51CHL1   H4B 6187   3.524   1.019  23.404  1.2714  1.9190  0.3326
   51CHL1    C5 6188   3.496   0.965  23.197  0.1770  0.1006  0.5992
   51CHL1    C6 6189   3.363   0.997  23.190 -0.0606 -0.2375 -0.0367
   51CHL1    H6 6190   3.306   1.033  23.277  0.4304  1.4761 -0.3996
   51CHL1    C7 6191   3.286   0.994  23.062 -0.1298 -0.0768  0.5200
   51CHL1   H7A 6192   3.183   0.957  23.081 -0.3138 -0.1785 -0.5818
   51CHL1   H7B 6193   3.272   1.091  23.010  0.9867  0.2133  0.7368
   51CHL1    C8 6194   3.346   0.901  22.955  0.1233  0.3590 -0.2102
   51CHL1    H8 6195   3.332   0.797  22.992  1.0938  0.3379  0.1346
   51CHL1   C14 6196   3.271   0.908  22.823  0.4900 -0.0887  0.1963
   51CHL1   H14 6197   3.278   1.012  22.784 -1.6563 -0.3050 -0.9240
   51CHL1   C15 6198   3.117   0.888  22.819  0.3166  0.5107 -0.3356
   51CHL1  H15A 6199   3.103   0.790  22.870  0.1916  0.5986 -0.1973
   51CHL1  H15B 6200   3.072   0.970  22.878 -0.0172 -1.5732  2.5394
   51CHL1   C16 6201   3.097   0.881  22.663 -0.6207  0.4117  0.0558
   51CHL1  H16A 6202   3.023   0.804  22.634 -0.8617  0.3168  0.9149
   51CHL1  H16B 6203   3.048   0.968  22.613 -1.4162 -0.3139 -0.4562
   51CHL1   C17 6204   3.233   0.855  22.591  1.1562  0.0054  0.3355
   51CHL1   H17 6205   3.267   0.953  22.552  0.8357  0.5838  1.4729
   51CHL1   C13 6206   3.327   0.822  22.705  0.3517 -0.0561 -0.2472
   51CHL1   C18 6207   3.314   0.674  22.745 -0.5978  0.3638 -0.6183
   51CHL1  H18A 6208   3.345   0.647  22.847 -0.7244 -0.7491 -0.8665
   51CHL1  H18B 6209   3.210   0.636  22.733  0.6007 -2.9883 -1.5816
   51CHL1  H18C 6210   3.372   0.608  22.678  0.5787  2.2347 -1.5423
   51CHL1   C12 6211   3.472   0.870  22.690  0.7447  0.0139 -0.2481
   51CHL1  H12A 6212   3.530   0.828  22.606  1.3517  4.5822 -2.3764
   51CHL1  H12B 6213   3.469   0.981  22.682  1.1118 -0.0255 -0.9377
   51CHL1   C11 6214   3.555   0.841  22.816 -0.3103  0.7777  0.1637
   51CHL1  H11A 6215   3.565   0.732  22.833  0.3217  1.0040  1.3716
   51CHL1  H11B 6216   3.658   0.878  22.801 -0.5548  1.5443  0.2955
   51CHL1    C9 6217   3.494   0.915  22.939 -0.0621 -0.0201 -0.1393
   51CHL1    H9 6218   3.510   1.022  22.912 -0.8959  0.8037  2.3509
   51CHL1   C10 6219   3.572   0.906  23.075 -0.3136 -0.0788 -0.8421
   51CHL1   C19 6220   3.616   0.761  23.099  0.0194  0.6292  0.5060
   51CHL1  H19A 6221   3.526   0.706  23.134 -0.3988  0.5435 -0.6536
   51CHL1  H19B 6222   3.656   0.715  23.005 -1.6952 -1.4565  0.7153
   51CHL1  H19C 6223   3.687   0.745  23.183 -0.6649  1.7616  1.3218
   51CHL1    C1 6224   3.693   1.009  23.054 -0.0864  0.3229 -0.2552
   51CHL1   H1A 6225   3.756   0.972  22.970 -0.1840 -1.2371  0.3199
   51CHL1   H1B 6226   3.655   1.110  23.026 -1.7166 -0.5672 -1.3993
   51CHL1    C2 6227   3.785   1.038  23.174 -0.1273  0.1652  0.4010
   51CHL1   H2A 6228   3.844   1.125  23.138 -1.9778  1.3804  0.1897
   51CHL1   H2B 6229   3.853   0.951  23.189 -0.1839 -0.2580 -1.5252
   51CHL1   C20 6230   3.224   0.757  22.471  0.7405  0.1299  0.0736
   51CHL1   H20 6231   3.181   0.658  22.500 -1.4977  0.9357 -0.2792
   51CHL1   C21 6232   3.366   0.731  22.413  0.8244 -0.2108  0.1672
   51CHL1  H21A 6233   3.418   0.665  22.484  0.8882  1.5549  1.8447
   51CHL1  H21B 6234   3.415   0.829  22.394 -1.5970  1.0688  0.0030
   51CHL1  H21C 6235   3.359   0.679  22.315 -0.5502  2.0157 -1.0070
   51CHL1   C22 6236   3.133   0.822  22.375 -0.0951 -0.1990 -0.1654
   51CHL1  H22A 6237   3.048   0.870  22.427 -0.7130 -1.2372 -0.1876
   51CHL1  H22B 6238   3.170   0.897  22.301  0.7721 -1.4758 -1.0788
   51CHL1   C23 6239   3.065   0.725  22.281  0.1640 -0.2759 -0.9290
   51CHL1  H23A 6240   3.142   0.688  22.209 -0.3225 -0.1141 -1.5387
   51CHL1  H23B 6241   3.018   0.642  22.338  1.8155  0.1453  1.1672
   51CHL1   C24 6242   2.961   0.810  22.198 -0.4578  0.1980 -0.3285
   51CHL1  H24A 6243   2.908   0.869  22.276  0.0639 -0.3338  0.4441
   51CHL1  H24B 6244   2.999   0.880  22.121  0.6049 -1.0994 -1.0336
   51CHL1   C25 6245   2.878   0.713  22.107 -0.0342  1.1575 -0.3612
   51CHL1   H25 6246   2.891   0.612  22.152  1.5921  1.4646 -0.0660
   51CHL1   C26 6247   2.731   0.752  22.115 -1.1038  0.3901 -0.0908
   51CHL1  H26A 6248   2.675   0.658  22.097  1.0389 -0.9116 -0.3249
   51CHL1  H26B 6249   2.706   0.788  22.218  0.4004 -1.2079  0.8891
   51CHL1  H26C 6250   2.715   0.831  22.039  0.0550 -1.1095 -1.9549
   51CHL1   C27 6251   2.925   0.711  21.963  0.4010 -0.0244  0.0479
   51CHL1  H27A 6252   2.880   0.797  21.908  0.0912 -0.5397 -0.5243
   51CHL1  H27B 6253   3.035   0.724  21.959  0.5463 -1.2883 -0.7559
   51CHL1  H27C 6254   2.916   0.615  21.908  5.8774 -0.1885 -1.0786
   52CHL1    C3 6255   1.214   1.142  26.144 -0.2256 -0.3934 -0.1063
   52CHL1    H3 6256   1.119   1.147  26.087  0.4665  2.7814 -1.1697
   52CHL1    O3 6257   1.174   1.178  26.279 -0.4319  0.2747  0.1515
   52CHL1   H3' 6258   1.113   1.114  26.317  1.3894 -0.2557  2.4207
   52CHL1    C4 6259   1.275   0.998  26.140  0.4492 -0.2401 -0.2701
   52CHL1   H4A 6260   1.369   1.007  26.199  0.4518  2.3046 -0.5554
   52CHL1   H4B 6261   1.199   0.927  26.181  0.9592  0.6721  2.4131
   52CHL1    C5 6262   1.299   0.963  25.994 -0.3277  0.5000  0.5268
   52CHL1    C6 6263   1.248   0.848  25.941  0.1353  0.0138  0.5948
   52CHL1    H6 6264   1.179   0.780  25.993 -0.0859 -1.2245 -1.2291
   52CHL1    C7 6265   1.280   0.799  25.800 -0.3921 -0.5169 -0.5938
   52CHL1   H7A 6266   1.301   0.690  25.805  0.9287 -0.2411  0.9150
   52CHL1   H7B 6267   1.184   0.793  25.746 -0.9139 -0.0638  0.2604
   52CHL1    C8 6268   1.401   0.878  25.738 -0.7793 -0.8828 -0.0499
   52CHL1    H8 6269   1.494   0.843  25.788 -1.0519 -0.7367  0.5739
   52CHL1   C14 6270   1.403   0.864  25.583  0.2334 -0.0706  0.1592
   52CHL1   H14 6271   1.306   0.914  25.559 -0.9861 -2.1234  0.5119
   52CHL1   C15 6272   1.403   0.724  25.529 -0.5414 -0.4093  0.9383
   52CHL1  H15A 6273   1.469   0.652  25.582 -0.2674 -1.0471 -0.2420
   52CHL1  H15B 6274   1.301   0.682  25.534 -1.3572  1.4661  1.0646
   52CHL1   C16 6275   1.445   0.742  25.380  0.3978 -0.6499 -0.4677
   52CHL1  H16A 6276   1.519   0.664  25.354  0.5585 -0.9996  0.9709
   52CHL1  H16B 6277   1.360   0.731  25.309  0.3468 -0.7921 -0.3843
   52CHL1   C17 6278   1.497   0.888  25.370  0.1123  0.1750  0.1089
   52CHL1   H17 6279   1.409   0.947  25.336 -0.3814 -0.3010  0.5618
   52CHL1   C13 6280   1.516   0.940  25.510 -0.6011  0.2449  0.3633
   52CHL1   C18 6281   1.648   0.885  25.563 -0.0466 -0.0283  0.1983
   52CHL1  H18A 6282   1.725   0.949  25.515  0.4327  0.4315  1.5287
   52CHL1  H18B 6283   1.670   0.897  25.671 -0.8996 -3.6298  0.9200
   52CHL1  H18C 6284   1.678   0.781  25.536  1.1341 -0.1241  1.7560
   52CHL1   C12 6285   1.490   1.087  25.539  0.0900  0.3363  0.3237
   52CHL1  H12A 6286   1.556   1.150  25.476  1.4973 -2.3495 -1.0540
   52CHL1  H12B 6287   1.384   1.102  25.508  0.3846 -1.2733 -1.7450
   52CHL1   C11 6288   1.495   1.113  25.690  0.2928 -0.0286 -0.6985
   52CHL1  H11A 6289   1.598   1.098  25.728 -0.0432  0.5905  0.4842
   52CHL1  H11B 6290   1.464   1.218  25.709 -1.4961 -0.3964 -1.3434
   52CHL1    C9 6291   1.385   1.025  25.767 -0.6904 -0.6372  0.2068
   52CHL1    H9 6292   1.286   1.054  25.725 -1.4144 -1.1787  1.4998
   52CHL1   C10 6293   1.391   1.064  25.918 -0.4717 -0.8085 -0.5428
   52CHL1   C19 6294   1.539   1.060  25.971 -0.3001 -0.2197 -0.3902
   52CHL1  H19A 6295   1.596   0.977  25.925  0.1645  0.3257 -0.8115
   52CHL1  H19B 6296   1.595   1.153  25.947 -0.6306  0.0361 -0.1858
   52CHL1  H19C 6297   1.528   1.056  26.081 -3.8874  0.0359 -0.6152
   52CHL1    C1 6298   1.350   1.205  25.946 -0.6422 -0.5067  0.3631
   52CHL1   H1A 6299   1.422   1.282  25.910 -0.6502  0.8515  2.9851
   52CHL1   H1B 6300   1.261   1.223  25.883  0.5588  0.1391 -1.2161
   52CHL1    C2 6301   1.313   1.243  26.090 -0.3199  0.6317 -0.2979
   52CHL1   H2A 6302   1.254   1.337  26.080 -0.2936  0.9050  1.7048
   52CHL1   H2B 6303   1.402   1.254  26.154 -1.2501 -0.6032  1.2814
   52CHL1   C20 6304   1.600   0.905  25.261 -0.3046 -0.1590  0.7353
   52CHL1   H20 6305   1.685   0.839  25.290  0.5915 -0.1256 -1.5960
   52CHL1   C21 6306   1.665   1.046  25.264 -0.0791  0.7075  0.0166
   52CHL1  H21A 6307   1.590   1.127  25.252 -0.8029 -0.3881 -4.5710
   52CHL1  H21B 6308   1.738   1.061  25.181 -1.6549 -0.3514 -1.6316
   52CHL1  H21C 6309   1.722   1.068  25.357 -2.3576 -1.0668  1.9439
   52CHL1   C22 6310   1.563   0.855  25.121 -0.3794 -0.3843 -0.1954
   52CHL1  H22A 6311   1.486   0.775  25.130 -2.1417  1.4151  2.0520
   52CHL1  H22B 6312   1.501   0.936  25.075  1.1849  0.2769 -1.2155
   52CHL1   C23 6313   1.678   0.810  25.025 -0.1590 -0.3322  0.7089
   52CHL1  H23A 6314   1.764   0.879  25.036 -0.2837 -0.4994  3.1943
   52CHL1  H23B 6315   1.720   0.719  25.073 -0.1652 -0.7859 -0.1284
   52CHL1   C24 6316   1.628   0.795  24.877 -0.2251 -0.3563  0.2008
   52CHL1  H24A 6317   1.539   0.728  24.876 -0.9101  0.5038 -1.7186
   52CHL1  H24B 6318   1.590   0.893  24.841  1.0853  0.1191  0.0593
   52CHL1   C25 6319   1.719   0.725  24.767 -0.2739 -0.7530  0.7841
   52CHL1   H25 6320   1.808   0.790  24.757  0.8851 -2.1827  1.3628
   52CHL1   C26 6321   1.759   0.583  24.808  0.1469 -0.1707 -0.5414
   52CHL1  H26A 6322   1.664   0.527  24.819 -0.2378  0.2139 -1.7154
   52CHL1  H26B 6323   1.824   0.546  24.726 -0.4969 -0.0860 -1.1030
   52CHL1  H26C 6324   1.811   0.587  24.906  0.8962 -1.1742 -0.8790
   52CHL1   C27 6325   1.656   0.748  24.630 -0.0991  0.0177 -0.4648
   52CHL1  H27A 6326   1.551   0.714  24.616 -0.2155  0.7424 -1.4798
   52CHL1  H27B 6327   1.657   0.854  24.595  0.5962 -0.5883 -2.3614
   52CHL1  H27C 6328   1.711   0.683  24.560 -0.2269 -0.1959 -0.3681
   53CHL1    C3 6329   0.429   3.149  25.104 -0.1270  0.2310 -0.1984
   53CHL1    H3 6330   0.404   3.168  24.997 -0.5961 -1.3844 -0.4127
   53CHL1    O3 6331   0.312   3.184  25.175  0.1048  0.1401 -0.0004
   53CHL1   H3' 6332   0.325   3.277  25.198  0.6604  0.3449 -1.0454
   53CHL1    C4 6333   0.463   3.003  25.128  0.0994 -0.5707  0.2169
   53CHL1   H4A 6334   0.467   2.998  25.239  0.6559  0.5321  0.2624
   53CHL1   H4B 6335   0.379   2.946  25.084  1.4872 -1.7084 -1.0481
   53CHL1    C5 6336   0.589   2.954  25.060  0.8319  0.2961 -0.0018
   53CHL1    C6 6337   0.587   2.845  24.983 -1.1741 -0.4365 -0.4127
   53CHL1    H6 6338   0.496   2.786  24.965  0.1147 -2.2140 -1.4762
   53CHL1    C7 6339   0.718   2.794  24.924 -0.2624 -0.0684 -0.3947
   53CHL1   H7A 6340   0.730   2.685  24.938 -1.9041 -0.0665  1.4811
   53CHL1   H7B 6341   0.703   2.801  24.814  1.8306 -1.5595 -0.8407
   53CHL1    C8 6342   0.844   2.871  24.963 -0.5635 -0.4390  0.2958
   53CHL1    H8 6343   0.873   2.820  25.058  0.9830  2.0485  1.2711
   53CHL1   C14 6344   0.955   2.845  24.861 -0.3612  0.1939  0.0543
   53CHL1   H14 6345   0.931   2.886  24.761  0.2443  0.7889  0.1403
   53CHL1   C15 6346   0.990   2.701  24.817 -0.8336 -0.3602 -0.2688
   53CHL1  H15A 6347   1.008   2.636  24.905  1.5114  0.8670  0.2511
   53CHL1  H15B 6348   0.912   2.656  24.752 -1.4247 -0.1693  0.3130
   53CHL1   C16 6349   1.130   2.719  24.743  1.0489  0.1972  0.3619
   53CHL1  H16A 6350   1.186   2.641  24.800 -0.9367 -0.8205  0.9998
   53CHL1  H16B 6351   1.122   2.683  24.639  0.2810 -1.9007  1.1123
   53CHL1   C17 6352   1.184   2.859  24.776 -0.2371 -0.1760  0.4372
   53CHL1   H17 6353   1.153   2.919  24.687  0.0682 -0.1115  0.3729
   53CHL1   C13 6354   1.098   2.900  24.896 -0.2921 -0.5450 -0.0160
   53CHL1   C18 6355   1.152   2.833  25.026  0.2726 -0.7304  0.1130
   53CHL1  H18A 6356   1.081   2.837  25.111  1.5706  1.7747  1.1933
   53CHL1  H18B 6357   1.189   2.730  25.012 -1.1942 -1.9026  3.6211
   53CHL1  H18C 6358   1.233   2.899  25.063 -1.3900  1.7073 -0.3114
   53CHL1   C12 6359   1.077   3.052  24.913  0.1535  0.0219  0.0243
   53CHL1  H12A 6360   1.173   3.091  24.953  1.5463 -1.0392 -2.1234
   53CHL1  H12B 6361   1.037   3.100  24.821 -2.0001  0.6961  1.2301
   53CHL1   C11 6362   0.966   3.085  25.017  0.1740 -0.0205  0.0076
   53CHL1  H11A 6363   0.997   3.042  25.114 -3.2852  0.5161  1.5105
   53CHL1  H11B 6364   0.952   3.195  25.028  0.2888  0.2111 -1.7811
   53CHL1    C9 6365   0.821   3.018  24.984  0.4505  0.3316 -0.0803
   53CHL1    H9 6366   0.787   3.062  24.888  1.2978  0.8316 -0.1607
   53CHL1   C10 6367   0.708   3.047  25.083 -0.6222 -0.2928  0.1175
   53CHL1   C19 6368   0.758   3.009  25.228 -0.1502 -0.6798  0.2113
   53CHL1  H19A 6369   0.805   2.908  25.232 -1.2023 -1.2908 -1.5128
   53CHL1  H19B 6370   0.834   3.084  25.258  0.0813 -0.7520 -0.1790
   53CHL1  H19C 6371   0.674   3.029  25.297 -0.8781  1.1322 -1.1153
   53CHL1    C1 6372   0.667   3.201  25.069  0.5883  0.7897 -0.3144
   53CHL1   H1A 6373   0.751   3.273  25.077  0.5231  0.7637  0.9309
   53CHL1   H1B 6374   0.635   3.200  24.963 -1.1640  0.8343  0.1800
   53CHL1    C2 6375   0.544   3.245  25.138 -0.4190  0.0674 -0.5417
   53CHL1   H2A 6376   0.521   3.348  25.104  0.9508  0.8993  0.9019
   53CHL1   H2B 6377   0.559   3.254  25.248 -0.0457 -0.1758 -0.5718
   53CHL1   C20 6378   1.340   2.876  24.784  0.7663 -0.6915 -0.5991
   53CHL1   H20 6379   1.382   2.826  24.875  0.7352 -1.5094 -1.0243
   53CHL1   C21 6380   1.383   3.023  24.789  0.5225  0.5169  0.2375
   53CHL1  H21A 6381   1.353   3.069  24.885  1.4136 -1.6255  1.6295
   53CHL1  H21B 6382   1.330   3.072  24.704 -1.9838 -1.4226  0.5299
   53CHL1  H21C 6383   1.493   3.025  24.782  0.7945  0.4849  3.2943
   53CHL1   C22 6384   1.406   2.788  24.672 -0.2146 -0.3858 -0.0085
   53CHL1  H22A 6385   1.360   2.687  24.666 -2.4860  0.6391 -1.5380
   53CHL1  H22B 6386   1.395   2.848  24.579  1.8957  0.0145 -0.0640
   53CHL1   C23 6387   1.556   2.769  24.688 -0.0786 -0.0901 -0.5044
   53CHL1  H23A 6388   1.609   2.867  24.675 -0.9764  0.5233  0.3078
   53CHL1  H23B 6389   1.564   2.730  24.791  1.3036 -1.9348 -1.2503
   53CHL1   C24 6390   1.617   2.666  24.592  0.2825 -0.2536  0.0309
   53CHL1  H24A 6391   1.580   2.563  24.616  1.0277 -0.6020 -0.3020
   53CHL1  H24B 6392   1.590   2.685  24.486 -0.3006 -2.0680 -0.1845
   53CHL1   C25 6393   1.767   2.670  24.593 -0.4263 -0.4534  0.1476
   53CHL1   H25 6394   1.802   2.763  24.543  2.1528 -2.4100 -2.0297
   53CHL1   C26 6395   1.828   2.653  24.737 -0.2200 -0.3072 -0.5688
   53CHL1  H26A 6396   1.782   2.569  24.793  0.8823  1.0787  2.6516
   53CHL1  H26B 6397   1.934   2.623  24.729 -0.1194  0.1419 -0.9238
   53CHL1  H26C 6398   1.807   2.745  24.797 -0.9519  0.4786 -1.9721
   53CHL1   C27 6399   1.809   2.557  24.498 -0.3916 -0.4860  0.0974
   53CHL1  H27A 6400   1.919   2.564  24.492 -0.4759  1.5559  0.3065
   53CHL1  H27B 6401   1.784   2.454  24.531  1.6077 -2.0804 -2.8983
   53CHL1  H27C 6402   1.765   2.570  24.397  0.2006 -0.1298 -0.1150
   54CHL1    C3 6403   3.451   0.506  26.713 -0.3534  0.0871  0.0439
   54CHL1    H3 6404   3.452   0.617  26.711 -2.0613  0.1806  1.5600
   54CHL1    O3 6405   3.564   0.458  26.780 -0.0742  0.2771  0.2111
   54CHL1   H3' 6406   3.573   0.519  26.853 -0.0253  1.7507 -0.9732
   54CHL1    C4 6407   3.322   0.468  26.787  0.3664 -0.0993 -0.0502
   54CHL1   H4A 6408   3.326   0.358  26.801 -1.2801 -0.3894 -1.5679
   54CHL1   H4B 6409   3.325   0.522  26.884  0.3244 -0.8626  0.3844
   54CHL1    C5 6410   3.200   0.516  26.704  0.0076 -0.1187  0.3395
   54CHL1    C6 6411   3.107   0.593  26.755 -0.0529 -1.0203 -0.3334
   54CHL1    H6 6412   3.120   0.619  26.861  0.5243  0.5320 -0.7590
   54CHL1    C7 6413   2.988   0.644  26.683  0.6142  0.0413  0.0070
   54CHL1   H7A 6414   2.899   0.653  26.749 -0.3636  0.8656 -1.3877
   54CHL1   H7B 6415   3.008   0.748  26.650 -0.6742  0.1604 -0.4404
   54CHL1    C8 6416   2.955   0.560  26.560 -0.2444 -0.5057 -0.2791
   54CHL1    H8 6417   2.906   0.464  26.590 -0.7779  0.4789  2.3009
   54CHL1   C14 6418   2.844   0.624  26.470  0.1265  0.4556 -0.5006
   54CHL1   H14 6419   2.881   0.719  26.424 -0.9139  0.2597 -1.8183
   54CHL1   C15 6420   2.707   0.663  26.535 -0.1491  0.1454  0.1792
   54CHL1  H15A 6421   2.662   0.584  26.598 -0.9126  2.8065  3.2684
   54CHL1  H15B 6422   2.715   0.750  26.604  1.8076  0.8027 -0.7911
   54CHL1   C16 6423   2.613   0.683  26.413 -0.4603  0.2983  0.4473
   54CHL1  H16A 6424   2.517   0.631  26.434 -0.1251 -0.1515  0.9258
   54CHL1  H16B 6425   2.583   0.787  26.391  1.4122  0.5760 -1.0109
   54CHL1   C17 6426   2.690   0.629  26.288  0.3858  0.3781  0.7627
   54CHL1   H17 6427   2.724   0.730  26.257 -0.0273  0.5805  0.9633
   54CHL1   C13 6428   2.804   0.544  26.341  0.4121 -0.9146  0.7849
   54CHL1   C18 6429   2.757   0.401  26.368 -0.6552  0.1594 -0.1388
   54CHL1  H18A 6430   2.663   0.409  26.427 -0.7496  0.6487 -0.3555
   54CHL1  H18B 6431   2.743   0.358  26.267 -0.8546  1.7613 -0.8213
   54CHL1  H18C 6432   2.835   0.337  26.415  0.7681  2.2425  0.4586
   54CHL1   C12 6433   2.948   0.538  26.269  0.5501  0.0466  0.4064
   54CHL1  H12A 6434   2.930   0.480  26.176 -2.5447  2.3238 -0.5926
   54CHL1  H12B 6435   2.978   0.641  26.236 -0.0875  0.1488  0.1408
   54CHL1   C11 6436   3.060   0.471  26.342  0.3107  0.0345 -0.5099
   54CHL1  H11A 6437   3.039   0.362  26.343  1.8111 -0.2928 -1.7375
   54CHL1  H11B 6438   3.143   0.481  26.269  0.6171 -0.0932 -0.1833
   54CHL1    C9 6439   3.084   0.537  26.475 -0.1166 -0.2899  0.1494
   54CHL1    H9 6440   3.115   0.641  26.452 -0.3414  0.1673  1.7541
   54CHL1   C10 6441   3.192   0.470  26.559  0.5284 -0.3488 -0.5401
   54CHL1   C19 6442   3.168   0.319  26.557  0.5218 -0.0221 -0.4540
   54CHL1  H19A 6443   3.237   0.249  26.609 -0.9617 -2.2042 -1.2599
   54CHL1  H19B 6444   3.068   0.294  26.600  0.0214  0.4596 -1.3013
   54CHL1  H19C 6445   3.163   0.280  26.454 -1.7673 -0.9521 -0.0443
   54CHL1    C1 6446   3.334   0.500  26.488  0.6093  0.1573 -0.4663
   54CHL1   H1A 6447   3.323   0.452  26.388  0.2053  0.4873 -0.5845
   54CHL1   H1B 6448   3.338   0.610  26.468 -0.7597 -0.0845 -2.3524
   54CHL1    C2 6449   3.455   0.453  26.568  0.3451  0.2573  0.2180
   54CHL1   H2A 6450   3.545   0.487  26.511 -0.0657 -0.1493 -0.6953
   54CHL1   H2B 6451   3.448   0.343  26.582 -0.5611  0.3056  0.2164
   54CHL1   C20 6452   2.599   0.572  26.179  0.1861 -0.5407 -0.0768
   54CHL1   H20 6453   2.541   0.485  26.218 -1.8533  0.4816 -0.7344
   54CHL1   C21 6454   2.677   0.533  26.055 -0.1029  0.0130 -0.0626
   54CHL1  H21A 6455   2.610   0.499  25.972 -0.8455 -0.0153  0.5394
   54CHL1  H21B 6456   2.749   0.453  26.079 -0.2909  0.6405  2.9002
   54CHL1  H21C 6457   2.739   0.616  26.015  2.0850 -0.9925  1.1366
   54CHL1   C22 6458   2.491   0.671  26.137  0.1504 -0.2735 -0.1824
   54CHL1  H22A 6459   2.451   0.721  26.228  0.2162  0.6578 -0.6562
   54CHL1  H22B 6460   2.548   0.750  26.084  0.8865 -0.4434  0.3339
   54CHL1   C23 6461   2.369   0.599  26.082  0.2114 -0.2045  0.3189
   54CHL1  H23A 6462   2.399   0.547  25.989  2.2800 -0.1057  0.8761
   54CHL1  H23B 6463   2.329   0.530  26.159 -1.3923  0.5993  0.2417
   54CHL1   C24 6464   2.250   0.694  26.048  0.5418 -0.0792 -0.7037
   54CHL1  H24A 6465   2.237   0.752  26.142  0.4266  1.8935 -1.8776
   54CHL1  H24B 6466   2.286   0.765  25.971  0.0153  0.0849 -0.7970
   54CHL1   C25 6467   2.121   0.628  26.009  0.2828 -0.1796  0.1160
   54CHL1   H25 6468   2.048   0.711  26.004 -1.3869 -1.5859  0.4060
   54CHL1   C26 6469   2.129   0.579  25.863  0.2821 -0.1820 -0.0388
   54CHL1  H26A 6470   2.194   0.489  25.864 -0.8563 -1.0241 -0.0480
   54CHL1  H26B 6471   2.037   0.530  25.826  0.8344 -1.1602 -0.1382
   54CHL1  H26C 6472   2.165   0.659  25.795  0.1803 -0.6147 -0.6041
   54CHL1   C27 6473   2.052   0.527  26.103 -0.3057  0.3564  0.2326
   54CHL1  H27A 6474   2.045   0.543  26.213  4.9222 -1.8056  1.1399
   54CHL1  H27B 6475   1.953   0.502  26.059 -0.6753 -0.6748  1.5895
   54CHL1  H27C 6476   2.107   0.430  26.098 -1.7613 -0.5686  1.1365
   55CHL1    C3 6477   3.547   2.976  24.036  0.0404  0.0652  0.1243
   55CHL1    H3 6478   3.505   3.054  24.104 -1.5784 -2.2528  1.9755
   55CHL1    O3 6479   3.680   2.947  24.073  0.5336 -0.6823  0.6113
   55CHL1   H3' 6480   3.713   2.884  24.008  2.0399  1.4514 -0.8155
   55CHL1    C4 6481   3.468   2.842  24.039  0.4385  0.1562 -0.8514
   55CHL1   H4A 6482   3.523   2.755  23.996 -0.8583 -1.1261  0.0300
   55CHL1   H4B 6483   3.464   2.808  24.144 -3.5460  0.0699 -0.8947
   55CHL1    C5 6484   3.330   2.863  23.979  0.1185  0.2849 -0.2537
   55CHL1    C6 6485   3.226   2.828  24.057  0.2256  0.2163  0.2044
   55CHL1    H6 6486   3.234   2.791  24.160  0.6966 -0.7437 -0.1610
   55CHL1    C7 6487   3.090   2.819  24.001 -0.6473  0.5817 -0.6326
   55CHL1   H7A 6488   3.071   2.710  24.008 -0.6165  0.3344 -3.2095
   55CHL1   H7B 6489   3.014   2.880  24.055 -0.0613  0.7775 -0.0157
   55CHL1    C8 6490   3.076   2.849  23.850  0.2313  0.7154 -0.0727
   55CHL1    H8 6491   3.108   2.759  23.794 -3.2295  0.2144 -1.4490
   55CHL1   C14 6492   2.932   2.879  23.818 -0.3982  0.4316 -0.1569
   55CHL1   H14 6493   2.912   2.980  23.860 -3.8978 -0.4134  0.4952
   55CHL1   C15 6494   2.806   2.800  23.864 -0.5974  0.3066 -0.3582
   55CHL1  H15A 6495   2.822   2.691  23.846 -1.5238  0.4789 -2.5984
   55CHL1  H15B 6496   2.785   2.806  23.973  3.9872 -2.4700  0.9461
   55CHL1   C16 6497   2.693   2.847  23.784 -0.4996  0.0789 -0.2266
   55CHL1  H16A 6498   2.647   2.757  23.737 -2.4561  1.6987 -1.5603
   55CHL1  H16B 6499   2.614   2.907  23.833  0.5384  1.7421 -0.5378
   55CHL1   C17 6500   2.754   2.944  23.673  0.1975  0.2433  0.4855
   55CHL1   H17 6501   2.760   3.043  23.723  0.7027  0.7715 -0.5836
   55CHL1   C13 6502   2.906   2.906  23.669 -0.3411 -0.1719 -0.1821
   55CHL1   C18 6503   2.922   2.790  23.573  0.2740 -0.3372 -0.3198
   55CHL1  H18A 6504   2.844   2.715  23.598  0.6663 -1.0006 -1.0349
   55CHL1  H18B 6505   2.918   2.811  23.463 -1.7195 -2.3978 -0.7268
   55CHL1  H18C 6506   3.026   2.754  23.586 -0.1324 -1.4658 -0.0458
   55CHL1   C12 6507   3.001   3.025  23.633 -0.0684  0.0119 -0.1695
   55CHL1  H12A 6508   3.001   3.044  23.524  1.3062 -1.7340 -0.5324
   55CHL1  H12B 6509   2.976   3.110  23.700  1.9602 -0.0142  0.6977
   55CHL1   C11 6510   3.150   2.987  23.653 -0.2105 -0.0196 -0.8376
   55CHL1  H11A 6511   3.173   2.900  23.588  1.6030 -0.8852  0.8572
   55CHL1  H11B 6512   3.216   3.072  23.625 -0.1620  0.1019 -0.3619
   55CHL1    C9 6513   3.181   2.956  23.801  0.7129  0.1607  0.6579
   55CHL1    H9 6514   3.152   3.052  23.850 -0.3834 -0.4559  1.2403
   55CHL1   C10 6515   3.323   2.916  23.834 -0.2373 -0.0170  0.0584
   55CHL1   C19 6516   3.387   2.812  23.739 -0.2243 -0.6213 -0.6784
   55CHL1  H19A 6517   3.462   2.741  23.781 -0.4349 -1.6192 -1.9381
   55CHL1  H19B 6518   3.307   2.756  23.686  0.7450 -0.8775 -1.9242
   55CHL1  H19C 6519   3.453   2.865  23.667  0.2807 -0.8918 -0.4225
   55CHL1    C1 6520   3.419   3.042  23.823  0.5045  0.7878  0.2441
   55CHL1   H1A 6521   3.434   3.071  23.717 -1.4720 -1.2260 -0.7008
   55CHL1   H1B 6522   3.364   3.118  23.882  2.2089  0.7496  1.9695
   55CHL1    C2 6523   3.556   3.026  23.881 -0.1917  0.3640 -0.0426
   55CHL1   H2A 6524   3.617   3.117  23.895 -0.3550  0.1069  3.2467
   55CHL1   H2B 6525   3.617   2.946  23.833 -1.3344 -1.1251  0.8865
   55CHL1   C20 6526   2.680   2.947  23.541  0.1213  0.0645  1.1344
   55CHL1   H20 6527   2.681   2.852  23.484 -2.0962  0.2201  0.7595
   55CHL1   C21 6528   2.725   3.068  23.453 -0.0404 -0.2127 -0.3418
   55CHL1  H21A 6529   2.833   3.048  23.438  0.2011 -0.2822  1.2493
   55CHL1  H21B 6530   2.724   3.162  23.512  1.9765 -2.0335  2.9323
   55CHL1  H21C 6531   2.672   3.067  23.356  2.5741  0.3594 -1.8437
   55CHL1   C22 6532   2.530   2.961  23.573  0.4035 -0.3878 -0.2699
   55CHL1  H22A 6533   2.495   2.863  23.612 -0.1919 -0.4219 -0.8697
   55CHL1  H22B 6534   2.526   3.037  23.653 -0.0473 -1.8990  1.1854
   55CHL1   C23 6535   2.438   3.003  23.456  0.5914 -0.0700  0.0034
   55CHL1  H23A 6536   2.462   3.107  23.426 -1.5528  0.6203  0.4949
   55CHL1  H23B 6537   2.472   2.951  23.364 -1.4304  0.4601 -1.1031
   55CHL1   C24 6538   2.290   2.991  23.480  0.4187 -0.2973 -0.1147
   55CHL1  H24A 6539   2.276   2.881  23.488  1.5494 -0.5802 -1.6996
   55CHL1  H24B 6540   2.257   3.042  23.573 -3.0971 -0.0038 -1.3569
   55CHL1   C25 6541   2.197   3.052  23.379  0.2369  0.1523 -0.8451
   55CHL1   H25 6542   2.231   3.026  23.276  0.2962  0.5376 -0.9264
   55CHL1   C26 6543   2.058   2.991  23.395  0.1460  0.6459  0.4740
   55CHL1  H26A 6544   2.002   3.051  23.320 -0.0770  0.8171  0.7712
   55CHL1  H26B 6545   2.057   2.884  23.369  0.7457  0.7526  0.0146
   55CHL1  H26C 6546   2.026   3.019  23.498  1.3655  0.5661  0.8814
   55CHL1   C27 6547   2.190   3.208  23.374 -0.1796  0.5445 -0.5183
   55CHL1  H27A 6548   2.293   3.245  23.352 -0.2330  0.0523 -1.6876
   55CHL1  H27B 6549   2.118   3.245  23.297 -0.4964  1.0524  0.0167
   55CHL1  H27C 6550   2.167   3.253  23.473 -1.2092  2.3214 -1.5064
   56CHL1    C3 6551   2.517   2.271  26.631 -0.2379  0.3828 -0.0118
   56CHL1    H3 6552   2.572   2.365  26.611  0.8751 -0.2624 -0.0488
   56CHL1    O3 6553   2.521   2.259  26.772  0.5064 -0.5782  0.4793
   56CHL1   H3' 6554   2.439   2.291  26.810 -0.2586 -0.1438 -1.4402
   56CHL1    C4 6555   2.372   2.275  26.583  0.1503 -0.2507  0.6717
   56CHL1   H4A 6556   2.306   2.203  26.636 -1.0559  1.2110  1.2177
   56CHL1   H4B 6557   2.335   2.372  26.622 -1.1310 -0.3554 -0.2155
   56CHL1    C5 6558   2.354   2.265  26.433  0.4990 -0.7842  0.2651
   56CHL1    C6 6559   2.279   2.360  26.363 -0.3766  0.2729  0.6321
   56CHL1    H6 6560   2.230   2.448  26.406  0.2469  1.3992 -0.8910
   56CHL1    C7 6561   2.244   2.331  26.218  0.1249 -0.3329  0.0623
   56CHL1   H7A 6562   2.136   2.351  26.207  0.1718  1.1123  1.7252
   56CHL1   H7B 6563   2.289   2.405  26.149 -2.2239  1.7069  0.5755
   56CHL1    C8 6564   2.281   2.190  26.172  0.2564 -0.0430 -0.6232
   56CHL1    H8 6565   2.203   2.117  26.200 -0.6484  1.1925  0.1686
   56CHL1   C14 6566   2.283   2.182  26.023  0.2450 -0.1530 -0.0168
   56CHL1   H14 6567   2.364   2.255  26.002 -0.8030  0.4267 -2.2657
   56CHL1   C15 6568   2.171   2.243  25.940  0.2841 -0.2149  0.0800
   56CHL1  H15A 6569   2.071   2.218  25.983  1.0058 -0.1873  1.8453
   56CHL1  H15B 6570   2.188   2.353  25.937  0.7155 -0.2726  0.3871
   56CHL1   C16 6571   2.195   2.174  25.803  0.0093  0.0375 -0.0987
   56CHL1  H16A 6572   2.100   2.127  25.770 -1.1007  0.9911  1.5644
   56CHL1  H16B 6573   2.232   2.258  25.739  0.0907  0.9176  1.0689
   56CHL1   C17 6574   2.314   2.079  25.812  0.2673  0.2567  0.0688
   56CHL1   H17 6575   2.405   2.142  25.798  0.5232 -0.0004  0.5499
   56CHL1   C13 6576   2.327   2.049  25.956 -0.1173 -0.7245 -0.8150
   56CHL1   C18 6577   2.225   1.943  26.003  0.0052  0.0557 -0.5848
   56CHL1  H18A 6578   2.240   1.852  25.942  0.3947  1.6543 -3.0260
   56CHL1  H18B 6579   2.240   1.914  26.109  0.0938 -0.7380 -0.8127
   56CHL1  H18C 6580   2.123   1.986  25.997 -0.9147 -1.6654  1.4708
   56CHL1   C12 6581   2.467   2.010  26.006  0.2205 -0.2277  0.0623
   56CHL1  H12A 6582   2.487   1.905  25.977 -1.2051 -1.2296  2.4169
   56CHL1  H12B 6583   2.552   2.069  25.965  3.6980 -1.8609  4.1101
   56CHL1   C11 6584   2.474   2.013  26.157 -0.8111 -0.2650 -0.5728
   56CHL1  H11A 6585   2.422   1.917  26.174  0.4954 -1.2974 -2.1356
   56CHL1  H11B 6586   2.581   2.001  26.184 -0.9863 -0.1717  0.1892
   56CHL1    C9 6587   2.420   2.146  26.223 -0.5408  0.0883  0.0321
   56CHL1    H9 6588   2.494   2.223  26.193 -0.3644  0.9019  2.3648
   56CHL1   C10 6589   2.426   2.144  26.373 -0.4401  0.1988 -0.4038
   56CHL1   C19 6590   2.362   2.015  26.427  0.2374 -0.3735 -0.6538
   56CHL1  H19A 6591   2.373   2.023  26.537  0.4083 -1.1589 -0.6045
   56CHL1  H19B 6592   2.255   2.007  26.400 -0.3061 -1.8877  1.6611
   56CHL1  H19C 6593   2.418   1.921  26.404 -1.1566 -1.2185 -0.7319
   56CHL1    C1 6594   2.579   2.150  26.426  0.4708  0.3612  0.5676
   56CHL1   H1A 6595   2.624   2.057  26.384  2.0683 -0.4380  3.7725
   56CHL1   H1B 6596   2.615   2.243  26.379 -0.3257  0.7676  0.7371
   56CHL1    C2 6597   2.608   2.161  26.571  0.0192  0.5850 -0.1704
   56CHL1   H2A 6598   2.711   2.188  26.602  0.1047 -0.4907  0.5552
   56CHL1   H2B 6599   2.591   2.067  26.629  0.4511  2.3302  3.0296
   56CHL1   C20 6600   2.316   1.974  25.707 -0.8938  0.8135 -0.1565
   56CHL1   H20 6601   2.218   1.921  25.706  0.5111 -2.0033 -2.2116
   56CHL1   C21 6602   2.433   1.866  25.722  0.2314 -0.7204  0.0051
   56CHL1  H21A 6603   2.530   1.915  25.743 -1.8485  2.5798  3.3925
   56CHL1  H21B 6604   2.449   1.800  25.634  0.1237 -0.3476 -0.2982
   56CHL1  H21C 6605   2.407   1.801  25.809 -1.9733  0.9746  0.7137
   56CHL1   C22 6606   2.313   2.022  25.557  0.3854 -0.2878 -0.3229
   56CHL1  H22A 6607   2.300   1.939  25.484 -1.9973  0.0640 -0.3595
   56CHL1  H22B 6608   2.219   2.080  25.550  0.2546 -0.0863  2.2621
   56CHL1   C23 6609   2.435   2.102  25.519  0.4313 -0.1973 -0.3911
   56CHL1  H23A 6610   2.464   2.163  25.607  0.2733 -2.2407  1.1544
   56CHL1  H23B 6611   2.516   2.026  25.512 -1.0040 -1.8854  0.5742
   56CHL1   C24 6612   2.434   2.181  25.384  0.2227  0.2966  0.5055
   56CHL1  H24A 6613   2.528   2.241  25.384  0.9638 -0.8071 -1.2374
   56CHL1  H24B 6614   2.447   2.111  25.299 -1.9102 -1.2374  1.3693
   56CHL1   C25 6615   2.313   2.274  25.348  0.4089  0.7619  0.2182
   56CHL1   H25 6616   2.220   2.214  25.358  1.2945 -0.3651  2.2069
   56CHL1   C26 6617   2.301   2.386  25.452  0.0414 -0.4883  0.2690
   56CHL1  H26A 6618   2.390   2.450  25.437 -0.1781 -0.2817 -0.1662
   56CHL1  H26B 6619   2.207   2.445  25.445  1.6398  2.2632  0.7050
   56CHL1  H26C 6620   2.292   2.344  25.554  0.5928 -0.2447  0.4272
   56CHL1   C27 6621   2.304   2.318  25.205 -0.5160 -0.4913 -0.3697
   56CHL1  H27A 6622   2.402   2.369  25.198  1.0250 -3.0347  1.2533
   56CHL1  H27B 6623   2.319   2.227  25.142  3.5121  0.1000 -0.5510
   56CHL1  H27C 6624   2.227   2.389  25.169 -0.5948 -0.5318 -0.2811
   57CHL1    C3 6625   3.837   4.111  21.934  0.2136  0.7509  0.5906
   57CHL1    H3 6626   3.823   4.026  21.863  1.8243  0.1866  0.9113
   57CHL1    O3 6627   3.975   4.127  21.970  0.3569  0.2460 -0.1512
   57CHL1   H3' 6628   3.965   4.216  22.004  0.0883  0.3821 -0.5931
   57CHL1    C4 6629   3.793   4.234  21.860 -0.3349 -0.1750  0.1084
   57CHL1   H4A 6630   3.825   4.318  21.927 -0.5535 -0.1875  0.2303
   57CHL1   H4B 6631   3.863   4.235  21.774  0.3038  0.0555  0.6129
   57CHL1    C5 6632   3.651   4.263  21.821 -0.0859  0.6772 -1.0113
   57CHL1    C6 6633   3.623   4.305  21.697  0.5086 -0.4130 -0.0291
   57CHL1    H6 6634   3.702   4.327  21.624  0.1176  0.4482 -0.2032
   57CHL1    C7 6635   3.481   4.311  21.652 -0.8759  0.0470 -0.7399
   57CHL1   H7A 6636   3.463   4.401  21.590  0.6971  0.3610 -0.7782
   57CHL1   H7B 6637   3.461   4.226  21.583  0.5289 -1.8516  1.0672
   57CHL1    C8 6638   3.373   4.301  21.762 -0.2330 -0.3688  0.4223
   57CHL1    H8 6639   3.372   4.399  21.814 -3.1170 -0.2624  0.2856
   57CHL1   C14 6640   3.232   4.272  21.696  0.0992  0.2376 -0.3666
   57CHL1   H14 6641   3.230   4.173  21.645 -3.2397  1.0958 -2.1978
   57CHL1   C15 6642   3.178   4.369  21.583 -0.6665 -0.0277  0.0447
   57CHL1  H15A 6643   3.196   4.470  21.627  1.8345 -0.8533  1.0862
   57CHL1  H15B 6644   3.217   4.366  21.479 -2.1791  1.2215 -0.5904
   57CHL1   C16 6645   3.024   4.335  21.572 -1.0690 -0.1990  0.0102
   57CHL1  H16A 6646   2.964   4.429  21.576  1.8482  1.9151 -1.5332
   57CHL1  H16B 6647   3.002   4.279  21.479  0.5852 -2.7078  1.0323
   57CHL1   C17 6648   2.998   4.238  21.697  0.4218  0.4370 -0.3219
   57CHL1   H17 6649   3.033   4.142  21.653  1.2916  0.6570 -0.1389
   57CHL1   C13 6650   3.114   4.261  21.795  1.0502  0.0812  0.4350
   57CHL1   C18 6651   3.105   4.397  21.865 -0.3260 -0.3885 -0.2291
   57CHL1  H18A 6652   3.013   4.396  21.927  1.1983  1.2665  2.2740
   57CHL1  H18B 6653   3.188   4.410  21.939  0.5033  0.3295 -1.2603
   57CHL1  H18C 6654   3.099   4.488  21.801 -1.8728  0.2720  0.7768
   57CHL1   C12 6655   3.148   4.143  21.892  0.2580  0.1355  0.2903
   57CHL1  H12A 6656   3.081   4.153  21.980 -0.6571  1.4011 -0.5095
   57CHL1  H12B 6657   3.144   4.046  21.839  0.1503  0.8292 -1.0317
   57CHL1   C11 6658   3.286   4.161  21.963 -0.2281 -0.0009  0.2235
   57CHL1  H11A 6659   3.278   4.248  22.031  1.2827  0.3886 -0.0590
   57CHL1  H11B 6660   3.317   4.075  22.026 -1.6638  0.0416  1.0256
   57CHL1    C9 6661   3.407   4.187  21.859  0.8035 -0.0561  0.3771
   57CHL1    H9 6662   3.413   4.095  21.797 -0.2850  0.6635 -0.8474
   57CHL1   C10 6663   3.551   4.213  21.928  0.5937 -0.8614  0.7001
   57CHL1   C19 6664   3.542   4.331  22.031  0.0543  0.2393 -0.0286
   57CHL1  H19A 6665   3.492   4.416  21.979 -0.4303 -0.0903 -0.1097
   57CHL1  H19B 6666   3.478   4.289  22.112 -0.2801 -0.5826 -0.7091
   57CHL1  H19C 6667   3.635   4.370  22.078  0.2403 -0.8518  0.5421
   57CHL1    C1 6668   3.599   4.085  21.997  0.4790 -0.5578 -0.4866
   57CHL1   H1A 6669   3.540   4.087  22.091  1.9129  2.8790  0.4986
   57CHL1   H1B 6670   3.568   3.998  21.936 -1.5934  0.7624 -1.4218
   57CHL1    C2 6671   3.740   4.084  22.052 -0.5683 -0.5424 -0.1825
   57CHL1   H2A 6672   3.768   3.987  22.098  0.5131 -0.4263 -0.5766
   57CHL1   H2B 6673   3.755   4.170  22.121  1.0577 -1.0478  0.1374
   57CHL1   C20 6674   2.848   4.245  21.739 -0.0326 -0.8296 -0.0598
   57CHL1   H20 6675   2.827   4.347  21.777 -1.2670 -0.3681 -1.8677
   57CHL1   C21 6676   2.825   4.156  21.865 -0.2413 -0.9257  0.0927
   57CHL1  H21A 6677   2.837   4.048  21.843 -0.9926 -1.8004  3.4162
   57CHL1  H21B 6678   2.722   4.176  21.902  0.3776  0.8282  0.9575
   57CHL1  H21C 6679   2.888   4.180  21.953  0.5231 -1.5461 -0.2685
   57CHL1   C22 6680   2.737   4.212  21.634  0.4121  0.2561  0.6449
   57CHL1  H22A 6681   2.636   4.197  21.678  0.9360 -0.4388  1.6687
   57CHL1  H22B 6682   2.731   4.300  21.567 -1.0526  1.6766  2.5660
   57CHL1   C23 6683   2.760   4.093  21.534  0.2962 -1.1692  0.1886
   57CHL1  H23A 6684   2.836   4.129  21.461  1.0210 -0.6105  1.1890
   57CHL1  H23B 6685   2.804   4.009  21.590  3.4970  0.8249  0.9451
   57CHL1   C24 6686   2.636   4.055  21.444 -0.0859  0.1074  0.5948
   57CHL1  H24A 6687   2.645   3.954  21.400  0.6982 -0.6118  2.3293
   57CHL1  H24B 6688   2.555   4.032  21.516 -0.3205  1.4889  0.8078
   57CHL1   C25 6689   2.593   4.163  21.341  0.6781 -0.0460  0.0169
   57CHL1   H25 6690   2.573   4.259  21.394  2.3816 -0.4961  1.5761
   57CHL1   C26 6691   2.697   4.195  21.234 -0.2275  0.2676 -0.0278
   57CHL1  H26A 6692   2.782   4.247  21.284 -0.5500 -0.3619  1.2010
   57CHL1  H26B 6693   2.728   4.101  21.183 -1.1276  0.6408 -1.3334
   57CHL1  H26C 6694   2.644   4.258  21.158 -2.1224  0.5057  1.4356
   57CHL1   C27 6695   2.463   4.117  21.263  0.1900  0.1262 -0.1123
   57CHL1  H27A 6696   2.389   4.081  21.338 -0.7520 -0.7523 -1.4002
   57CHL1  H27B 6697   2.432   4.198  21.194 -0.4085 -1.2256 -1.5080
   57CHL1  H27C 6698   2.481   4.026  21.201  0.5343  1.5978 -2.2814
   58CHL1    C3 6699   0.722   1.945  21.461  0.1377  0.6285  0.6943
   58CHL1    H3 6700   0.757   2.028  21.526  2.7107  0.4333 -0.3144
   58CHL1    O3 6701   0.605   1.886  21.524 -0.4075  0.3095  0.5630
   58CHL1   H3' 6702   0.539   1.867  21.457 -0.5913 -2.2712  1.3489
   58CHL1    C4 6703   0.685   1.984  21.318 -0.1692 -0.1871  0.4210
   58CHL1   H4A 6704   0.663   1.890  21.264 -1.3066 -0.2376  0.9378
   58CHL1   H4B 6705   0.593   2.047  21.320 -1.0240 -1.4196  1.1514
   58CHL1    C5 6706   0.797   2.050  21.245  0.0024 -0.0110  0.6986
   58CHL1    C6 6707   0.780   2.173  21.198  0.1208 -0.7474  0.5379
   58CHL1    H6 6708   0.685   2.229  21.202  1.1260  0.9863  1.2735
   58CHL1    C7 6709   0.883   2.244  21.118 -0.6434 -0.9006 -0.1246
   58CHL1   H7A 6710   0.845   2.289  21.024  0.0373 -2.0821 -0.9837
   58CHL1   H7B 6711   0.918   2.326  21.184 -0.8938 -1.0897  0.2474
   58CHL1    C8 6712   1.007   2.159  21.088  0.2659  0.1870  0.4320
   58CHL1    H8 6713   0.984   2.096  20.999 -1.4996  1.3387  0.0142
   58CHL1   C14 6714   1.120   2.256  21.056 -0.1865  0.4692 -0.0434
   58CHL1   H14 6715   1.138   2.309  21.152 -0.1951  1.8960 -0.8044
   58CHL1   C15 6716   1.106   2.369  20.953 -0.5395 -0.3744  0.5894
   58CHL1  H15A 6717   1.068   2.328  20.857 -0.4118 -1.6316  1.0560
   58CHL1  H15B 6718   1.040   2.452  20.986 -0.0320 -0.5392  2.1090
   58CHL1   C16 6719   1.247   2.418  20.936 -0.0839 -0.4500  0.2596
   58CHL1  H16A 6720   1.265   2.421  20.827  0.9421 -3.0117  0.2728
   58CHL1  H16B 6721   1.271   2.510  20.994  2.8575 -1.5465  0.9989
   58CHL1   C17 6722   1.341   2.307  21.002 -0.1521 -0.4771 -0.1143
   58CHL1   H17 6723   1.367   2.344  21.104 -0.9101  3.2099 -1.0975
   58CHL1   C13 6724   1.249   2.185  21.018 -0.1971 -0.2962 -0.2453
   58CHL1   C18 6725   1.236   2.115  20.880 -0.2913 -0.4911  0.4457
   58CHL1  H18A 6726   1.140   2.059  20.875 -1.4795  1.3372  1.5253
   58CHL1  H18B 6727   1.233   2.188  20.795 -2.0968 -0.5272  0.4513
   58CHL1  H18C 6728   1.324   2.055  20.849 -1.0062 -0.4801 -1.8534
   58CHL1   C12 6729   1.288   2.094  21.131  0.0426 -0.1501 -0.0134
   58CHL1  H12A 6730   1.370   2.026  21.100  1.0410  0.0778  1.9335
   58CHL1  H12B 6731   1.317   2.151  21.223 -2.1902  1.4854 -0.2185
   58CHL1   C11 6732   1.177   1.997  21.171  0.4579  0.3152 -0.6753
   58CHL1  H11A 6733   1.164   1.921  21.091 -0.8769 -1.2435  0.9450
   58CHL1  H11B 6734   1.205   1.943  21.264  0.1199 -1.4732 -1.5798
   58CHL1    C9 6735   1.045   2.068  21.201  0.1800 -0.1890 -0.0673
   58CHL1    H9 6736   1.064   2.136  21.287 -0.0064  2.3352 -1.9119
   58CHL1   C10 6737   0.930   1.975  21.243  0.7360 -0.4301  0.4569
   58CHL1   C19 6738   0.902   1.867  21.132 -0.4676 -0.9201 -0.2043
   58CHL1  H19A 6739   0.908   1.897  21.026 -1.1386  2.1112  0.5126
   58CHL1  H19B 6740   0.981   1.791  21.150 -0.7585 -0.6724  2.7339
   58CHL1  H19C 6741   0.804   1.817  21.149 -0.0910 -1.1281  1.6413
   58CHL1    C1 6742   0.952   1.901  21.374  0.0576  0.1067 -0.3242
   58CHL1   H1A 6743   1.042   1.836  21.382 -1.2747 -1.5504  2.7421
   58CHL1   H1B 6744   0.981   1.982  21.444 -0.8706 -0.8945  1.2857
   58CHL1    C2 6745   0.841   1.837  21.454  0.1196  0.5720 -1.0848
   58CHL1   H2A 6746   0.872   1.814  21.558  1.5025  0.9179 -1.3957
   58CHL1   H2B 6747   0.802   1.748  21.399  1.8102 -0.5738 -0.5033
   58CHL1   C20 6748   1.471   2.296  20.920 -0.2437 -0.5491 -0.0283
   58CHL1   H20 6749   1.445   2.264  20.817  1.4204 -0.6533 -0.4564
   58CHL1   C21 6750   1.559   2.180  20.992  0.2356  0.0484 -0.0616
   58CHL1  H21A 6751   1.577   2.203  21.099  2.2710 -0.2028 -0.3219
   58CHL1  H21B 6752   1.655   2.182  20.936  0.0857 -1.5461 -0.4289
   58CHL1  H21C 6753   1.517   2.079  20.972 -0.4834  0.8762 -3.3510
   58CHL1   C22 6754   1.541   2.436  20.915  0.2184  0.0575 -0.2211
   58CHL1  H22A 6755   1.477   2.518  20.878  1.3629  0.8900 -0.4245
   58CHL1  H22B 6756   1.570   2.468  21.018 -0.5387  0.9226 -0.2686
   58CHL1   C23 6757   1.667   2.433  20.822  0.5729  0.2573 -0.0080
   58CHL1  H23A 6758   1.739   2.352  20.843  1.0756  0.6582 -0.1639
   58CHL1  H23B 6759   1.634   2.423  20.717  0.8129 -1.0236  0.0299
   58CHL1   C24 6760   1.758   2.561  20.827 -0.0242 -0.2906  1.3637
   58CHL1  H24A 6761   1.692   2.650  20.827 -2.4714 -1.8694  4.7963
   58CHL1  H24B 6762   1.808   2.566  20.926  1.3731  1.7325  0.6200
   58CHL1   C25 6763   1.858   2.570  20.709 -0.1949  0.4355  0.5827
   58CHL1   H25 6764   1.804   2.585  20.613  1.7546  2.1203 -0.3351
   58CHL1   C26 6765   1.944   2.700  20.711  0.4631 -0.3403 -0.0065
   58CHL1  H26A 6766   2.006   2.710  20.803 -2.0360  4.9465  1.5488
   58CHL1  H26B 6767   2.013   2.700  20.624  1.3231  0.7899  0.6366
   58CHL1  H26C 6768   1.887   2.795  20.703  0.1700 -0.4938  0.2766
   58CHL1   C27 6769   1.955   2.454  20.696  0.0290  0.3115 -0.6176
   58CHL1  H27A 6770   2.016   2.476  20.606  1.5488 -0.3476  0.1994
   58CHL1  H27B 6771   2.019   2.465  20.786 -0.8031  0.6115 -0.0522
   58CHL1  H27C 6772   1.904   2.355  20.699  0.6226  0.0183  0.9381
   59CHL1    C3 6773   3.569   1.909  20.693  0.5399 -0.0046 -0.6713
   59CHL1    H3 6774   3.469   1.924  20.739 -0.1683 -0.3604 -2.0242
   59CHL1    O3 6775   3.672   1.897  20.790  0.2660  0.7305 -0.0279
   59CHL1   H3' 6776   3.664   1.983  20.830 -1.2198  1.3294 -1.4832
   59CHL1    C4 6777   3.553   1.787  20.605  0.1011  0.6365  0.2149
   59CHL1   H4A 6778   3.655   1.769  20.567  0.0038  0.1107  0.1989
   59CHL1   H4B 6779   3.531   1.693  20.659 -1.5041  1.4174  1.0085
   59CHL1    C5 6780   3.468   1.807  20.472  0.5333 -0.1786  0.9021
   59CHL1    C6 6781   3.364   1.725  20.443 -0.0585 -0.4584 -0.2525
   59CHL1    H6 6782   3.346   1.639  20.509 -0.9092  0.8953  1.3480
   59CHL1    C7 6783   3.286   1.740  20.317  0.5043  0.2104  0.0737
   59CHL1   H7A 6784   3.288   1.644  20.261 -1.7997  0.4060 -0.4317
   59CHL1   H7B 6785   3.183   1.778  20.331  0.5596  1.2672 -1.9819
   59CHL1    C8 6786   3.347   1.850  20.226  0.3545  0.2282  0.4629
   59CHL1    H8 6787   3.418   1.797  20.160 -1.7854 -2.2188 -0.0483
   59CHL1   C14 6788   3.243   1.905  20.129  0.5139 -0.5768 -0.2942
   59CHL1   H14 6789   3.182   1.979  20.185 -0.6312 -0.4908 -1.6150
   59CHL1   C15 6790   3.137   1.807  20.064  0.5298 -0.6322 -0.1052
   59CHL1  H15A 6791   3.195   1.717  20.035 -1.9731 -2.4659  0.3092
   59CHL1  H15B 6792   3.054   1.773  20.130 -0.5933 -0.2209 -1.2681
   59CHL1   C16 6793   3.091   1.875  19.936 -0.9005  0.6059  0.1300
   59CHL1  H16A 6794   3.120   1.823  19.842 -1.5027  0.0317  0.2491
   59CHL1  H16B 6795   2.981   1.883  19.926 -1.0529 -2.5369 -2.8718
   59CHL1   C17 6796   3.158   2.020  19.939  0.3443  0.4612 -0.0761
   59CHL1   H17 6797   3.114   2.076  20.024  0.5674  0.9952 -0.3112
   59CHL1   C13 6798   3.297   1.989  20.017 -0.4010 -0.5924 -0.1775
   59CHL1   C18 6799   3.396   1.911  19.929 -0.3885 -0.1034  0.5497
   59CHL1  H18A 6800   3.424   1.953  19.830 -0.4746  1.0266  0.9923
   59CHL1  H18B 6801   3.493   1.894  19.980 -0.5776 -1.5946  0.4388
   59CHL1  H18C 6802   3.354   1.810  19.910  1.9213 -0.6658 -2.4832
   59CHL1   C12 6803   3.361   2.113  20.090 -0.1815 -0.2578  0.2724
   59CHL1  H12A 6804   3.416   2.162  20.007 -2.5270 -0.6496 -1.6356
   59CHL1  H12B 6805   3.280   2.185  20.117 -0.7021  0.2287 -2.2808
   59CHL1   C11 6806   3.460   2.078  20.198 -0.5621 -0.0953 -0.3505
   59CHL1  H11A 6807   3.549   2.043  20.142 -0.5864 -0.3261 -0.2454
   59CHL1  H11B 6808   3.489   2.166  20.260  1.1659 -2.9391  3.2849
   59CHL1    C9 6809   3.409   1.969  20.299 -0.0703 -0.1162 -0.5484
   59CHL1    H9 6810   3.324   2.006  20.359  0.3475  0.1280 -0.0956
   59CHL1   C10 6811   3.511   1.936  20.401  0.6617  0.6840  0.0560
   59CHL1   C19 6812   3.648   1.907  20.326  0.0728 -0.3361  0.0136
   59CHL1  H19A 6813   3.693   2.004  20.295 -1.2226  0.1585 -0.3825
   59CHL1  H19B 6814   3.723   1.860  20.393 -0.6038  0.0186  1.0430
   59CHL1  H19C 6815   3.636   1.837  20.240 -0.2007 -1.5453  1.0064
   59CHL1    C1 6816   3.523   2.056  20.496  0.4943  0.0703 -0.1764
   59CHL1   H1A 6817   3.567   2.144  20.444  1.0193  0.2164  0.5015
   59CHL1   H1B 6818   3.423   2.066  20.544  0.3692 -2.7269  0.3328
   59CHL1    C2 6819   3.612   2.022  20.616 -0.5685  0.1914  0.0724
   59CHL1   H2A 6820   3.610   2.114  20.680 -1.8306 -0.0637  0.4375
   59CHL1   H2B 6821   3.717   2.021  20.580 -0.8289 -1.3375 -0.6882
   59CHL1   C20 6822   3.141   2.099  19.812 -0.4960  0.7605  0.5218
   59CHL1   H20 6823   3.221   2.070  19.741  0.7769 -3.6595  3.3945
   59CHL1   C21 6824   3.165   2.246  19.851 -0.1786  0.9178  1.1591
   59CHL1  H21A 6825   3.085   2.285  19.918  0.8101  3.8206  0.7928
   59CHL1  H21B 6826   3.171   2.315  19.764  3.3612 -0.2151  0.3264
   59CHL1  H21C 6827   3.261   2.256  19.906  0.9968  1.5514 -0.8925
   59CHL1   C22 6828   3.001   2.080  19.751  0.2156  0.5927 -0.3377
   59CHL1  H22A 6829   2.988   1.975  19.718 -0.3300  0.8948 -1.1156
   59CHL1  H22B 6830   2.915   2.094  19.820 -1.1117 -2.3312 -1.2635
   59CHL1   C23 6831   2.980   2.168  19.627 -0.1499  0.5235 -0.1509
   59CHL1  H23A 6832   2.933   2.264  19.657 -0.8561 -0.5032  2.3326
   59CHL1  H23B 6833   3.073   2.187  19.571 -0.0321  1.4941  0.3485
   59CHL1   C24 6834   2.884   2.092  19.522 -1.2004 -0.2092 -1.0282
   59CHL1  H24A 6835   2.919   1.986  19.518 -1.2467 -0.2003 -1.6907
   59CHL1  H24B 6836   2.797   2.098  19.591  0.1608  3.3191  0.6280
   59CHL1   C25 6837   2.869   2.166  19.396 -0.2638 -0.1174 -0.6314
   59CHL1   H25 6838   2.847   2.269  19.431 -0.9332 -0.7842  0.9806
   59CHL1   C26 6839   2.988   2.155  19.300 -0.0313  0.0017  0.4735
   59CHL1  H26A 6840   2.971   2.208  19.204 -3.6353 -2.4613 -0.4205
   59CHL1  H26B 6841   3.082   2.194  19.347  0.0201 -1.4506  1.6394
   59CHL1  H26C 6842   3.002   2.051  19.265 -1.4710 -0.0429 -0.0082
   59CHL1   C27 6843   2.738   2.106  19.337 -0.0621 -0.0189  0.4014
   59CHL1  H27A 6844   2.657   2.100  19.413  0.0828  0.1474  0.5696
   59CHL1  H27B 6845   2.705   2.175  19.256  1.7607  0.8180  0.3319
   59CHL1  H27C 6846   2.767   2.005  19.303  1.0089  0.4408 -0.0995
   60CHL1    C3 6847   2.412   0.904  19.340 -0.1555  0.3890  0.3102
   60CHL1    H3 6848   2.467   0.809  19.324  1.2912  1.2966 -0.3284
   60CHL1    O3 6849   2.372   0.959  19.213 -0.7521  0.5618  0.8405
   60CHL1   H3' 6850   2.300   1.019  19.232 -0.4307  0.7271  1.5525
   60CHL1    C4 6851   2.286   0.880  19.423 -0.4245  0.1282  0.5848
   60CHL1   H4A 6852   2.230   0.976  19.422 -0.2925  0.2098  0.8580
   60CHL1   H4B 6853   2.221   0.808  19.368  1.8868  0.2125 -2.4987
   60CHL1    C5 6854   2.314   0.827  19.562 -0.6124 -0.3131  0.4085
   60CHL1    C6 6855   2.261   0.707  19.601 -0.2703 -0.6391  0.6118
   60CHL1    H6 6856   2.189   0.652  19.539 -0.7396  0.0363  0.5410
   60CHL1    C7 6857   2.294   0.656  19.738  0.4367 -0.1988 -0.4236
   60CHL1   H7A 6858   2.202   0.619  19.788  0.0998  1.2152  0.0670
   60CHL1   H7B 6859   2.358   0.568  19.718 -0.3533 -0.8794 -0.0067
   60CHL1    C8 6860   2.352   0.757  19.843  0.0085  0.0157 -0.3161
   60CHL1    H8 6861   2.261   0.815  19.869 -0.2481  0.3925 -1.9636
   60CHL1   C14 6862   2.407   0.686  19.963  0.5586  0.8114 -0.6334
   60CHL1   H14 6863   2.480   0.614  19.919  0.8038  0.4437  0.3657
   60CHL1   C15 6864   2.312   0.589  20.033 -0.0653 -0.2998 -0.0014
   60CHL1  H15A 6865   2.209   0.630  20.024  0.3561  0.4286 -2.6191
   60CHL1  H15B 6866   2.308   0.491  19.981  1.9166  0.2413 -1.2683
   60CHL1   C16 6867   2.361   0.590  20.181 -0.2443 -0.7426 -0.0820
   60CHL1  H16A 6868   2.280   0.639  20.237 -1.5515  0.3436 -2.7416
   60CHL1  H16B 6869   2.378   0.489  20.223  4.1635 -0.3311 -0.3177
   60CHL1   C17 6870   2.492   0.666  20.176 -0.6439 -0.1948 -0.3007
   60CHL1   H17 6871   2.573   0.593  20.153 -0.8579 -0.5588  0.1040
   60CHL1   C13 6872   2.466   0.772  20.069  0.6713  0.3001 -0.4488
   60CHL1   C18 6873   2.357   0.871  20.121  0.3459 -0.2485  0.1780
   60CHL1  H18A 6874   2.409   0.947  20.184  0.7885 -1.6117  1.5191
   60CHL1  H18B 6875   2.297   0.915  20.039 -0.5280 -2.1125 -0.2223
   60CHL1  H18C 6876   2.285   0.818  20.187 -1.3027 -0.0735 -1.4077
   60CHL1   C12 6877   2.581   0.848  20.005 -0.3011  0.1931  1.1987
   60CHL1  H12A 6878   2.635   0.915  20.074 -0.3409 -0.3763  1.7962
   60CHL1  H12B 6879   2.651   0.767  19.973  2.3660  1.8671  2.4781
   60CHL1   C11 6880   2.535   0.934  19.885 -0.1544  0.3993 -0.0333
   60CHL1  H11A 6881   2.479   1.024  19.916 -1.6028 -0.4540 -0.0761
   60CHL1  H11B 6882   2.634   0.971  19.849 -0.2635  2.3434  1.4914
   60CHL1    C9 6883   2.456   0.844  19.779 -0.3565  0.1667 -0.4111
   60CHL1    H9 6884   2.526   0.766  19.744 -0.0415 -0.1512  0.8736
   60CHL1   C10 6885   2.409   0.917  19.648  0.3387 -0.0049  0.5774
   60CHL1   C19 6886   2.326   1.053  19.677 -0.4349  0.1621  0.1655
   60CHL1  H19A 6887   2.224   1.033  19.717 -0.4214 -0.6454 -0.1822
   60CHL1  H19B 6888   2.387   1.121  19.740  0.5624 -0.5064 -0.0480
   60CHL1  H19C 6889   2.316   1.105  19.579 -0.0429 -1.6134 -0.8603
   60CHL1    C1 6890   2.532   0.951  19.566 -0.9634 -0.0602 -0.0995
   60CHL1   H1A 6891   2.605   1.013  19.622 -0.5298  0.6283 -1.3764
   60CHL1   H1B 6892   2.582   0.854  19.543  0.7202  0.9610 -0.9329
   60CHL1    C2 6893   2.509   1.003  19.415 -0.3372  0.0022  0.1362
   60CHL1   H2A 6894   2.604   1.007  19.358 -1.1338 -0.6713 -1.3060
   60CHL1   H2B 6895   2.467   1.105  19.418 -1.7901 -0.5758  0.1364
   60CHL1   C20 6896   2.542   0.729  20.309  0.4397  0.6016  0.4267
   60CHL1   H20 6897   2.549   0.839  20.302 -1.3067  0.6959 -0.0807
   60CHL1   C21 6898   2.686   0.667  20.323  0.0013  0.4652 -0.1236
   60CHL1  H21A 6899   2.743   0.710  20.408  0.9724 -1.9028  0.5049
   60CHL1  H21B 6900   2.754   0.686  20.237 -1.3715  0.6305 -1.2034
   60CHL1  H21C 6901   2.683   0.556  20.327 -0.8705  0.5109  0.9945
   60CHL1   C22 6902   2.459   0.693  20.435 -0.1074  0.4556 -0.7839
   60CHL1  H22A 6903   2.354   0.728  20.421 -1.0524 -1.1974  1.4807
   60CHL1  H22B 6904   2.445   0.584  20.452 -0.9799  0.9763  2.7408
   60CHL1   C23 6905   2.514   0.771  20.563 -0.2681 -0.5485 -0.4427
   60CHL1  H23A 6906   2.595   0.712  20.611 -0.2779 -3.6560 -3.8386
   60CHL1  H23B 6907   2.554   0.869  20.529  2.2072 -1.9318 -1.8633
   60CHL1   C24 6908   2.399   0.791  20.662  0.1323 -0.1163 -0.4848
   60CHL1  H24A 6909   2.428   0.860  20.744 -0.6317 -0.8350  0.4136
   60CHL1  H24B 6910   2.308   0.830  20.611 -0.8255  1.7716  2.4115
   60CHL1   C25 6911   2.350   0.660  20.729 -0.2731 -0.3966 -0.1757
   60CHL1   H25 6912   2.353   0.581  20.651  0.8891 -1.5960  1.0240
   60CHL1   C26 6913   2.455   0.616  20.838  0.2070  0.4697  0.3376
   60CHL1  H26A 6914   2.418   0.512  20.849 -3.6897  1.6332 -0.4155
   60CHL1  H26B 6915   2.561   0.617  20.803 -0.1705 -0.8299 -0.9386
   60CHL1  H26C 6916   2.442   0.681  20.927  1.6406 -0.5318  1.3285
   60CHL1   C27 6917   2.216   0.690  20.794  1.1397  0.1484  0.1979
   60CHL1  H27A 6918   2.175   0.600  20.844 -0.1972  0.9202  0.5623
   60CHL1  H27B 6919   2.219   0.769  20.872 -0.0897 -0.1194  0.5449
   60CHL1  H27C 6920   2.137   0.711  20.718  1.5195  0.3823 -0.1397
   61CHL1    C3 6921   3.352   4.220  25.933  0.7987  0.4407 -0.1859
   61CHL1    H3 6922   3.313   4.283  26.016 -2.1850  1.7255 -2.3878
   61CHL1    O3 6923   3.498   4.228  25.940 -0.1036  0.2543  0.3557
   61CHL1   H3' 6924   3.527   4.173  26.013  0.8801 -0.1609 -0.3311
   61CHL1    C4 6925   3.308   4.070  25.940  0.1734  0.1413  0.2231
   61CHL1   H4A 6926   3.351   4.022  25.849 -0.8025  1.9446 -1.2450
   61CHL1   H4B 6927   3.355   4.028  26.031 -0.0331 -0.7332 -0.0609
   61CHL1    C5 6928   3.156   4.063  25.947  0.1904  0.1137 -0.5331
   61CHL1    C6 6929   3.090   4.006  26.045 -0.1678  0.0525  0.1583
   61CHL1    H6 6930   3.141   3.964  26.133  2.9821  0.7533 -1.1963
   61CHL1    C7 6931   2.941   3.983  26.048  0.0198 -0.2905 -0.5224
   61CHL1   H7A 6932   2.918   3.877  26.073 -1.5474  0.3221  0.8659
   61CHL1   H7B 6933   2.895   4.041  26.131 -0.4971 -2.8518  1.0840
   61CHL1    C8 6934   2.856   4.016  25.923 -0.5792 -0.1182  0.0323
   61CHL1    H8 6935   2.879   3.928  25.859 -2.9603  0.4579 -1.7392
   61CHL1   C14 6936   2.708   4.042  25.952  0.1503  0.0793 -0.0366
   61CHL1   H14 6937   2.707   4.127  26.024 -1.3707  0.5091 -0.5330
   61CHL1   C15 6938   2.625   3.929  26.017  0.0683 -0.4317 -0.5891
   61CHL1  H15A 6939   2.646   3.843  25.950  0.8105  0.0826 -1.0346
   61CHL1  H15B 6940   2.640   3.908  26.125 -0.4059  2.5580  0.1591
   61CHL1   C16 6941   2.477   3.977  25.996  0.0766  0.2222  0.7439
   61CHL1  H16A 6942   2.420   3.897  25.944 -0.4517  1.3224 -0.4441
   61CHL1  H16B 6943   2.425   4.011  26.088 -0.1282 -0.4247  0.8750
   61CHL1   C17 6944   2.479   4.081  25.879  0.2024  0.1291 -0.1453
   61CHL1   H17 6945   2.474   4.180  25.928 -0.6014 -0.1306  0.3324
   61CHL1   C13 6946   2.627   4.082  25.828  0.0977 -0.1571 -0.1250
   61CHL1   C18 6947   2.627   3.975  25.714  0.1151  0.0023 -0.0830
   61CHL1  H18A 6948   2.734   3.956  25.688  0.1927 -0.7239  0.7127
   61CHL1  H18B 6949   2.588   3.875  25.743 -0.5801  0.0805 -0.7375
   61CHL1  H18C 6950   2.571   4.021  25.630  1.1342  0.2246 -0.6605
   61CHL1   C12 6951   2.683   4.211  25.775 -0.1384  0.1991  0.3674
   61CHL1  H12A 6952   2.632   4.236  25.680  0.2753 -0.2139  0.0307
   61CHL1  H12B 6953   2.675   4.298  25.844  2.1222  1.2027 -0.5156
   61CHL1   C11 6954   2.835   4.201  25.740  0.1092  0.3277 -0.4433
   61CHL1  H11A 6955   2.851   4.134  25.653  1.7687  1.9006 -1.4171
   61CHL1  H11B 6956   2.873   4.303  25.718 -1.6997  0.6960 -2.2738
   61CHL1    C9 6957   2.918   4.143  25.867 -0.1518  0.2069 -0.5242
   61CHL1    H9 6958   2.909   4.225  25.941  0.4091 -0.7614  0.6394
   61CHL1   C10 6959   3.079   4.134  25.839  0.4942 -0.8310  0.5149
   61CHL1   C19 6960   3.105   4.044  25.715  0.2012 -0.0779  0.2337
   61CHL1  H19A 6961   3.053   4.095  25.631 -0.3485 -0.5309  0.2920
   61CHL1  H19B 6962   3.209   4.059  25.680 -0.4639  3.9246 -0.4965
   61CHL1  H19C 6963   3.065   3.942  25.733 -2.9300  1.0358  0.1792
   61CHL1    C1 6964   3.133   4.276  25.804  0.3930 -0.2773  0.4956
   61CHL1   H1A 6965   3.117   4.308  25.699 -0.6405  0.8945  0.9865
   61CHL1   H1B 6966   3.091   4.343  25.882  1.9944  1.7592 -0.3069
   61CHL1    C2 6967   3.290   4.284  25.809  0.7661 -0.0673 -0.9205
   61CHL1   H2A 6968   3.333   4.386  25.800 -1.9396  1.1506 -0.8377
   61CHL1   H2B 6969   3.335   4.220  25.730 -2.4325 -1.5384 -1.6939
   61CHL1   C20 6970   2.359   4.076  25.783 -1.3154 -0.8054  0.1643
   61CHL1   H20 6971   2.362   3.979  25.729 -2.2351 -1.7136  1.6759
   61CHL1   C21 6972   2.367   4.194  25.688  0.0724  0.0698  0.5359
   61CHL1  H21A 6973   2.270   4.244  25.668  0.3189 -0.0072 -0.9322
   61CHL1  H21B 6974   2.410   4.169  25.588 -0.4742  0.1956  0.2701
   61CHL1  H21C 6975   2.434   4.273  25.727  0.4071 -0.2922  0.7028
   61CHL1   C22 6976   2.225   4.078  25.852  0.5405  0.4876 -0.9827
   61CHL1  H22A 6977   2.146   4.061  25.776  1.5868 -2.4774 -1.5589
   61CHL1  H22B 6978   2.213   3.995  25.926  1.8176  1.8163  0.7882
   61CHL1   C23 6979   2.206   4.203  25.937 -0.2045  0.1233  0.4903
   61CHL1  H23A 6980   2.285   4.197  26.016  0.5754  1.1571 -0.1828
   61CHL1  H23B 6981   2.221   4.284  25.862  0.2576 -3.5579 -3.8571
   61CHL1   C24 6982   2.067   4.210  26.004 -0.3573 -0.1829 -0.4224
   61CHL1  H24A 6983   2.065   4.303  26.064 -2.3203 -1.4569  1.6363
   61CHL1  H24B 6984   1.979   4.208  25.936  0.7708  1.0052 -1.9905
   61CHL1   C25 6985   2.045   4.107  26.119 -0.7370  0.0703 -0.2683
   61CHL1   H25 6986   2.062   4.004  26.080 -0.0122  0.8491 -2.1393
   61CHL1   C26 6987   2.136   4.133  26.241 -0.0533 -0.6590 -0.5893
   61CHL1  H26A 6988   2.243   4.139  26.209  0.5283  1.6635  1.5300
   61CHL1  H26B 6989   2.104   4.228  26.288  0.4797  0.0482 -1.6293
   61CHL1  H26C 6990   2.128   4.039  26.301  0.4031 -1.2823 -1.4781
   61CHL1   C27 6991   1.907   4.102  26.177  0.1475  0.5692 -0.0147
   61CHL1  H27A 6992   1.872   4.201  26.212  1.5877  0.8457  0.7493
   61CHL1  H27B 6993   1.836   4.045  26.114 -0.1732  0.2410  0.6365
   61CHL1  H27C 6994   1.911   4.032  26.263 -0.8832  0.1571 -0.2952
   62CHL1    C3 6995   3.723   0.738  23.640 -0.2635  0.2875  0.3425
   62CHL1    H3 6996   3.729   0.808  23.554 -1.5529  0.6487  0.5128
   62CHL1    O3 6997   3.830   0.759  23.731  0.2181 -0.1794 -0.0076
   62CHL1   H3' 6998   3.814   0.690  23.795 -0.4308 -0.3533 -0.3414
   62CHL1    C4 6999   3.588   0.762  23.708  0.8868  0.1463 -0.2237
   62CHL1   H4A 7000   3.574   0.700  23.799  1.9418 -0.7727 -0.6761
   62CHL1   H4B 7001   3.595   0.860  23.760  0.5392  0.1657 -0.2080
   62CHL1    C5 7002   3.471   0.756  23.613 -0.2395  0.6599 -0.3717
   62CHL1    C6 7003   3.382   0.857  23.598 -0.0573  0.8883  0.2597
   62CHL1    H6 7004   3.407   0.949  23.654  0.5194  0.9964 -0.1709
   62CHL1    C7 7005   3.257   0.852  23.520  0.0805 -0.2243 -0.0191
   62CHL1   H7A 7006   3.168   0.888  23.576  0.0901 -0.6706  0.2905
   62CHL1   H7B 7007   3.271   0.922  23.435 -0.6222 -1.2221 -0.9842
   62CHL1    C8 7008   3.230   0.717  23.457  0.3080 -0.6903  0.0902
   62CHL1    H8 7009   3.175   0.646  23.522 -0.6890  1.1527  1.3062
   62CHL1   C14 7010   3.143   0.735  23.331 -0.1632  1.2118  0.2828
   62CHL1   H14 7011   3.204   0.798  23.262 -1.1121  1.0688 -0.7017
   62CHL1   C15 7012   3.019   0.818  23.354 -0.7374 -0.3914  0.3770
   62CHL1  H15A 7013   2.967   0.803  23.451  0.8355  2.4133  1.7970
   62CHL1  H15B 7014   3.039   0.927  23.338  1.1677 -0.5304  1.5537
   62CHL1   C16 7015   2.921   0.768  23.240  0.4331  0.9231  0.1574
   62CHL1  H16A 7016   2.826   0.723  23.277  2.4151 -1.9601  2.1795
   62CHL1  H16B 7017   2.904   0.863  23.186 -2.4781  1.2386  1.4520
   62CHL1   C17 7018   3.007   0.667  23.152  0.2786  0.7837 -0.0025
   62CHL1   H17 7019   3.066   0.732  23.084  1.1204  0.7720  0.7012
   62CHL1   C13 7020   3.106   0.606  23.255 -0.1300 -0.1012 -0.4456
   62CHL1   C18 7021   3.042   0.502  23.342 -0.1067  0.0006  0.1759
   62CHL1  H18A 7022   3.103   0.488  23.434  0.4728  3.3619  0.4500
   62CHL1  H18B 7023   2.940   0.533  23.375 -0.8830  0.2387 -2.2599
   62CHL1  H18C 7024   3.034   0.401  23.299 -1.2634 -0.0165  0.4019
   62CHL1   C12 7025   3.247   0.556  23.204  0.6583 -0.2223 -0.1347
   62CHL1  H12A 7026   3.238   0.454  23.161 -3.1513 -1.0887  2.2500
   62CHL1  H12B 7027   3.286   0.614  23.117  0.7434 -2.0164 -1.3576
   62CHL1   C11 7028   3.347   0.538  23.318 -0.0459  0.2323  0.1698
   62CHL1  H11A 7029   3.322   0.448  23.377  1.2815  0.1503  0.6562
   62CHL1  H11B 7030   3.444   0.520  23.267  1.2999  0.9698  2.3239
   62CHL1    C9 7031   3.363   0.655  23.413  0.2151 -0.3854 -0.2503
   62CHL1    H9 7032   3.411   0.738  23.356  0.0435  0.2161  0.4661
   62CHL1   C10 7033   3.462   0.623  23.534 -0.2956 -0.8188 -0.0280
   62CHL1   C19 7034   3.400   0.516  23.626  0.3379 -0.0899 -0.5215
   62CHL1  H19A 7035   3.372   0.428  23.564 -2.4134  2.4106 -3.1802
   62CHL1  H19B 7036   3.474   0.491  23.705  1.6701  1.9277 -1.0356
   62CHL1  H19C 7037   3.305   0.553  23.670 -0.2616 -1.5148 -0.5472
   62CHL1    C1 7038   3.595   0.582  23.479 -1.2895 -0.1384 -0.5596
   62CHL1   H1A 7039   3.592   0.474  23.452 -0.8393 -1.2073  3.1810
   62CHL1   H1B 7040   3.621   0.639  23.387  1.0842  1.3294  0.9006
   62CHL1    C2 7041   3.715   0.603  23.579 -0.0240  0.5939  0.2071
   62CHL1   H2A 7042   3.805   0.584  23.516  0.8610 -0.6986  1.7900
   62CHL1   H2B 7043   3.725   0.532  23.663 -0.1692  0.4729  0.1214
   62CHL1   C20 7044   2.915   0.569  23.071  0.5647 -0.5369  0.6660
   62CHL1   H20 7045   2.872   0.499  23.146 -2.2292 -0.7010 -0.9652
   62CHL1   C21 7046   3.010   0.480  22.980  0.5892 -0.4575  0.0140
   62CHL1  H21A 7047   2.957   0.402  22.922 -0.8275  0.9658 -0.6808
   62CHL1  H21B 7048   3.075   0.433  23.056  0.3278  0.3389  0.7476
   62CHL1  H21C 7049   3.082   0.532  22.912 -0.6396 -1.3274 -2.0595
   62CHL1   C22 7050   2.796   0.628  22.988  0.2671 -0.5735  0.7845
   62CHL1  H22A 7051   2.758   0.708  23.055  1.4570  1.0414 -0.3983
   62CHL1  H22B 7052   2.832   0.692  22.905  1.3181  0.7965  2.2411
   62CHL1   C23 7053   2.702   0.520  22.938  0.7507  0.9905 -0.1486
   62CHL1  H23A 7054   2.751   0.493  22.842 -1.0942 -0.8053 -0.6518
   62CHL1  H23B 7055   2.707   0.423  22.992  1.2788  0.9223 -0.3125
   62CHL1   C24 7056   2.564   0.561  22.896  0.9168  0.2872 -0.1187
   62CHL1  H24A 7057   2.567   0.655  22.836  0.3508  0.3094 -0.1174
   62CHL1  H24B 7058   2.513   0.495  22.823 -0.9863  1.6267 -0.0594
   62CHL1   C25 7059   2.468   0.594  23.008 -0.6307  0.1605  0.4228
   62CHL1   H25 7060   2.492   0.683  23.069  1.2077 -1.1195  1.7096
   62CHL1   C26 7061   2.334   0.631  22.948 -0.2875 -0.7221  0.5130
   62CHL1  H26A 7062   2.262   0.645  23.031 -2.3281  1.2039 -1.4184
   62CHL1  H26B 7063   2.344   0.724  22.886 -0.9215 -1.1174 -0.2037
   62CHL1  H26C 7064   2.294   0.553  22.880 -1.7481  0.2623  0.1945
   62CHL1   C27 7065   2.456   0.482  23.110  0.1115 -0.4419  0.8317
   62CHL1  H27A 7066   2.549   0.459  23.167  0.6287  1.8491  1.0250
   62CHL1  H27B 7067   2.388   0.502  23.195  2.2583 -1.2613  2.8431
   62CHL1  H27C 7068   2.421   0.392  23.056  0.7499 -1.8280  2.6485
   63CHL1    C3 7069   0.585   3.847  21.027  0.1572 -0.0056 -0.1123
   63CHL1    H3 7070   0.581   3.958  21.024 -0.8204 -0.0516 -2.3589
   63CHL1    O3 7071   0.469   3.793  21.090 -0.1617 -0.0051 -0.5048
   63CHL1   H3' 7072   0.464   3.839  21.174 -0.7718 -0.6214 -0.1890
   63CHL1    C4 7073   0.577   3.808  20.878  0.1894  0.0787  0.4788
   63CHL1   H4A 7074   0.546   3.705  20.852 -1.9292  0.6470  0.5914
   63CHL1   H4B 7075   0.490   3.863  20.835 -0.1632  1.0092  2.2768
   63CHL1    C5 7076   0.699   3.857  20.797  0.1589  0.5869 -0.1232
   63CHL1    C6 7077   0.689   3.936  20.689  0.0441  0.5697 -0.0978
   63CHL1    H6 7078   0.590   3.969  20.655 -0.1327 -0.5235 -0.6840
   63CHL1    C7 7079   0.812   3.969  20.601  0.5628  0.6685 -0.1884
   63CHL1   H7A 7080   0.772   3.949  20.499  0.4795  0.1015 -0.0476
   63CHL1   H7B 7081   0.833   4.077  20.605 -1.2053  1.0053  2.8429
   63CHL1    C8 7082   0.932   3.880  20.620  0.1458  0.6529  0.5801
   63CHL1    H8 7083   0.899   3.781  20.579 -0.9321  0.3544  2.0942
   63CHL1   C14 7084   1.041   3.952  20.546 -0.0208 -0.6214 -0.3090
   63CHL1   H14 7085   1.050   4.054  20.588 -0.4839 -1.7089  2.7537
   63CHL1   C15 7086   1.037   3.970  20.392 -0.2087 -0.2504 -0.1936
   63CHL1  H15A 7087   0.992   3.876  20.352  0.5008 -0.5165 -0.3861
   63CHL1  H15B 7088   0.988   4.067  20.368 -1.3981 -0.3458  1.6145
   63CHL1   C16 7089   1.183   3.979  20.353  0.2528 -0.0256 -0.8042
   63CHL1  H16A 7090   1.186   3.907  20.269 -2.2070 -1.6164  0.3654
   63CHL1  H16B 7091   1.211   4.077  20.307 -1.7034  0.5462 -0.8555
   63CHL1   C17 7092   1.264   3.962  20.493 -0.9840  0.1710 -0.1381
   63CHL1   H17 7093   1.283   4.062  20.538  0.7521 -0.1771 -0.0569
   63CHL1   C13 7094   1.172   3.883  20.577 -0.1186  0.6645 -0.0009
   63CHL1   C18 7095   1.172   3.739  20.527  0.0555 -0.4295 -0.2956
   63CHL1  H18A 7096   1.163   3.737  20.417 -0.3890  1.0299 -0.3038
   63CHL1  H18B 7097   1.261   3.685  20.565  0.8003  2.5113  2.6656
   63CHL1  H18C 7098   1.086   3.681  20.567  1.5361 -3.2572 -0.9594
   63CHL1   C12 7099   1.199   3.871  20.732  0.2195  0.7304  0.0897
   63CHL1  H12A 7100   1.295   3.825  20.762 -0.3364  0.3946  1.4425
   63CHL1  H12B 7101   1.204   3.971  20.778 -0.8943  0.5833  0.5576
   63CHL1   C11 7102   1.086   3.797  20.810  0.2610  0.4425 -0.5151
   63CHL1  H11A 7103   1.086   3.692  20.774 -2.1600  0.2018  0.0040
   63CHL1  H11B 7104   1.109   3.798  20.918  1.0664  3.4472 -0.6207
   63CHL1    C9 7105   0.953   3.868  20.775 -0.6560  0.2425  0.2935
   63CHL1    H9 7106   0.960   3.975  20.806  2.7829 -0.5627  2.9596
   63CHL1   C10 7107   0.832   3.809  20.855 -0.2572 -0.2540 -0.1939
   63CHL1   C19 7108   0.830   3.657  20.839  0.1319 -0.5338  0.2475
   63CHL1  H19A 7109   0.921   3.608  20.881  1.1814 -0.1453 -1.4928
   63CHL1  H19B 7110   0.745   3.604  20.887 -2.3021  1.0546 -1.9811
   63CHL1  H19C 7111   0.835   3.622  20.734  0.1451 -2.4931  0.8626
   63CHL1    C1 7112   0.835   3.851  21.005  0.2964 -0.1523 -1.0170
   63CHL1   H1A 7113   0.925   3.804  21.051 -0.8973  1.1148  3.0417
   63CHL1   H1B 7114   0.849   3.961  21.005 -1.6070  0.1198 -0.1061
   63CHL1    C2 7115   0.714   3.806  21.093 -0.9214 -0.0042  0.0054
   63CHL1   H2A 7116   0.713   3.862  21.189 -0.2988  0.0531 -0.0163
   63CHL1   H2B 7117   0.715   3.696  21.111 -0.9733 -0.4199 -2.2289
   63CHL1   C20 7118   1.408   3.915  20.460 -0.2274  0.4422 -0.1746
   63CHL1   H20 7119   1.413   3.807  20.435  0.3326  1.0300 -2.8706
   63CHL1   C21 7120   1.505   3.930  20.577 -0.1342  0.0221  0.1565
   63CHL1  H21A 7121   1.572   3.844  20.559 -1.0051 -0.3851 -1.3389
   63CHL1  H21B 7122   1.456   3.924  20.676  0.1452 -0.0744  0.2891
   63CHL1  H21C 7123   1.560   4.026  20.568 -1.7318  0.8946 -0.6949
   63CHL1   C22 7124   1.468   3.978  20.326 -0.7875  0.4995 -0.5384
   63CHL1  H22A 7125   1.413   3.956  20.232 -1.6491 -1.0162  0.2828
   63CHL1  H22B 7126   1.462   4.089  20.331 -1.0579  0.5000 -0.8206
   63CHL1   C23 7127   1.609   3.936  20.303  0.5856 -0.3341  0.2361
   63CHL1  H23A 7128   1.684   4.006  20.347  1.6295 -2.0211  1.2816
   63CHL1  H23B 7129   1.641   3.836  20.340  0.3941  0.8048  3.8773
   63CHL1   C24 7130   1.647   3.937  20.153 -0.3480 -0.1713 -0.2399
   63CHL1  H24A 7131   1.598   3.855  20.097 -2.7172  1.7527 -1.1598
   63CHL1  H24B 7132   1.600   4.030  20.116  2.8799  2.3744  1.4770
   63CHL1   C25 7133   1.800   3.940  20.130  0.0144 -0.2853 -0.3469
   63CHL1   H25 7134   1.837   4.020  20.198 -1.9161  0.8381 -0.5502
   63CHL1   C26 7135   1.858   3.800  20.159 -0.3783 -0.3702 -0.0182
   63CHL1  H26A 7136   1.842   3.727  20.076  2.3739 -0.1974 -0.7946
   63CHL1  H26B 7137   1.965   3.829  20.152 -1.3256  3.1364 -2.5425
   63CHL1  H26C 7138   1.830   3.751  20.255 -0.7633 -0.6735 -0.2759
   63CHL1   C27 7139   1.838   3.981  19.995  0.3925  0.1033 -0.0799
   63CHL1  H27A 7140   1.827   3.896  19.924 -1.2729 -0.4933  0.8328
   63CHL1  H27B 7141   1.771   4.066  19.968  0.4402 -0.2254 -1.3041
   63CHL1  H27C 7142   1.944   4.014  19.985  1.2501 -2.0879  1.1544
   64CHL1    C3 7143   3.147   3.749  24.440 -0.4694  0.1752 -0.0400
   64CHL1    H3 7144   3.152   3.758  24.550  3.7921  0.9955 -0.1442
   64CHL1    O3 7145   3.281   3.754  24.403  0.8334  0.4183 -0.1341
   64CHL1   H3' 7146   3.316   3.669  24.431 -2.8809 -1.4769 -0.7289
   64CHL1    C4 7147   3.086   3.606  24.397 -0.9439  0.5991  0.6283
   64CHL1   H4A 7148   3.114   3.586  24.291 -1.0743  1.3920  0.4433
   64CHL1   H4B 7149   3.142   3.528  24.454  0.8488  1.3211 -0.0891
   64CHL1    C5 7150   2.934   3.606  24.413 -0.3965  0.4137 -0.3396
   64CHL1    C6 7151   2.878   3.503  24.482  0.2757  0.8721  0.5709
   64CHL1    H6 7152   2.944   3.428  24.528  0.3336  0.4292 -0.2232
   64CHL1    C7 7153   2.733   3.484  24.497  0.4335 -0.0555  0.5077
   64CHL1   H7A 7154   2.697   3.379  24.491 -0.5209  0.1842  1.7158
   64CHL1   H7B 7155   2.704   3.530  24.593 -0.3288  1.7614 -0.5412
   64CHL1    C8 7156   2.653   3.574  24.389  0.0708 -0.1886  0.0949
   64CHL1    H8 7157   2.674   3.520  24.295  1.8127 -0.1967  0.4492
   64CHL1   C14 7158   2.504   3.578  24.420 -0.3528 -0.1741 -0.1235
   64CHL1   H14 7159   2.502   3.633  24.517  1.1025  2.2978 -1.3699
   64CHL1   C15 7160   2.433   3.444  24.448 -0.1852  0.4974  0.5351
   64CHL1  H15A 7161   2.462   3.359  24.383  0.0363 -0.3524  1.7034
   64CHL1  H15B 7162   2.453   3.399  24.548 -2.7345 -2.0190  0.0349
   64CHL1   C16 7163   2.294   3.477  24.424 -0.3904  0.2590  0.3310
   64CHL1  H16A 7164   2.237   3.407  24.360  0.0461  1.2186 -1.1489
   64CHL1  H16B 7165   2.237   3.487  24.520  0.6093  2.0892  0.7838
   64CHL1   C17 7166   2.287   3.623  24.366 -0.8064  0.4828  0.4187
   64CHL1   H17 7167   2.269   3.691  24.452  0.4881 -0.5396  1.5540
   64CHL1   C13 7168   2.427   3.655  24.321 -0.7175  0.4390 -0.3269
   64CHL1   C18 7169   2.451   3.604  24.180  0.1480  0.2402  0.0584
   64CHL1  H18A 7170   2.557   3.610  24.148  0.9749 -2.0274  2.0105
   64CHL1  H18B 7171   2.422   3.496  24.181  1.4291 -0.1302  0.3749
   64CHL1  H18C 7172   2.398   3.669  24.108 -0.1784  0.4326  0.4709
   64CHL1   C12 7173   2.464   3.802  24.322  0.7470 -0.5803  0.6155
   64CHL1  H12A 7174   2.416   3.856  24.238  0.3783 -0.3689  0.9598
   64CHL1  H12B 7175   2.433   3.844  24.420  1.6846 -0.5648  0.9103
   64CHL1   C11 7176   2.615   3.820  24.297 -0.0483 -0.0683 -0.6085
   64CHL1  H11A 7177   2.629   3.809  24.188 -0.9636 -0.1041 -0.7303
   64CHL1  H11B 7178   2.635   3.925  24.329 -1.6084  0.3236 -0.8129
   64CHL1    C9 7179   2.704   3.716  24.377  0.5793  0.3518 -0.4885
   64CHL1    H9 7180   2.707   3.749  24.484 -1.3622 -2.1894  0.4552
   64CHL1   C10 7181   2.858   3.725  24.348  0.0223 -0.2313  0.7036
   64CHL1   C19 7182   2.873   3.714  24.190 -0.4365 -0.5002 -0.6759
   64CHL1  H19A 7183   2.977   3.690  24.161 -0.0361  0.3941 -0.0058
   64CHL1  H19B 7184   2.818   3.624  24.155 -0.4462 -0.7829  0.0600
   64CHL1  H19C 7185   2.829   3.800  24.134  0.4390 -0.0202 -0.6277
   64CHL1    C1 7186   2.915   3.860  24.394  0.2316  0.8420 -0.6594
   64CHL1   H1A 7187   2.864   3.934  24.328 -2.0801  1.4912  1.6945
   64CHL1   H1B 7188   2.901   3.881  24.502  0.8984  0.4328 -0.4878
   64CHL1    C2 7189   3.070   3.868  24.372 -0.6709 -0.3523 -0.1555
   64CHL1   H2A 7190   3.129   3.954  24.410 -0.2089  0.1064 -1.8182
   64CHL1   H2B 7191   3.095   3.863  24.263  2.1222 -1.3365  0.4229
   64CHL1   C20 7192   2.178   3.634  24.264 -0.2944 -0.2912 -0.2966
   64CHL1   H20 7193   2.187   3.568  24.175  1.2019  0.6359 -0.8731
   64CHL1   C21 7194   2.156   3.778  24.214 -0.6861 -0.4284  0.4542
   64CHL1  H21A 7195   2.249   3.815  24.165  0.3557 -0.9986  1.9396
   64CHL1  H21B 7196   2.138   3.852  24.295 -0.8540  0.6387 -0.5284
   64CHL1  H21C 7197   2.084   3.779  24.130 -0.7229  0.4667  0.4870
   64CHL1   C22 7198   2.034   3.579  24.319  0.0175  0.2870 -0.2250
   64CHL1  H22A 7199   2.043   3.480  24.369 -0.6204  0.9722  1.2939
   64CHL1  H22B 7200   2.012   3.648  24.402  1.9703  0.2405  0.3699
   64CHL1   C23 7201   1.916   3.578  24.219  0.1367 -0.1235 -0.1156
   64CHL1  H23A 7202   1.914   3.670  24.156 -0.8181  0.4862  0.7683
   64CHL1  H23B 7203   1.928   3.485  24.160 -1.5693 -0.5899  0.2252
   64CHL1   C24 7204   1.776   3.578  24.292 -0.5646  0.2177 -0.5467
   64CHL1  H24A 7205   1.732   3.487  24.338 -0.3736  1.1571  1.6334
   64CHL1  H24B 7206   1.771   3.659  24.368  0.7884  1.0384 -1.2890
   64CHL1   C25 7207   1.660   3.639  24.204 -0.1073 -0.0665 -0.6180
   64CHL1   H25 7208   1.678   3.746  24.182  1.2074 -0.4431 -1.4664
   64CHL1   C26 7209   1.666   3.557  24.073  0.5216 -1.1240 -0.0358
   64CHL1  H26A 7210   1.593   3.603  24.002 -0.5323 -2.3433  0.2288
   64CHL1  H26B 7211   1.769   3.546  24.033 -0.3740 -1.4280 -2.4684
   64CHL1  H26C 7212   1.634   3.452  24.090  2.5187 -2.3220 -2.8600
   64CHL1   C27 7213   1.515   3.603  24.253  0.4621 -0.2695 -0.4286
   64CHL1  H27A 7214   1.438   3.623  24.175  1.6185  0.7539 -1.3537
   64CHL1  H27B 7215   1.504   3.495  24.276  0.6352 -0.0287  0.8498
   64CHL1  H27C 7216   1.503   3.651  24.352  2.6752 -0.1034 -0.1965
   65CHL1    C3 7217   0.220   2.736  20.913  0.8459 -0.3819  0.1967
   65CHL1    H3 7218   0.303   2.662  20.917  1.1995  0.0597  1.9071
   65CHL1    O3 7219   0.138   2.710  21.021  0.0564  0.2084 -0.0344
   65CHL1   H3' 7220   0.089   2.787  21.051 -0.7828 -0.3640  0.0964
   65CHL1    C4 7221   0.255   2.887  20.920  0.6395  0.6538  0.2424
   65CHL1   H4A 7222   0.160   2.944  20.917 -1.8025 -3.1270 -2.4394
   65CHL1   H4B 7223   0.305   2.909  21.017  1.3463 -0.9472  0.2787
   65CHL1    C5 7224   0.334   2.924  20.794  1.5704 -0.3528 -0.3556
   65CHL1    C6 7225   0.461   2.970  20.810 -0.5121  0.1202  0.3061
   65CHL1    H6 7226   0.516   2.987  20.904  1.3438  4.0729 -1.2694
   65CHL1    C7 7227   0.539   3.017  20.695 -0.4716 -0.4990  0.0802
   65CHL1   H7A 7228   0.579   3.115  20.728  0.3594 -1.2058  1.2660
   65CHL1   H7B 7229   0.631   2.954  20.692  2.5222  3.5237  0.1516
   65CHL1    C8 7230   0.464   3.025  20.565  0.2417  0.1653 -0.2793
   65CHL1    H8 7231   0.403   3.117  20.580 -0.5659 -0.5126  0.6885
   65CHL1   C14 7232   0.559   3.038  20.456  0.0315  0.7586 -0.1084
   65CHL1   H14 7233   0.617   2.944  20.453  0.6073  1.0187  1.5123
   65CHL1   C15 7234   0.672   3.135  20.479  0.0778 -0.4557  0.2680
   65CHL1  H15A 7235   0.624   3.226  20.521 -1.6439 -0.1385 -2.1613
   65CHL1  H15B 7236   0.749   3.097  20.549 -0.2440 -0.0611  0.8414
   65CHL1   C16 7237   0.734   3.140  20.334  0.6425  0.6265  0.2330
   65CHL1  H16A 7238   0.773   3.238  20.301  0.0527  0.2353 -1.7299
   65CHL1  H16B 7239   0.825   3.077  20.325  1.3662  1.5162  1.1145
   65CHL1   C17 7240   0.630   3.071  20.238  0.1348  0.4883  0.2535
   65CHL1   H17 7241   0.674   2.972  20.213 -1.3618 -0.2135  0.2638
   65CHL1   C13 7242   0.501   3.053  20.320  0.2155 -0.2808 -0.2808
   65CHL1   C18 7243   0.418   3.176  20.313 -0.0091  0.2121 -0.5960
   65CHL1  H18A 7244   0.331   3.173  20.383 -0.0620 -2.8874 -0.6442
   65CHL1  H18B 7245   0.481   3.266  20.330  1.9857 -1.1932 -0.2121
   65CHL1  H18C 7246   0.367   3.194  20.215 -0.3175 -1.6928 -0.8252
   65CHL1   C12 7247   0.425   2.922  20.294 -0.7411  0.0389  1.2806
   65CHL1  H12A 7248   0.384   2.908  20.192  0.8357  0.0858  0.6116
   65CHL1  H12B 7249   0.490   2.833  20.305  1.1856  0.7975 -2.4402
   65CHL1   C11 7250   0.311   2.904  20.396 -0.4669  0.5681 -0.2800
   65CHL1  H11A 7251   0.232   2.975  20.365  0.5054  1.5518 -0.5647
   65CHL1  H11B 7252   0.267   2.803  20.380  0.1558  0.6284 -2.7362
   65CHL1    C9 7253   0.373   2.908  20.543  0.3682 -0.0434 -0.0469
   65CHL1    H9 7254   0.441   2.820  20.549 -0.3027 -0.4877  1.2585
   65CHL1   C10 7255   0.271   2.885  20.657 -0.4149 -0.7280  0.2083
   65CHL1   C19 7256   0.151   2.972  20.623  0.4544  0.0219  0.7450
   65CHL1  H19A 7257   0.080   2.968  20.708 -0.6736  1.5664 -0.0825
   65CHL1  H19B 7258   0.183   3.073  20.588  1.6834 -0.3329  0.7688
   65CHL1  H19C 7259   0.093   2.919  20.545 -2.0331  2.3939  0.8447
   65CHL1    C1 7260   0.234   2.736  20.656  0.9746  0.1364  0.1800
   65CHL1   H1A 7261   0.188   2.714  20.558  1.0428 -0.5410  0.2989
   65CHL1   H1B 7262   0.320   2.666  20.659  0.9306 -0.0265 -1.5910
   65CHL1    C2 7263   0.150   2.703  20.778  0.5142  0.8107  0.6709
   65CHL1   H2A 7264   0.128   2.594  20.776 -1.8600  1.2314  0.5566
   65CHL1   H2B 7265   0.055   2.760  20.773  0.0298 -0.0783 -0.9883
   65CHL1   C20 7266   0.615   3.153  20.108  0.4219  0.3758  0.3649
   65CHL1   H20 7267   0.589   3.260  20.127  1.9351  0.4861  1.9874
   65CHL1   C21 7268   0.510   3.089  20.011  0.4708  0.2645 -0.6855
   65CHL1  H21A 7269   0.408   3.084  20.055  0.7614 -1.1884 -0.1074
   65CHL1  H21B 7270   0.534   2.984  19.983  0.6772  0.8867 -3.0874
   65CHL1  H21C 7271   0.497   3.150  19.919  2.3098  2.8959  0.6641
   65CHL1   C22 7272   0.743   3.157  20.034 -0.0946 -0.1091 -0.1383
   65CHL1  H22A 7273   0.831   3.184  20.095  1.0621 -1.3989 -1.1561
   65CHL1  H22B 7274   0.766   3.057  19.991 -1.4989 -1.7247  2.6046
   65CHL1   C23 7275   0.742   3.262  19.929 -0.3017  0.2166  0.1861
   65CHL1  H23A 7276   0.667   3.242  19.850  0.1435  1.3301 -0.5562
   65CHL1  H23B 7277   0.716   3.364  19.965 -2.0043  0.1578 -0.7926
   65CHL1   C24 7278   0.877   3.262  19.859  0.3755  0.1050 -0.5870
   65CHL1  H24A 7279   0.952   3.247  19.940  1.3355 -0.0761 -1.4739
   65CHL1  H24B 7280   0.880   3.181  19.783 -1.0062 -0.1119 -0.4395
   65CHL1   C25 7281   0.900   3.394  19.779  0.0030  0.5749 -0.8447
   65CHL1   H25 7282   0.880   3.485  19.839  0.4031  2.8210 -3.8685
   65CHL1   C26 7283   1.042   3.415  19.738 -0.3346  0.7293  0.4840
   65CHL1  H26A 7284   1.067   3.523  19.739  0.3358  0.5733  0.7786
   65CHL1  H26B 7285   1.114   3.368  19.807  0.1974  1.8868  0.7285
   65CHL1  H26C 7286   1.067   3.366  19.641 -1.1138  1.8704 -0.3264
   65CHL1   C27 7287   0.805   3.407  19.655  0.2383  0.6641 -0.8464
   65CHL1  H27A 7288   0.826   3.322  19.588  2.9054 -0.0338  0.7144
   65CHL1  H27B 7289   0.698   3.393  19.684  0.5476 -3.3400 -1.1219
   65CHL1  H27C 7290   0.829   3.497  19.595  0.4047  0.5442 -0.9590
   66CHL1    C3 7291   3.353   1.549  23.011  0.1409 -1.1697  0.0245
   66CHL1    H3 7292   3.352   1.621  22.926 -0.2119 -0.1319  0.8764
   66CHL1    O3 7293   3.468   1.590  23.090 -0.1740 -0.0310 -0.4268
   66CHL1   H3' 7294   3.531   1.627  23.027  1.2837  1.6940  1.9043
   66CHL1    C4 7295   3.224   1.580  23.083 -0.1039 -0.2038 -0.5609
   66CHL1   H4A 7296   3.232   1.516  23.174  1.1668  1.4531  0.5483
   66CHL1   H4B 7297   3.237   1.683  23.121  1.5876 -1.0873  1.4741
   66CHL1    C5 7298   3.104   1.551  22.992 -0.1892  0.0860  0.1679
   66CHL1    C6 7299   3.006   1.646  22.969 -0.2022  0.8421 -0.0547
   66CHL1    H6 7300   3.017   1.745  23.016  2.1390  0.4322  0.4319
   66CHL1    C7 7301   2.885   1.618  22.881  0.5842 -0.0626  0.5496
   66CHL1   H7A 7302   2.797   1.635  22.946  0.2636 -1.6121  0.5436
   66CHL1   H7B 7303   2.868   1.689  22.797 -0.7336 -2.1799 -1.0521
   66CHL1    C8 7304   2.871   1.476  22.835 -0.3062 -0.3822  0.0136
   66CHL1    H8 7305   2.816   1.425  22.918 -2.1988  1.1785 -0.2083
   66CHL1   C14 7306   2.783   1.466  22.710 -0.6097 -0.3885 -0.7185
   66CHL1   H14 7307   2.844   1.516  22.631 -0.4732  0.1154 -0.2948
   66CHL1   C15 7308   2.648   1.533  22.710 -0.5529 -0.4001 -0.4282
   66CHL1  H15A 7309   2.590   1.514  22.803 -0.9031 -2.0901 -0.9490
   66CHL1  H15B 7310   2.658   1.641  22.685  0.9266 -0.2812  0.5355
   66CHL1   C16 7311   2.570   1.465  22.594  0.4210 -0.2604  0.4088
   66CHL1  H16A 7312   2.479   1.423  22.641 -1.1258 -1.8820 -3.5841
   66CHL1  H16B 7313   2.551   1.528  22.504 -0.0372 -2.5524 -1.1998
   66CHL1   C17 7314   2.662   1.340  22.545  0.0031 -0.1448  0.3391
   66CHL1   H17 7315   2.729   1.391  22.473  0.3409  0.2502  0.9243
   66CHL1   C13 7316   2.757   1.323  22.663  1.4003  0.2392  0.0156
   66CHL1   C18 7317   2.680   1.251  22.778 -0.2401  0.0686  0.6293
   66CHL1  H18A 7318   2.578   1.295  22.781  0.3237  1.4661  0.2083
   66CHL1  H18B 7319   2.677   1.144  22.748  0.1634  0.2670 -0.1452
   66CHL1  H18C 7320   2.719   1.257  22.882  0.0871  1.5166  0.4521
   66CHL1   C12 7321   2.890   1.253  22.631  0.2343  0.1541 -0.0861
   66CHL1  H12A 7322   2.874   1.145  22.609 -0.8625  0.2550  0.1638
   66CHL1  H12B 7323   2.948   1.291  22.544  1.4509 -3.0663 -0.8321
   66CHL1   C11 7324   2.987   1.253  22.747 -0.2670 -1.2680  0.6045
   66CHL1  H11A 7325   2.946   1.194  22.833  2.2658  0.7786  3.4241
   66CHL1  H11B 7326   3.084   1.205  22.723 -0.6258 -1.6165 -0.1737
   66CHL1    C9 7327   3.001   1.404  22.805  0.5033 -0.4424  0.2778
   66CHL1    H9 7328   3.043   1.456  22.715 -0.8818  1.4633  0.6682
   66CHL1   C10 7329   3.099   1.413  22.924  0.1928 -0.0051  0.5108
   66CHL1   C19 7330   3.054   1.315  23.030 -0.5165  0.0661 -0.1147
   66CHL1  H19A 7331   3.068   1.211  22.994  0.8963  0.8424 -1.9419
   66CHL1  H19B 7332   3.122   1.333  23.116 -1.4311  0.2118  0.5942
   66CHL1  H19C 7333   2.948   1.325  23.063 -1.1463  2.5002 -2.5609
   66CHL1    C1 7334   3.241   1.378  22.860 -0.3761 -0.2082  0.1823
   66CHL1   H1A 7335   3.247   1.274  22.822  0.7755 -0.0104 -0.2006
   66CHL1   H1B 7336   3.254   1.439  22.768 -3.5838 -0.5337 -0.6254
   66CHL1    C2 7337   3.355   1.406  22.955 -0.4703 -0.2460 -0.5738
   66CHL1   H2A 7338   3.452   1.410  22.900 -0.4587  1.4205 -0.4738
   66CHL1   H2B 7339   3.360   1.331  23.037  1.0488 -0.0764 -0.4812
   66CHL1   C20 7340   2.603   1.210  22.500  0.2961  0.5096 -0.1653
   66CHL1   H20 7341   2.647   1.121  22.550 -0.1600 -0.4317 -1.3931
   66CHL1   C21 7342   2.652   1.204  22.355  0.1227 -0.5963 -0.4008
   66CHL1  H21A 7343   2.635   1.110  22.297 -0.7531  0.9211 -2.7336
   66CHL1  H21B 7344   2.762   1.215  22.348 -0.0963  1.5659 -1.1713
   66CHL1  H21C 7345   2.629   1.291  22.290  1.4922 -1.9217 -2.8302
   66CHL1   C22 7346   2.447   1.195  22.520 -1.2282 -0.2421  0.3460
   66CHL1  H22A 7347   2.437   1.199  22.630  1.6261  1.6451  0.6650
   66CHL1  H22B 7348   2.406   1.291  22.480  1.2838  0.1139 -1.6490
   66CHL1   C23 7349   2.388   1.071  22.458 -0.0413  0.3966 -0.3045
   66CHL1  H23A 7350   2.371   1.084  22.349 -0.8522 -1.7340 -0.4788
   66CHL1  H23B 7351   2.448   0.978  22.471 -1.9984 -0.8415  0.1783
   66CHL1   C24 7352   2.239   1.058  22.508  0.4547 -0.2526  0.0678
   66CHL1  H24A 7353   2.237   1.077  22.617 -0.3443 -0.6091  0.1261
   66CHL1  H24B 7354   2.186   1.137  22.451 -3.1634 -2.2749  0.2715
   66CHL1   C25 7355   2.183   0.916  22.488  0.2917  0.1392  0.0340
   66CHL1   H25 7356   2.080   0.918  22.530  0.8739 -0.1386  1.5470
   66CHL1   C26 7357   2.201   0.884  22.341 -0.0887  0.1948  0.3964
   66CHL1  H26A 7358   2.132   0.952  22.285  0.3884  0.5929  0.2810
   66CHL1  H26B 7359   2.304   0.894  22.300 -0.1263 -1.3977 -0.1453
   66CHL1  H26C 7360   2.163   0.780  22.330  1.2624 -0.6464  2.9234
   66CHL1   C27 7361   2.250   0.812  22.582 -0.4827 -0.3448 -0.3564
   66CHL1  H27A 7362   2.351   0.780  22.547 -1.5429 -0.9299 -3.1278
   66CHL1  H27B 7363   2.257   0.854  22.684 -2.9805  2.0050 -1.0283
   66CHL1  H27C 7364   2.187   0.721  22.586  1.3064 -1.6120  0.6222
   67CHL1    C3 7365   0.444   2.902  24.601  0.3845  0.3790  0.3126
   67CHL1    H3 7366   0.486   2.913  24.704  1.8813  0.9337 -0.3308
   67CHL1    O3 7367   0.305   2.883  24.607  0.1559  0.6912  0.4787
   67CHL1   H3' 7368   0.291   2.845  24.694 -1.4018  1.6255  0.6679
   67CHL1    C4 7369   0.476   3.025  24.521  0.2842 -0.7744  0.4388
   67CHL1   H4A 7370   0.422   3.024  24.423  0.2163  1.6167  0.3859
   67CHL1   H4B 7371   0.436   3.114  24.575  2.4409  0.3774  0.2503
   67CHL1    C5 7372   0.629   3.049  24.511  0.6295  0.9223  0.3385
   67CHL1    C6 7373   0.697   3.154  24.563  0.3139 -0.4145  0.1334
   67CHL1    H6 7374   0.630   3.224  24.615  0.1111 -1.4402  1.3196
   67CHL1    C7 7375   0.842   3.183  24.546 -0.1837  0.9272  0.2082
   67CHL1   H7A 7376   0.853   3.287  24.508  1.7957  1.1671  1.2953
   67CHL1   H7B 7377   0.899   3.172  24.640  4.5557 -0.6539 -2.4862
   67CHL1    C8 7378   0.901   3.105  24.431 -0.2645 -0.2656 -0.0343
   67CHL1    H8 7379   0.860   3.143  24.335  0.1932 -0.5709 -0.3553
   67CHL1   C14 7380   1.053   3.110  24.441 -0.2239 -0.5846  0.0176
   67CHL1   H14 7381   1.084   3.071  24.540  1.4551  1.1127  0.2159
   67CHL1   C15 7382   1.120   3.246  24.435 -0.0426  0.2971 -0.8555
   67CHL1  H15A 7383   1.072   3.301  24.351 -1.5441  0.3911  0.0145
   67CHL1  H15B 7384   1.109   3.294  24.534  0.3489 -2.2991  0.5481
   67CHL1   C16 7385   1.271   3.215  24.415  0.0157 -0.3407  0.2246
   67CHL1  H16A 7386   1.302   3.282  24.331 -0.6034 -2.2094 -1.5916
   67CHL1  H16B 7387   1.325   3.230  24.511 -1.2011 -0.0375  0.8742
   67CHL1   C17 7388   1.271   3.064  24.369  0.5117 -0.0773 -0.3676
   67CHL1   H17 7389   1.284   3.005  24.462 -1.9505  0.0480  0.1030
   67CHL1   C13 7390   1.125   3.026  24.330 -0.0478 -0.1986 -0.0599
   67CHL1   C18 7391   1.093   3.075  24.183 -0.4132  0.3190  0.3062
   67CHL1  H18A 7392   0.985   3.069  24.160 -0.2385 -1.6165 -0.1764
   67CHL1  H18B 7393   1.146   3.171  24.166  1.9736 -0.8359  0.8501
   67CHL1  H18C 7394   1.153   3.008  24.117  0.2418 -2.3608  3.3788
   67CHL1   C12 7395   1.084   2.881  24.354  0.0972  0.4145  0.5225
   67CHL1  H12A 7396   1.126   2.815  24.274 -0.3574  0.4969  0.2103
   67CHL1  H12B 7397   1.119   2.854  24.456 -1.4959  1.1550  1.3027
   67CHL1   C11 7398   0.932   2.858  24.355  0.1661 -0.3664 -0.0398
   67CHL1  H11A 7399   0.904   2.881  24.250 -0.9898  1.6412  0.6519
   67CHL1  H11B 7400   0.917   2.751  24.378 -1.2807  0.1916  1.7883
   67CHL1    C9 7401   0.853   2.955  24.440 -0.3993 -0.5754 -0.5255
   67CHL1    H9 7402   0.876   2.931  24.546 -0.2063  1.2795 -0.1143
   67CHL1   C10 7403   0.702   2.935  24.425  0.3843  0.0852 -0.2877
   67CHL1   C19 7404   0.650   2.944  24.276  0.2132  0.6590 -0.0532
   67CHL1  H19A 7405   0.712   2.881  24.210  0.4472  1.5634 -0.7120
   67CHL1  H19B 7406   0.545   2.910  24.272  0.9035 -1.6272 -0.4655
   67CHL1  H19C 7407   0.666   3.048  24.241  0.7302  0.0686 -1.6572
   67CHL1    C1 7408   0.659   2.798  24.499  0.0096  0.0004  0.2383
   67CHL1   H1A 7409   0.693   2.712  24.437  0.1545 -0.2091  0.6110
   67CHL1   H1B 7410   0.710   2.796  24.597 -2.2509 -1.9837  1.4696
   67CHL1    C2 7411   0.510   2.769  24.536 -0.6653  0.2582 -0.2582
   67CHL1   H2A 7412   0.516   2.681  24.604  3.4471  0.8661  0.4418
   67CHL1   H2B 7413   0.462   2.738  24.441 -0.8331  0.9925 -0.4228
   67CHL1   C20 7414   1.399   3.037  24.290 -0.4363  0.6950 -0.2244
   67CHL1   H20 7415   1.381   3.091  24.194 -1.3822 -0.4530 -0.7190
   67CHL1   C21 7416   1.405   2.886  24.256  0.1552 -0.8818 -0.3065
   67CHL1  H21A 7417   1.327   2.849  24.186 -0.9999  0.5592  0.1826
   67CHL1  H21B 7418   1.394   2.830  24.351  2.2178 -1.7779 -0.5531
   67CHL1  H21C 7419   1.500   2.856  24.207  0.0709 -2.2173  0.2790
   67CHL1   C22 7420   1.538   3.100  24.339  0.2351 -0.0401  1.1390
   67CHL1  H22A 7421   1.531   3.210  24.328 -1.8033 -0.1403  1.1415
   67CHL1  H22B 7422   1.534   3.079  24.449  0.6664 -0.2529  1.1186
   67CHL1   C23 7423   1.668   3.057  24.263  0.3489 -1.1462  0.3327
   67CHL1  H23A 7424   1.663   2.946  24.250 -1.3572 -1.0624  0.0979
   67CHL1  H23B 7425   1.663   3.093  24.158 -0.3039  0.1726  0.8007
   67CHL1   C24 7426   1.802   3.108  24.319 -0.0543  0.4729 -0.4149
   67CHL1  H24A 7427   1.803   3.217  24.341 -0.8083  0.2065  1.0831
   67CHL1  H24B 7428   1.818   3.069  24.422 -0.6855  1.0402 -0.0929
   67CHL1   C25 7429   1.930   3.072  24.236  0.3282 -0.5837  1.0672
   67CHL1   H25 7430   1.928   3.135  24.145  0.6983 -1.3458  0.5143
   67CHL1   C26 7431   2.057   3.102  24.316 -0.0466 -1.0409 -0.6661
   67CHL1  H26A 7432   2.146   3.079  24.254  0.5867  2.5455 -1.2819
   67CHL1  H26B 7433   2.065   3.208  24.348  0.7953 -0.7085 -1.8925
   67CHL1  H26C 7434   2.052   3.043  24.410 -0.0731  0.7324  0.4838
   67CHL1   C27 7435   1.935   2.927  24.182 -0.1506 -0.1818 -0.2577
   67CHL1  H27A 7436   2.010   2.916  24.101 -0.1068 -0.2377 -0.2101
   67CHL1  H27B 7437   1.957   2.854  24.263  1.2780 -0.1069 -0.5444
   67CHL1  H27C 7438   1.833   2.904  24.145 -0.5609 -0.3432  0.9171
   68CHL1    C3 7439   0.394   1.969  20.419 -0.7743  0.9261 -0.7412
   68CHL1    H3 7440   0.435   2.072  20.420  1.0966  0.2365 -1.5451
   68CHL1    O3 7441   0.353   1.939  20.548  0.1479  0.2380  0.3553
   68CHL1   H3' 7442   0.288   1.871  20.534  0.1205 -0.3846  3.0234
   68CHL1    C4 7443   0.272   1.977  20.327 -0.6405 -0.4143 -0.0888
   68CHL1   H4A 7444   0.212   1.885  20.336 -0.6074 -0.6326 -1.7807
   68CHL1   H4B 7445   0.203   2.054  20.368  0.0358 -0.6253  1.5393
   68CHL1    C5 7446   0.310   1.998  20.181  0.1093 -0.0254 -0.2452
   68CHL1    C6 7447   0.252   2.088  20.099  0.7805 -0.8434  0.3432
   68CHL1    H6 7448   0.161   2.143  20.129  0.2697 -1.1828 -0.5394
   68CHL1    C7 7449   0.288   2.116  19.956 -0.3614  0.1023 -1.0494
   68CHL1   H7A 7450   0.204   2.147  19.890 -0.9223  1.1480  0.1039
   68CHL1   H7B 7451   0.361   2.200  19.951  0.8013 -0.8160  0.0335
   68CHL1    C8 7452   0.373   2.002  19.889  0.1819  0.0193  0.6687
   68CHL1    H8 7453   0.293   1.927  19.869  2.9008 -2.6797 -0.7955
   68CHL1   C14 7454   0.429   2.043  19.761  0.5538  0.6144 -0.3327
   68CHL1   H14 7455   0.509   2.113  19.795  1.9612 -1.0825 -0.0067
   68CHL1   C15 7456   0.334   2.112  19.668  0.0613  0.0704  1.2112
   68CHL1  H15A 7457   0.230   2.073  19.665  0.3816 -0.7669  0.2600
   68CHL1  H15B 7458   0.320   2.217  19.700  1.3576  0.5410  0.3328
   68CHL1   C16 7459   0.403   2.100  19.536 -0.3602 -0.1974 -0.0303
   68CHL1  H16A 7460   0.332   2.078  19.454 -0.0614  0.6356 -0.5285
   68CHL1  H16B 7461   0.456   2.196  19.517  3.0112 -1.4065  2.2302
   68CHL1   C17 7462   0.534   2.008  19.550  0.2292  0.6587 -0.4864
   68CHL1   H17 7463   0.613   2.083  19.574 -0.9588  1.2084  2.1686
   68CHL1   C13 7464   0.495   1.932  19.684 -0.2749  0.0931 -0.2161
   68CHL1   C18 7465   0.401   1.810  19.656  0.3575  0.9308 -0.4026
   68CHL1  H18A 7466   0.455   1.722  19.615 -2.2572 -1.5348  1.0447
   68CHL1  H18B 7467   0.360   1.782  19.755 -1.5276  2.1148 -0.7889
   68CHL1  H18C 7468   0.313   1.840  19.595 -0.5118  1.6127  1.1190
   68CHL1   C12 7469   0.612   1.881  19.772 -0.2624 -0.0221  0.5234
   68CHL1  H12A 7470   0.663   1.803  19.710 -1.7066  0.4257 -1.3010
   68CHL1  H12B 7471   0.676   1.972  19.782 -2.8120  1.9665 -0.3364
   68CHL1   C11 7472   0.570   1.839  19.911  0.7821 -0.1912 -0.3768
   68CHL1  H11A 7473   0.500   1.753  19.897  0.9745 -0.6699  1.3580
   68CHL1  H11B 7474   0.653   1.797  19.971  0.9013  2.7960  1.7275
   68CHL1    C9 7475   0.473   1.948  19.987 -0.7623  0.5230  0.2604
   68CHL1    H9 7476   0.546   2.031  19.997  0.3483 -0.4856  0.8977
   68CHL1   C10 7477   0.426   1.909  20.131 -0.4897 -0.2859  0.3640
   68CHL1   C19 7478   0.378   1.760  20.120 -0.4708 -0.0304 -0.6272
   68CHL1  H19A 7479   0.457   1.686  20.097  0.8231  1.3881 -0.8681
   68CHL1  H19B 7480   0.325   1.727  20.213 -2.7191  0.1765 -1.7567
   68CHL1  H19C 7481   0.301   1.755  20.040 -0.6719  3.0149 -0.7272
   68CHL1    C1 7482   0.551   1.923  20.226  0.2095 -0.0462  0.2254
   68CHL1   H1A 7483   0.629   1.851  20.190 -0.3158 -0.2875 -0.4515
   68CHL1   H1B 7484   0.591   2.027  20.222 -0.0136  0.0746 -4.2255
   68CHL1    C2 7485   0.511   1.875  20.371  0.5162 -0.6762 -0.5513
   68CHL1   H2A 7486   0.596   1.893  20.440  0.4382 -0.4666 -0.5126
   68CHL1   H2B 7487   0.498   1.765  20.360  1.4695 -0.8016 -0.5578
   68CHL1   C20 7488   0.569   1.927  19.424  0.3550  0.4638 -0.6100
   68CHL1   H20 7489   0.509   1.835  19.404  2.1022 -1.4319  2.1115
   68CHL1   C21 7490   0.703   1.855  19.439 -0.6691 -0.1387 -0.4135
   68CHL1  H21A 7491   0.706   1.784  19.524 -1.4005 -1.1615 -1.2086
   68CHL1  H21B 7492   0.787   1.925  19.454 -0.3258 -0.8638  1.2667
   68CHL1  H21C 7493   0.727   1.806  19.342  0.5431  2.6537 -1.6206
   68CHL1   C22 7494   0.564   2.011  19.293 -0.3464  0.3617  0.1678
   68CHL1  H22A 7495   0.580   1.944  19.207 -2.6085 -0.5774  0.4275
   68CHL1  H22B 7496   0.459   2.044  19.276 -0.8144 -0.7555  0.8190
   68CHL1   C23 7497   0.664   2.123  19.276 -0.4227  0.4839  0.0294
   68CHL1  H23A 7498   0.636   2.199  19.353 -1.7770  1.3773 -1.2843
   68CHL1  H23B 7499   0.768   2.096  19.302 -0.3679 -0.9487 -1.5658
   68CHL1   C24 7500   0.667   2.193  19.140 -0.1117  0.7952 -0.6928
   68CHL1  H24A 7501   0.768   2.240  19.131  0.2620  0.1719  0.1742
   68CHL1  H24B 7502   0.674   2.110  19.067 -0.0881 -1.5711  1.8790
   68CHL1   C25 7503   0.553   2.280  19.095 -0.0649 -0.2274  0.6586
   68CHL1   H25 7504   0.460   2.220  19.106 -0.9398  1.3135  2.2671
   68CHL1   C26 7505   0.547   2.419  19.159  0.3809  0.0008 -0.5419
   68CHL1  H26A 7506   0.465   2.481  19.115  0.0004  0.1052  0.2844
   68CHL1  H26B 7507   0.530   2.407  19.268  0.3193  1.5196 -0.3606
   68CHL1  H26C 7508   0.647   2.464  19.144  1.0140  0.1872  3.2319
   68CHL1   C27 7509   0.561   2.304  18.936 -0.1243 -0.9089  0.2588
   68CHL1  H27A 7510   0.571   2.202  18.894 -0.2678 -2.3213  3.3484
   68CHL1  H27B 7511   0.475   2.355  18.889 -1.5316 -0.8658  2.7167
   68CHL1  H27C 7512   0.654   2.359  18.909  0.5122 -2.0248  0.1392
   69CHL1    C3 7513   0.422   0.535  14.579  0.8954  0.3084 -0.4700
   69CHL1    H3 7514   0.375   0.437  14.554  2.4700 -0.7938  0.6854
   69CHL1    O3 7515   0.543   0.545  14.508  0.2652  0.6143 -0.0681
   69CHL1   H3' 7516   0.575   0.635  14.510  0.4205  0.6054 -1.3152
   69CHL1    C4 7517   0.332   0.652  14.554  0.1858 -0.0601  0.1385
   69CHL1   H4A 7518   0.384   0.747  14.577 -0.2994 -0.0345  1.2215
   69CHL1   H4B 7519   0.320   0.655  14.444  1.6004 -0.9122 -0.0601
   69CHL1    C5 7520   0.208   0.645  14.641  0.4160 -0.3988  0.2726
   69CHL1    C6 7521   0.089   0.636  14.588  0.4199 -0.4488  0.2423
   69CHL1    H6 7522   0.072   0.647  14.480 -1.1866 -1.6416  0.3309
   69CHL1    C7 7523  -0.042   0.631  14.668 -0.4429 -0.1909 -0.6333
   69CHL1   H7A 7524  -0.110   0.707  14.625 -0.3437 -0.3212 -1.0215
   69CHL1   H7B 7525  -0.086   0.529  14.665 -0.4218 -0.1910 -0.9976
   69CHL1    C8 7526  -0.021   0.677  14.820  0.1442  1.1880  0.2841
   69CHL1    H8 7527   0.002   0.785  14.832 -0.8922  1.3102  1.3121
   69CHL1   C14 7528  -0.143   0.644  14.898  0.3765  0.0879  0.6158
   69CHL1   H14 7529  -0.149   0.533  14.887  1.1303  0.1860 -1.3703
   69CHL1   C15 7530  -0.278   0.699  14.845  0.7716 -0.7997 -0.9927
   69CHL1  H15A 7531  -0.267   0.806  14.820  1.2879 -1.0003 -1.6722
   69CHL1  H15B 7532  -0.321   0.646  14.757  0.2294  1.2884 -2.0305
   69CHL1   C16 7533  -0.366   0.695  14.971  0.0518  0.0281 -0.5424
   69CHL1  H16A 7534  -0.401   0.798  14.996 -2.7340 -0.8308 -0.6303
   69CHL1  H16B 7535  -0.455   0.633  14.951 -3.1360  4.1242 -0.2651
   69CHL1   C17 7536  -0.279   0.639  15.093  0.4265 -0.3882  0.2256
   69CHL1   H17 7537  -0.293   0.531  15.069  0.2938 -0.8749  2.3533
   69CHL1   C13 7538  -0.131   0.665  15.046  0.3096 -0.4349 -0.1434
   69CHL1   C18 7539  -0.105   0.819  15.071 -0.8152  0.1664  1.2273
   69CHL1  H18A 7540  -0.012   0.855  15.020 -1.7695 -0.7278 -1.2966
   69CHL1  H18B 7541  -0.189   0.879  15.029 -0.0911 -0.9368 -2.1707
   69CHL1  H18C 7542  -0.084   0.839  15.178  1.6605  1.8939  0.5169
   69CHL1   C12 7543  -0.020   0.575  15.105  0.3194 -0.2163 -0.1880
   69CHL1  H12A 7544  -0.005   0.617  15.206  0.0642  1.8274 -0.9405
   69CHL1  H12B 7545  -0.052   0.469  15.102  1.5107 -0.6564  1.5014
   69CHL1   C11 7546   0.114   0.606  15.024  0.1707  0.0390 -0.2270
   69CHL1  H11A 7547   0.155   0.707  15.045  2.7943 -0.8001 -0.9209
   69CHL1  H11B 7548   0.177   0.526  15.068 -1.2197 -0.9944 -0.0148
   69CHL1    C9 7549   0.100   0.587  14.870 -0.5547 -0.8786  0.2286
   69CHL1    H9 7550   0.084   0.478  14.854 -2.9420 -0.5487 -0.0028
   69CHL1   C10 7551   0.227   0.624  14.793  1.4802 -0.9187 -0.5314
   69CHL1   C19 7552   0.285   0.761  14.843 -0.0416 -0.3378  0.0304
   69CHL1  H19A 7553   0.208   0.842  14.836 -1.3015 -1.4895  0.1904
   69CHL1  H19B 7554   0.324   0.754  14.947 -2.2312  0.5163  0.9888
   69CHL1  H19C 7555   0.367   0.806  14.783  1.4343  0.6846  2.6417
   69CHL1    C1 7556   0.329   0.510  14.819 -0.2332  0.0915 -0.1012
   69CHL1   H1A 7557   0.352   0.509  14.927  1.3291  0.8634 -0.3900
   69CHL1   H1B 7558   0.286   0.412  14.789 -1.3044  0.6150 -0.3055
   69CHL1    C2 7559   0.459   0.529  14.731  0.1522 -0.0932  0.3994
   69CHL1   H2A 7560   0.522   0.440  14.749 -2.8734 -2.1162  1.9571
   69CHL1   H2B 7561   0.511   0.623  14.759 -0.6403  0.3700  0.3512
   69CHL1   C20 7562  -0.330   0.669  15.229 -0.6034 -0.1072  0.7393
   69CHL1   H20 7563  -0.292   0.773  15.244 -3.4780  1.0362  0.6467
   69CHL1   C21 7564  -0.261   0.587  15.338 -0.0377  0.2228  0.9202
   69CHL1  H21A 7565  -0.315   0.590  15.436  0.7547  3.0061  1.3560
   69CHL1  H21B 7566  -0.158   0.623  15.361  0.2792 -0.6849  0.9518
   69CHL1  H21C 7567  -0.254   0.479  15.315 -0.2776  0.2638  0.6564
   69CHL1   C22 7568  -0.481   0.669  15.252  0.3085 -0.5733  0.4186
   69CHL1  H22A 7569  -0.528   0.721  15.165  1.5059 -0.8767 -0.4403
   69CHL1  H22B 7570  -0.523   0.566  15.244  1.5663 -1.0157 -1.4705
   69CHL1   C23 7571  -0.533   0.756  15.372 -0.1938 -0.4335  0.2523
   69CHL1  H23A 7572  -0.497   0.722  15.471 -1.0686  0.8728  1.0536
   69CHL1  H23B 7573  -0.495   0.859  15.354  1.8778 -1.4095 -1.4994
   69CHL1   C24 7574  -0.685   0.743  15.382 -0.3802 -0.1072  0.2286
   69CHL1  H24A 7575  -0.734   0.772  15.287  1.5007 -2.8530 -1.7540
   69CHL1  H24B 7576  -0.714   0.641  15.415 -1.9228  0.5415  0.9432
   69CHL1   C25 7577  -0.747   0.832  15.498 -0.3651 -0.7241 -0.6531
   69CHL1   H25 7578  -0.676   0.838  15.584 -2.7881  1.4362  1.3593
   69CHL1   C26 7579  -0.751   0.981  15.446 -0.0072 -0.0666 -0.7006
   69CHL1  H26A 7580  -0.777   1.052  15.528  0.9633 -0.3237 -0.1488
   69CHL1  H26B 7581  -0.655   1.018  15.405  1.2252 -0.5610  1.5837
   69CHL1  H26C 7582  -0.830   0.989  15.368 -1.2495  1.5136  0.6307
   69CHL1   C27 7583  -0.886   0.782  15.549  0.2665 -0.2259  0.4515
   69CHL1  H27A 7584  -0.898   0.672  15.552  0.9301 -0.4079 -1.9134
   69CHL1  H27B 7585  -0.899   0.830  15.648 -0.0009  0.7152 -0.0280
   69CHL1  H27C 7586  -0.976   0.803  15.486  0.5787 -1.1784 -0.3397
   70CHL1    C3 7587   0.849   3.677  18.894  0.7359  0.5202  0.4759
   70CHL1    H3 7588   0.938   3.636  18.947  1.1389 -0.8500 -1.1602
   70CHL1    O3 7589   0.891   3.760  18.789  0.1409 -0.1968  0.7956
   70CHL1   H3' 7590   0.983   3.784  18.801 -0.0306  0.5620  0.6229
   70CHL1    C4 7591   0.767   3.553  18.837 -0.1533 -0.6706 -0.7090
   70CHL1   H4A 7592   0.688   3.600  18.775  1.1966  1.1710 -1.0956
   70CHL1   H4B 7593   0.833   3.504  18.762  0.4824  1.6263 -1.7230
   70CHL1    C5 7594   0.713   3.462  18.949  0.0413  0.5817 -0.0361
   70CHL1    C6 7595   0.740   3.330  18.964  0.2319  0.3023 -0.4061
   70CHL1    H6 7596   0.800   3.282  18.885  0.8972  1.2180 -0.4633
   70CHL1    C7 7597   0.684   3.231  19.065  0.1108  0.0673 -0.4793
   70CHL1   H7A 7598   0.653   3.132  19.024  3.0594 -2.0637  2.0204
   70CHL1   H7B 7599   0.760   3.205  19.141  3.2565 -1.4034 -3.8090
   70CHL1    C8 7600   0.572   3.301  19.147  0.5669  1.0223  0.0909
   70CHL1    H8 7601   0.478   3.293  19.087 -0.4209 -1.5274  1.7974
   70CHL1   C14 7602   0.543   3.224  19.276 -0.3538 -0.3243  0.1195
   70CHL1   H14 7603   0.641   3.240  19.327  0.5966 -2.0681 -1.0276
   70CHL1   C15 7604   0.514   3.070  19.253  0.3452 -0.6152  0.4156
   70CHL1  H15A 7605   0.449   3.064  19.163 -1.4280  1.5708  1.4573
   70CHL1  H15B 7606   0.606   3.011  19.233  1.1092 -0.0177  1.9787
   70CHL1   C16 7607   0.443   3.033  19.388  0.8029  0.1013  0.0965
   70CHL1  H16A 7608   0.339   3.000  19.368  0.6462  0.4199  0.3639
   70CHL1  H16B 7609   0.505   2.954  19.435 -0.2357 -0.9506 -0.2598
   70CHL1   C17 7610   0.442   3.160  19.475 -0.3324 -0.2083 -0.6190
   70CHL1   H17 7611   0.535   3.174  19.534 -1.5733 -0.3299  1.4904
   70CHL1   C13 7612   0.439   3.275  19.369 -0.5513  0.2100  0.1790
   70CHL1   C18 7613   0.302   3.276  19.302 -0.2687 -0.7436 -0.2253
   70CHL1  H18A 7614   0.265   3.186  19.247 -0.4674 -0.3654 -0.7185
   70CHL1  H18B 7615   0.225   3.309  19.375  2.1088  0.8213  1.7025
   70CHL1  H18C 7616   0.310   3.357  19.227  1.4322 -0.6884 -0.0179
   70CHL1   C12 7617   0.485   3.415  19.411 -0.2930  0.6748  0.4047
   70CHL1  H12A 7618   0.411   3.462  19.480 -0.0906  0.7629  0.5620
   70CHL1  H12B 7619   0.582   3.401  19.463  0.7885 -2.3569 -2.1394
   70CHL1   C11 7620   0.510   3.507  19.292  0.2250  0.4284  0.0249
   70CHL1  H11A 7621   0.409   3.531  19.251  1.2219 -0.3121 -3.0873
   70CHL1  H11B 7622   0.552   3.598  19.339 -1.6493 -0.0064  2.8222
   70CHL1    C9 7623   0.599   3.443  19.181  0.4244  0.0592  0.3534
   70CHL1    H9 7624   0.694   3.436  19.239  0.8697 -3.5849 -0.5858
   70CHL1   C10 7625   0.624   3.530  19.057 -0.1208  0.0176 -0.5753
   70CHL1   C19 7626   0.490   3.573  18.999 -0.5530  0.2701  0.8778
   70CHL1  H19A 7627   0.433   3.640  19.066 -0.2304  0.7822  0.6464
   70CHL1  H19B 7628   0.500   3.638  18.909  2.7493 -1.3354 -0.0769
   70CHL1  H19C 7629   0.426   3.487  18.970 -3.0560  1.9575  1.0794
   70CHL1    C1 7630   0.706   3.648  19.102 -0.0663 -0.1900 -0.3804
   70CHL1   H1A 7631   0.657   3.711  19.179  0.7052  0.7618 -0.6471
   70CHL1   H1B 7632   0.803   3.618  19.147 -0.2064 -1.0657 -0.6399
   70CHL1    C2 7633   0.756   3.751  18.993 -0.0163 -0.0764 -0.3611
   70CHL1   H2A 7634   0.820   3.822  19.050  1.3642 -0.6475 -1.1399
   70CHL1   H2B 7635   0.676   3.803  18.937  0.0994 -0.2867 -0.7235
   70CHL1   C20 7636   0.327   3.145  19.574  0.2837  0.3549  0.1969
   70CHL1   H20 7637   0.234   3.144  19.514  2.0675  2.4665 -2.8729
   70CHL1   C21 7638   0.317   3.271  19.655 -0.1109 -0.2867  0.1425
   70CHL1  H21A 7639   0.416   3.288  19.703 -1.4144  0.0395  2.9466
   70CHL1  H21B 7640   0.237   3.254  19.731  0.7446 -2.0153  0.7207
   70CHL1  H21C 7641   0.289   3.355  19.588 -1.0223 -0.7049 -0.0234
   70CHL1   C22 7642   0.337   3.024  19.658 -0.9563  0.5281  0.4165
   70CHL1  H22A 7643   0.325   2.934  19.594 -1.2134  1.0290 -0.2527
   70CHL1  H22B 7644   0.439   3.027  19.702 -0.9812  0.2246  0.4975
   70CHL1   C23 7645   0.253   3.005  19.780  0.1515  0.1270  0.1754
   70CHL1  H23A 7646   0.301   2.919  19.830  0.8611  0.0985 -0.5232
   70CHL1  H23B 7647   0.269   3.093  19.845 -0.4977 -0.0953  0.6501
   70CHL1   C24 7648   0.105   2.969  19.757 -0.6701 -0.0611 -0.4113
   70CHL1  H24A 7649   0.059   3.033  19.678 -2.0649 -2.9779 -2.1235
   70CHL1  H24B 7650   0.105   2.863  19.724 -0.8143  0.5398 -2.5404
   70CHL1   C25 7651   0.021   2.968  19.886 -0.9230  0.2905  0.0213
   70CHL1   H25 7652   0.076   2.919  19.969 -0.6929 -0.0711 -0.3426
   70CHL1   C26 7653  -0.008   3.111  19.943 -0.7048  0.1632 -0.4340
   70CHL1  H26A 7654  -0.067   3.091  20.035  2.5196 -2.4463  1.2649
   70CHL1  H26B 7655   0.087   3.153  19.980 -0.5326 -1.1091  0.6375
   70CHL1  H26C 7656  -0.060   3.176  19.869 -0.5797 -0.6591 -1.2668
   70CHL1   C27 7657  -0.109   2.904  19.858 -0.5927  0.5615  0.3952
   70CHL1  H27A 7658  -0.166   2.908  19.953  0.0843 -0.5965  0.8669
   70CHL1  H27B 7659  -0.156   2.958  19.773  1.3716  0.0660 -1.0789
   70CHL1  H27C 7660  -0.101   2.797  19.829  0.3168  0.9623 -0.9567
   71CHL1    C3 7661   2.342   3.283  16.760  0.4685 -0.1134 -0.0204
   71CHL1    H3 7662   2.391   3.352  16.832 -0.3851 -0.3818  0.8478
   71CHL1    O3 7663   2.201   3.298  16.787 -0.3981 -0.1947 -0.3817
   71CHL1   H3' 7664   2.157   3.276  16.704 -1.0459 -1.9413  0.3995
   71CHL1    C4 7665   2.367   3.330  16.620  0.3735  0.0623 -0.1091
   71CHL1   H4A 7666   2.310   3.273  16.543 -0.7408 -0.5850  1.1665
   71CHL1   H4B 7667   2.339   3.437  16.630  1.4653  0.1781  2.4737
   71CHL1    C5 7668   2.521   3.333  16.600 -0.0537  0.3136  0.1751
   71CHL1    C6 7669   2.590   3.446  16.579 -0.3357  0.0240  0.0090
   71CHL1    H6 7670   2.531   3.539  16.578 -1.3691 -0.6297 -0.3209
   71CHL1    C7 7671   2.739   3.468  16.560 -0.4058  0.5428  0.1083
   71CHL1   H7A 7672   2.752   3.531  16.469 -0.2902 -2.2899 -1.9829
   71CHL1   H7B 7673   2.794   3.512  16.646  1.4583  0.8041 -1.1529
   71CHL1    C8 7674   2.791   3.332  16.516  0.0130  0.0692  0.5357
   71CHL1    H8 7675   2.746   3.310  16.417 -0.1992  0.6108  0.5099
   71CHL1   C14 7676   2.939   3.339  16.487  0.3623  0.6048 -0.5538
   71CHL1   H14 7677   2.992   3.363  16.581  2.6343 -1.9167 -1.0400
   71CHL1   C15 7678   2.993   3.448  16.385 -0.4760 -0.3145 -0.6645
   71CHL1  H15A 7679   2.916   3.473  16.309  0.0547  1.2922 -0.7028
   71CHL1  H15B 7680   3.007   3.543  16.440  1.5697 -2.1526  2.2995
   71CHL1   C16 7681   3.125   3.381  16.343  0.3702  0.3634 -0.2317
   71CHL1  H16A 7682   3.119   3.377  16.232 -1.2625 -2.1768 -0.1378
   71CHL1  H16B 7683   3.212   3.447  16.364 -1.1113  2.3810 -0.1038
   71CHL1   C17 7684   3.138   3.239  16.414  0.0867  0.1109  0.4167
   71CHL1   H17 7685   3.194   3.252  16.509 -2.0587  1.3861  1.5813
   71CHL1   C13 7686   2.993   3.198  16.450 -0.2377 -0.9317 -0.2450
   71CHL1   C18 7687   2.922   3.143  16.326 -0.6285  0.8520 -0.6839
   71CHL1  H18A 7688   2.958   3.041  16.302 -1.8331  0.6071 -1.5872
   71CHL1  H18B 7689   2.814   3.120  16.340  0.0255 -3.5268 -1.4170
   71CHL1  H18C 7690   2.935   3.214  16.241  2.2773  0.3828 -0.7104
   71CHL1   C12 7691   2.981   3.103  16.568  0.4203 -0.4960 -0.0023
   71CHL1  H12A 7692   3.008   2.998  16.545  2.4593 -0.1462  0.5913
   71CHL1  H12B 7693   3.033   3.150  16.654  2.4801 -1.5113 -0.6348
   71CHL1   C11 7694   2.832   3.087  16.607  0.3153 -0.1801 -0.3315
   71CHL1  H11A 7695   2.792   3.013  16.535  0.7306 -0.4058 -0.3298
   71CHL1  H11B 7696   2.828   3.039  16.707  0.8264  1.2345  0.4042
   71CHL1    C9 7697   2.749   3.219  16.617 -0.2543 -0.2953  0.5667
   71CHL1    H9 7698   2.784   3.267  16.711  1.5153  1.0369 -0.7084
   71CHL1   C10 7699   2.591   3.202  16.614  0.1325  0.1577  0.5394
   71CHL1   C19 7700   2.551   3.123  16.489  0.1748 -0.0200  0.0357
   71CHL1  H19A 7701   2.593   3.173  16.400  0.3935 -1.6032 -0.7916
   71CHL1  H19B 7702   2.572   3.013  16.492 -0.2293 -0.0854  1.4848
   71CHL1  H19C 7703   2.444   3.118  16.462 -0.1985  1.3408  1.1893
   71CHL1    C1 7704   2.537   3.134  16.746 -0.1162  0.6350 -0.3630
   71CHL1   H1A 7705   2.573   3.029  16.754 -0.9571  0.4319  1.2281
   71CHL1   H1B 7706   2.593   3.192  16.823  0.6732 -1.9724  1.1438
   71CHL1    C2 7707   2.388   3.144  16.774  0.1427 -0.1859 -0.0883
   71CHL1   H2A 7708   2.370   3.100  16.875 -1.0679 -1.5505 -0.8630
   71CHL1   H2B 7709   2.332   3.081  16.701 -0.6460  0.6911 -0.2512
   71CHL1   C20 7710   3.227   3.153  16.324 -0.0551 -0.2487  0.2162
   71CHL1   H20 7711   3.173   3.131  16.230  2.4925  0.5536 -1.5626
   71CHL1   C21 7712   3.253   3.013  16.389  0.1294 -0.0734  0.6911
   71CHL1  H21A 7713   3.159   2.975  16.434  0.7026 -3.9819 -0.9906
   71CHL1  H21B 7714   3.331   3.029  16.466 -0.6507 -0.5165  1.6091
   71CHL1  H21C 7715   3.301   2.942  16.317  0.6167  1.4342 -0.5158
   71CHL1   C22 7716   3.358   3.218  16.292  0.0846 -0.0009 -0.3199
   71CHL1  H22A 7717   3.340   3.312  16.237  1.1011 -0.6019 -1.7330
   71CHL1  H22B 7718   3.394   3.261  16.389  1.7987 -0.0444 -0.8980
   71CHL1   C23 7719   3.456   3.133  16.221 -0.3038 -0.6291  1.0690
   71CHL1  H23A 7720   3.496   3.063  16.296  0.5988  0.2094  1.3935
   71CHL1  H23B 7721   3.402   3.072  16.145  0.1579  1.9620 -1.5681
   71CHL1   C24 7722   3.556   3.225  16.155 -0.2226  0.2462  0.0560
   71CHL1  H24A 7723   3.511   3.265  16.062  1.3823 -2.0547 -1.8284
   71CHL1  H24B 7724   3.572   3.309  16.226 -0.7437  2.8134 -2.6841
   71CHL1   C25 7725   3.698   3.167  16.134 -0.1770 -0.0561  0.1038
   71CHL1   H25 7726   3.738   3.140  16.234 -1.5613 -2.5673  0.0524
   71CHL1   C26 7727   3.683   3.028  16.057  0.2867  0.4946  0.3973
   71CHL1  H26A 7728   3.775   2.973  16.088  0.4472 -1.4410 -2.9997
   71CHL1  H26B 7729   3.593   2.965  16.071  0.9966 -0.6841 -0.1767
   71CHL1  H26C 7730   3.695   3.054  15.949  0.9725  2.5771  0.9297
   71CHL1   C27 7731   3.799   3.259  16.069  0.1982  0.4927 -0.3123
   71CHL1  H27A 7732   3.905   3.229  16.084 -0.5390 -1.7820  0.6607
   71CHL1  H27B 7733   3.784   3.250  15.959  1.4253 -1.1529 -0.3846
   71CHL1  H27C 7734   3.781   3.367  16.092  1.0350  0.7260 -0.6944
   72CHL1    C3 7735   1.133   2.081  21.994  0.3877  0.2520 -0.2574
   72CHL1    H3 7736   1.124   2.167  21.923 -0.7961 -0.0441 -0.4810
   72CHL1    O3 7737   1.029   2.079  22.085  0.3590 -0.0226  0.5068
   72CHL1   H3' 7738   0.955   2.115  22.034 -0.7198 -1.6346  0.8709
   72CHL1    C4 7739   1.119   1.946  21.919  0.3207 -0.6463 -0.1282
   72CHL1   H4A 7740   1.115   1.882  22.010 -0.9064  0.8649  0.9558
   72CHL1   H4B 7741   1.016   1.933  21.880 -0.5503 -1.6528  2.2893
   72CHL1    C5 7742   1.232   1.914  21.826  0.3080  0.0638 -0.6561
   72CHL1    C6 7743   1.203   1.881  21.693  0.9527  0.4630 -1.1644
   72CHL1    H6 7744   1.104   1.866  21.649  0.6103  1.1936 -0.6489
   72CHL1    C7 7745   1.314   1.863  21.597  0.4443  0.1212 -0.3001
   72CHL1   H7A 7746   1.299   1.780  21.525 -1.8347  1.3417 -1.3560
   72CHL1   H7B 7747   1.322   1.956  21.535 -0.4380 -1.0484 -2.2857
   72CHL1    C8 7748   1.453   1.846  21.658  0.0412 -0.0350 -0.5343
   72CHL1    H8 7749   1.468   1.742  21.693  3.0055 -0.2301 -2.0629
   72CHL1   C14 7750   1.562   1.865  21.551 -0.0588 -0.6278  0.3203
   72CHL1   H14 7751   1.545   1.967  21.509  0.4824 -0.7968 -0.3092
   72CHL1   C15 7752   1.559   1.780  21.430 -0.4681  0.7907 -0.0354
   72CHL1  H15A 7753   1.536   1.675  21.460 -1.4174  1.0884  0.3119
   72CHL1  H15B 7754   1.481   1.813  21.358 -1.0690 -2.2997 -0.9611
   72CHL1   C16 7755   1.703   1.791  21.368 -0.2010  0.1033 -0.3014
   72CHL1  H16A 7756   1.755   1.694  21.355  0.5116  0.4733 -0.2444
   72CHL1  H16B 7757   1.699   1.843  21.270  2.7654  3.7237  1.2543
   72CHL1   C17 7758   1.782   1.882  21.463 -0.8155  0.8504  0.1375
   72CHL1   H17 7759   1.772   1.984  21.421  1.4054  1.2435  0.4202
   72CHL1   C13 7760   1.707   1.870  21.597 -0.5915  0.5727 -0.1839
   72CHL1   C18 7761   1.746   1.731  21.658 -0.5940 -1.0230  0.1751
   72CHL1  H18A 7762   1.667   1.693  21.726 -0.1813 -0.5974  0.9149
   72CHL1  H18B 7763   1.763   1.655  21.579 -0.5476 -1.6227  0.7490
   72CHL1  H18C 7764   1.841   1.735  21.716 -0.7404 -0.1441  0.3816
   72CHL1   C12 7765   1.718   1.993  21.695  0.3348 -0.9448  0.3188
   72CHL1  H12A 7766   1.820   2.011  21.734  0.7571  1.9330 -1.7292
   72CHL1  H12B 7767   1.700   2.086  21.636  0.2401 -1.0585  0.1678
   72CHL1   C11 7768   1.625   1.963  21.811 -0.0163 -0.0427  0.0155
   72CHL1  H11A 7769   1.653   1.873  21.870  1.2202 -1.9754 -3.2608
   72CHL1  H11B 7770   1.641   2.052  21.876  0.9609  0.4071 -0.8106
   72CHL1    C9 7771   1.474   1.952  21.765 -0.5973 -0.1286  0.7638
   72CHL1    H9 7772   1.451   2.049  21.716 -1.2204 -0.1138  1.0709
   72CHL1   C10 7773   1.377   1.941  21.879  0.8208 -0.4782 -0.6241
   72CHL1   C19 7774   1.410   1.833  21.974  0.2869 -0.6808 -0.5875
   72CHL1  H19A 7775   1.440   1.738  21.924 -1.2963 -1.2976 -0.4249
   72CHL1  H19B 7776   1.489   1.870  22.042  0.6667  0.1511 -1.4572
   72CHL1  H19C 7777   1.326   1.803  22.040 -0.2798  1.4109 -0.2868
   72CHL1    C1 7778   1.375   2.083  21.950 -0.6514 -0.3042  0.5841
   72CHL1   H1A 7779   1.474   2.093  21.998 -0.3311  1.6401 -0.3920
   72CHL1   H1B 7780   1.357   2.161  21.873 -1.6240 -1.8652 -0.8447
   72CHL1    C2 7781   1.267   2.101  22.063 -0.6239  0.0978  0.7015
   72CHL1   H2A 7782   1.268   2.196  22.122 -0.4591  2.3422 -2.6002
   72CHL1   H2B 7783   1.283   2.023  22.141  0.4329  0.3988  0.8083
   72CHL1   C20 7784   1.930   1.842  21.461  0.0840 -0.4871 -0.1431
   72CHL1   H20 7785   1.960   1.745  21.507 -2.7972 -0.6377  1.6363
   72CHL1   C21 7786   2.011   1.927  21.558  0.7311  0.3454 -0.0139
   72CHL1  H21A 7787   1.983   2.035  21.553 -1.7469 -0.2606 -0.1833
   72CHL1  H21B 7788   2.119   1.923  21.533  0.6257  1.9025 -0.8894
   72CHL1  H21C 7789   1.983   1.887  21.658 -2.7747 -0.0359 -1.0219
   72CHL1   C22 7790   1.987   1.856  21.315  0.0068 -0.0808 -0.1372
   72CHL1  H22A 7791   1.912   1.818  21.242 -0.6053  0.4107  0.2273
   72CHL1  H22B 7792   1.986   1.963  21.287 -1.2142 -0.4502 -1.6657
   72CHL1   C23 7793   2.118   1.787  21.287  0.4095 -0.0627 -0.3325
   72CHL1  H23A 7794   2.198   1.831  21.350 -0.0550 -0.2770  0.4089
   72CHL1  H23B 7795   2.098   1.681  21.314  3.1824 -0.3918  0.7485
   72CHL1   C24 7796   2.176   1.800  21.142 -0.0987  0.3037 -0.0106
   72CHL1  H24A 7797   2.122   1.726  21.079  4.7575 -3.0823 -0.7526
   72CHL1  H24B 7798   2.171   1.904  21.102 -0.3861 -0.3135 -1.6358
   72CHL1   C25 7799   2.325   1.760  21.117 -0.0721 -0.5268  0.0291
   72CHL1   H25 7800   2.388   1.843  21.155 -1.1455  0.6197 -0.6125
   72CHL1   C26 7801   2.356   1.637  21.201 -1.2138  0.0081 -0.0401
   72CHL1  H26A 7802   2.341   1.634  21.311  2.5176 -1.3872  0.5730
   72CHL1  H26B 7803   2.301   1.548  21.164  0.9121 -2.2291  1.8657
   72CHL1  H26C 7804   2.462   1.605  21.195 -0.7873  1.0929  1.2279
   72CHL1   C27 7805   2.350   1.741  20.971  0.1548 -0.7663 -0.5047
   72CHL1  H27A 7806   2.288   1.654  20.940 -2.7478  1.3137 -0.9802
   72CHL1  H27B 7807   2.313   1.829  20.913  0.1970 -0.9152 -0.7563
   72CHL1  H27C 7808   2.455   1.731  20.936  0.6574 -0.2560  0.7743
   73CHL1    C3 7809   2.258   3.229  16.041 -0.0688  0.1484 -0.1226
   73CHL1    H3 7810   2.262   3.194  15.936  0.1027 -3.1313  0.8790
   73CHL1    O3 7811   2.166   3.148  16.108 -0.0347  0.2239 -0.0391
   73CHL1   H3' 7812   2.182   3.146  16.203 -0.7124 -0.4285  0.0694
   73CHL1    C4 7813   2.402   3.209  16.100 -0.6821 -0.3916 -0.4477
   73CHL1   H4A 7814   2.404   3.209  16.211  2.0693 -0.7828 -0.4202
   73CHL1   H4B 7815   2.432   3.102  16.089 -0.6081 -0.8187  2.8480
   73CHL1    C5 7816   2.507   3.315  16.066 -0.7747 -0.5059 -1.1518
   73CHL1    C6 7817   2.625   3.281  16.020  0.1118 -0.2660  0.2027
   73CHL1    H6 7818   2.666   3.179  16.019  1.0364  0.0723 -2.2305
   73CHL1    C7 7819   2.741   3.373  15.986 -0.1612 -0.1285  0.2577
   73CHL1   H7A 7820   2.839   3.350  16.035 -0.9891 -0.0300  2.0243
   73CHL1   H7B 7821   2.751   3.376  15.876 -0.9534 -1.5207  0.1251
   73CHL1    C8 7822   2.709   3.518  16.024 -0.2970 -0.2290  0.2120
   73CHL1    H8 7823   2.716   3.519  16.135  0.7777 -2.9316  0.2431
   73CHL1   C14 7824   2.795   3.625  15.946  0.0992 -0.0491 -0.6535
   73CHL1   H14 7825   2.759   3.620  15.841 -0.5726  2.8852 -0.6586
   73CHL1   C15 7826   2.946   3.594  15.943  0.2701  0.0963 -0.0079
   73CHL1  H15A 7827   2.998   3.555  16.033  1.8079  2.3721  0.1564
   73CHL1  H15B 7828   2.962   3.514  15.867 -1.9235  0.5530 -1.0457
   73CHL1   C16 7829   3.006   3.726  15.893  0.5570 -0.5695 -0.2561
   73CHL1  H16A 7830   3.095   3.756  15.952 -1.4929  0.2067  2.6198
   73CHL1  H16B 7831   3.036   3.729  15.786  1.8570  2.6553  0.0882
   73CHL1   C17 7832   2.882   3.829  15.900 -0.1332 -0.0210 -0.0034
   73CHL1   H17 7833   2.847   3.811  15.796  0.8189 -2.5853  0.0405
   73CHL1   C13 7834   2.776   3.773  15.984  0.3371  0.3445  0.1138
   73CHL1   C18 7835   2.810   3.790  16.132 -0.3915  0.1919 -0.0638
   73CHL1  H18A 7836   2.745   3.726  16.195 -2.6098  0.6172 -1.8010
   73CHL1  H18B 7837   2.918   3.773  16.152 -0.4459  0.2808  0.3159
   73CHL1  H18C 7838   2.786   3.890  16.175 -1.7857  0.0122 -0.3614
   73CHL1   C12 7839   2.627   3.814  15.956  0.3988 -0.2439  0.0701
   73CHL1  H12A 7840   2.625   3.915  16.002  0.1454 -0.4980  0.6223
   73CHL1  H12B 7841   2.617   3.831  15.847  2.4693  4.9714  0.3804
   73CHL1   C11 7842   2.534   3.711  16.028 -0.0202 -1.0199  0.5857
   73CHL1  H11A 7843   2.543   3.716  16.139  2.0684 -2.6598  0.5470
   73CHL1  H11B 7844   2.424   3.722  16.019  0.0463 -0.7402  0.0509
   73CHL1    C9 7845   2.558   3.560  15.991 -0.5528  0.0030  0.3139
   73CHL1    H9 7846   2.530   3.542  15.885 -1.4907 -0.8703  0.7001
   73CHL1   C10 7847   2.460   3.459  16.063  0.2890  0.6632  0.5371
   73CHL1   C19 7848   2.446   3.504  16.209 -0.2295 -0.0135  0.1001
   73CHL1  H19A 7849   2.375   3.588  16.227 -1.9790 -1.8219  2.3793
   73CHL1  H19B 7850   2.394   3.428  16.271 -0.6340  0.6814  0.6331
   73CHL1  H19C 7851   2.539   3.532  16.263 -0.0001 -1.2150  0.3544
   73CHL1    C1 7852   2.323   3.468  15.992  0.1539 -0.1339 -0.3689
   73CHL1   H1A 7853   2.275   3.563  16.023  0.5824 -0.4975  1.5401
   73CHL1   H1B 7854   2.335   3.462  15.882 -2.8929 -0.4140 -0.7808
   73CHL1    C2 7855   2.214   3.373  16.046  0.3765  0.3775  0.8167
   73CHL1   H2A 7856   2.126   3.374  15.979  1.4142  0.1819 -0.5803
   73CHL1   H2B 7857   2.187   3.396  16.152  2.2043  0.6240  1.2618
   73CHL1   C20 7858   2.907   3.982  15.903  0.7331  0.7676 -0.3497
   73CHL1   H20 7859   2.898   4.017  16.008  1.7946 -2.5088  0.9357
   73CHL1   C21 7860   2.811   4.063  15.812  0.0028  0.8085 -0.4837
   73CHL1  H21A 7861   2.832   4.170  15.834  0.5170  0.3444  1.4697
   73CHL1  H21B 7862   2.704   4.036  15.822 -0.0924  0.7331 -1.6513
   73CHL1  H21C 7863   2.852   4.051  15.709  0.1328  2.3738 -0.6324
   73CHL1   C22 7864   3.054   4.013  15.885 -0.3342 -0.5885  0.4601
   73CHL1  H22A 7865   3.102   3.978  15.979 -0.5928 -0.7106  0.5465
   73CHL1  H22B 7866   3.109   3.962  15.802  3.5767  2.1549  1.0652
   73CHL1   C23 7867   3.076   4.167  15.870 -0.1212  0.4197 -0.5186
   73CHL1  H23A 7868   3.051   4.193  15.765  0.7642 -0.6547 -1.0184
   73CHL1  H23B 7869   3.007   4.221  15.937 -0.8596 -0.4158 -0.5818
   73CHL1   C24 7870   3.225   4.211  15.880 -0.2020  0.0355  0.4722
   73CHL1  H24A 7871   3.264   4.196  15.982 -0.4400  2.2141  0.9220
   73CHL1  H24B 7872   3.292   4.165  15.803 -1.6169 -2.4530  0.5947
   73CHL1   C25 7873   3.234   4.360  15.848 -0.0582  0.1086  0.3428
   73CHL1   H25 7874   3.205   4.377  15.743  1.3639  1.1495  0.0880
   73CHL1   C26 7875   3.146   4.439  15.943 -0.7472 -1.1342  0.4407
   73CHL1  H26A 7876   3.167   4.547  15.926  0.0023 -1.0985  1.4674
   73CHL1  H26B 7877   3.040   4.412  15.928 -0.8001 -1.8302  1.9125
   73CHL1  H26C 7878   3.181   4.427  16.048  1.6799  0.9816 -0.0101
   73CHL1   C27 7879   3.384   4.398  15.869 -0.4216 -0.5478  0.8163
   73CHL1  H27A 7880   3.415   4.379  15.974  0.2054 -1.1063  0.5358
   73CHL1  H27B 7881   3.452   4.343  15.801  1.9406 -0.7902  3.2087
   73CHL1  H27C 7882   3.404   4.504  15.842  1.5867 -1.4512 -1.6036
   74CHL1    C3 7883   3.013   2.696  18.105  0.5528  0.0888 -0.7496
   74CHL1    H3 7884   3.011   2.786  18.170 -1.8843 -1.1978  1.1090
   74CHL1    O3 7885   2.889   2.630  18.107  0.1774  0.0888  0.1697
   74CHL1   H3' 7886   2.869   2.604  18.197  2.7591  1.5274  1.2487
   74CHL1    C4 7887   3.047   2.725  17.964  0.0364 -0.2808  0.3189
   74CHL1   H4A 7888   3.050   2.628  17.910 -0.3244 -0.6663  0.9755
   74CHL1   H4B 7889   2.961   2.777  17.917  0.5701  0.6639  0.3618
   74CHL1    C5 7890   3.185   2.791  17.953  0.1517 -0.1419 -0.3049
   74CHL1    C6 7891   3.200   2.910  17.896  0.2320  0.4260  1.1157
   74CHL1    H6 7892   3.117   2.963  17.847  2.1160  1.4478 -1.1616
   74CHL1    C7 7893   3.325   2.991  17.900  0.2407  0.0959 -0.4510
   74CHL1   H7A 7894   3.331   3.049  17.805 -0.7335 -1.0895 -1.2620
   74CHL1   H7B 7895   3.321   3.070  17.978 -2.0289  0.5850 -1.0070
   74CHL1    C8 7896   3.450   2.904  17.925 -1.2203 -0.1329  0.0221
   74CHL1    H8 7897   3.464   2.840  17.835 -1.2667 -0.3100  0.1399
   74CHL1   C14 7898   3.571   2.997  17.958  0.3613  0.2462 -0.0587
   74CHL1   H14 7899   3.544   3.041  18.057  1.0219  0.8485 -0.1426
   74CHL1   C15 7900   3.593   3.098  17.851 -0.0956 -0.1397  0.1832
   74CHL1  H15A 7901   3.601   3.041  17.756  2.5578  2.0635 -1.0345
   74CHL1  H15B 7902   3.515   3.175  17.836  0.5246  0.9723  2.2670
   74CHL1   C16 7903   3.735   3.154  17.894 -0.0540 -0.1681 -0.0093
   74CHL1  H16A 7904   3.799   3.165  17.804 -0.4276  1.3800 -0.1179
   74CHL1  H16B 7905   3.721   3.257  17.932  0.1412 -0.6193  1.3356
   74CHL1   C17 7906   3.795   3.062  18.007 -0.4570 -0.4962 -0.0317
   74CHL1   H17 7907   3.766   3.110  18.103  0.2234  1.0810 -0.5903
   74CHL1   C13 7908   3.703   2.934  17.991  0.3985  1.0361 -0.3150
   74CHL1   C18 7909   3.745   2.842  17.880  0.0264  0.2973  0.5219
   74CHL1  H18A 7910   3.837   2.783  17.896  1.3914  1.2801 -2.6987
   74CHL1  H18B 7911   3.665   2.770  17.853  1.4594 -0.6936 -1.3303
   74CHL1  H18C 7912   3.761   2.897  17.784 -5.9112  0.5645 -0.7190
   74CHL1   C12 7913   3.676   2.840  18.112  0.7005 -0.0160 -0.2200
   74CHL1  H12A 7914   3.758   2.766  18.130  0.3713 -0.2284  0.4725
   74CHL1  H12B 7915   3.675   2.895  18.209 -0.9116 -0.7200  0.1999
   74CHL1   C11 7916   3.559   2.744  18.087 -0.1239  0.4790  0.4729
   74CHL1  H11A 7917   3.587   2.663  18.016  1.6363  0.1011  1.5353
   74CHL1  H11B 7918   3.538   2.687  18.181 -0.9981  3.3452  2.1417
   74CHL1    C9 7919   3.423   2.813  18.041  0.2119  0.3761  0.3876
   74CHL1    H9 7920   3.388   2.884  18.120 -0.2035  0.7257 -0.1028
   74CHL1   C10 7921   3.301   2.720  18.022 -0.2189 -0.1067  0.2956
   74CHL1   C19 7922   3.344   2.601  17.935  0.4042  0.1428 -0.8316
   74CHL1  H19A 7923   3.392   2.643  17.844  1.9089 -1.4615 -0.8467
   74CHL1  H19B 7924   3.433   2.546  17.974  0.1609 -0.3698 -0.9993
   74CHL1  H19C 7925   3.270   2.524  17.904  0.9797 -0.8568  0.1859
   74CHL1    C1 7926   3.256   2.663  18.165 -0.3810 -0.5530 -0.1107
   74CHL1   H1A 7927   3.335   2.589  18.188  0.5957  1.0611  2.0551
   74CHL1   H1B 7928   3.262   2.754  18.228  0.4010  0.3305 -1.4121
   74CHL1    C2 7929   3.114   2.599  18.164 -1.1573 -0.0361 -0.0130
   74CHL1   H2A 7930   3.074   2.589  18.267 -0.7211  1.3542  0.3205
   74CHL1   H2B 7931   3.117   2.499  18.115  1.4013 -0.2331  0.4178
   74CHL1   C20 7932   3.949   3.040  18.003 -0.4439  0.0141  0.0917
   74CHL1   H20 7933   3.965   2.988  17.906 -1.7872  2.1064 -1.3366
   74CHL1   C21 7934   3.994   2.947  18.117 -0.3001  0.3231 -0.5889
   74CHL1  H21A 7935   4.104   2.931  18.122 -0.3823 -0.0330  0.4514
   74CHL1  H21B 7936   3.947   2.848  18.102  0.0521  0.2014 -0.8895
   74CHL1  H21C 7937   3.974   2.975  18.223 -0.3371 -1.4302 -0.0939
   74CHL1   C22 7938   4.031   3.173  18.010 -0.3756 -0.3541  0.8853
   74CHL1  H22A 7939   4.130   3.138  17.972 -0.1546  2.0074 -0.9771
   74CHL1  H22B 7940   3.992   3.234  17.925  1.3851  2.7866  2.1558
   74CHL1   C23 7941   4.037   3.271  18.125 -0.3910 -0.2315 -0.1924
   74CHL1  H23A 7942   3.940   3.311  18.161  0.8046  1.8102  1.0075
   74CHL1  H23B 7943   4.097   3.237  18.212 -1.0628  1.4376  0.9725
   74CHL1   C24 7944   4.121   3.393  18.072  0.8076  0.5290  0.5194
   74CHL1  H24A 7945   4.215   3.366  18.021  0.1607 -1.2917  0.2101
   74CHL1  H24B 7946   4.052   3.458  18.015  0.2820  1.4123  2.1029
   74CHL1   C25 7947   4.169   3.481  18.192  0.2718  0.4697 -0.4143
   74CHL1   H25 7948   4.083   3.479  18.262  1.3947  0.0358  1.0288
   74CHL1   C26 7949   4.285   3.427  18.265 -0.1736  0.6473 -0.2302
   74CHL1  H26A 7950   4.299   3.473  18.365  0.6864  1.4308 -0.6963
   74CHL1  H26B 7951   4.279   3.316  18.270 -3.9752  0.7587  0.4394
   74CHL1  H26C 7952   4.375   3.460  18.209 -0.4211  0.9398 -0.4627
   74CHL1   C27 7953   4.176   3.627  18.143 -0.1071  0.5630 -0.2691
   74CHL1  H27A 7954   4.238   3.645  18.052  1.6861  0.0625  0.8003
   74CHL1  H27B 7955   4.076   3.666  18.115  0.2107  1.3706 -0.3046
   74CHL1  H27C 7956   4.200   3.694  18.229 -1.6547 -0.6156  1.1445
   75CHL1    C3 7957   0.593   0.881  17.202 -1.6098  0.0256  0.5976
   75CHL1    H3 7958   0.594   0.977  17.148 -0.4929  0.1036  0.7277
   75CHL1    O3 7959   0.729   0.846  17.192 -0.1066  0.4147 -0.1154
   75CHL1   H3' 7960   0.741   0.768  17.246 -1.3522  0.2692 -0.0130
   75CHL1    C4 7961   0.555   0.892  17.346  0.0588 -0.3572  0.4951
   75CHL1   H4A 7962   0.584   0.798  17.397  0.9023 -0.4505 -0.1425
   75CHL1   H4B 7963   0.615   0.977  17.387 -0.0270  0.2312 -0.5600
   75CHL1    C5 7964   0.407   0.911  17.369  0.2491  0.4425 -0.1651
   75CHL1    C6 7965   0.359   1.015  17.433 -0.1708  0.0741 -0.0212
   75CHL1    H6 7966   0.436   1.077  17.481 -0.4719  0.6776 -0.3023
   75CHL1    C7 7967   0.213   1.050  17.445 -0.5665  0.0372  0.0967
   75CHL1   H7A 7968   0.186   1.088  17.546 -0.4948  1.1293 -0.2814
   75CHL1   H7B 7969   0.197   1.119  17.360 -0.3104  0.1694  0.1566
   75CHL1    C8 7970   0.127   0.926  17.415 -0.1860  0.2199  0.5677
   75CHL1    H8 7971   0.143   0.854  17.498 -1.9706 -0.1752  0.5940
   75CHL1   C14 7972  -0.017   0.967  17.402  0.3965  1.0135 -0.1366
   75CHL1   H14 7973  -0.024   1.034  17.313  1.1930  1.2371 -0.0436
   75CHL1   C15 7974  -0.075   1.047  17.519  0.4976  0.3657 -0.7005
   75CHL1  H15A 7975  -0.026   1.009  17.611  0.3626 -2.3254 -1.6576
   75CHL1  H15B 7976  -0.048   1.154  17.507  1.6706  0.6479  3.2438
   75CHL1   C16 7977  -0.223   1.032  17.500 -0.4256 -0.3983 -0.5043
   75CHL1  H16A 7978  -0.270   0.984  17.589  1.0819  0.9753  1.1273
   75CHL1  H16B 7979  -0.269   1.132  17.483  0.9974  0.4893  0.6332
   75CHL1   C17 7980  -0.243   0.936  17.374  0.2383  0.5422 -0.1036
   75CHL1   H17 7981  -0.234   1.000  17.284 -0.8131  0.0539 -0.5801
   75CHL1   C13 7982  -0.114   0.854  17.376 -0.2173 -0.5300 -0.3065
   75CHL1   C18 7983  -0.117   0.752  17.497  0.1210  0.0053 -0.3908
   75CHL1  H18A 7984  -0.017   0.705  17.505 -0.5457 -1.0776  2.4808
   75CHL1  H18B 7985  -0.143   0.800  17.594  0.7481 -0.7588  0.1628
   75CHL1  H18C 7986  -0.194   0.673  17.483 -2.0651  1.3900  2.8216
   75CHL1   C12 7987  -0.075   0.784  17.245  0.5132 -0.0821  0.0633
   75CHL1  H12A 7988  -0.131   0.691  17.221  1.2688 -0.2952 -0.9097
   75CHL1  H12B 7989  -0.093   0.855  17.161  1.3481  0.9844  0.7551
   75CHL1   C11 7990   0.071   0.739  17.246 -0.1941  0.3617  0.1342
   75CHL1  H11A 7991   0.075   0.659  17.323 -3.0153 -0.8038 -0.8215
   75CHL1  H11B 7992   0.098   0.691  17.150 -1.5550  0.8816 -0.5280
   75CHL1    C9 7993   0.170   0.851  17.284  0.3192 -0.0707  1.2164
   75CHL1    H9 7994   0.159   0.934  17.211  0.5842  1.3728  2.7358
   75CHL1   C10 7995   0.318   0.804  17.296 -0.8871  0.5096  0.1414
   75CHL1   C19 7996   0.328   0.670  17.364  0.2097 -0.3487  0.4171
   75CHL1  H19A 7997   0.433   0.637  17.376  0.0318 -0.8791  0.5477
   75CHL1  H19B 7998   0.292   0.678  17.469 -0.2365  1.2894  0.1742
   75CHL1  H19C 7999   0.272   0.599  17.300 -1.1048  2.2351 -1.5153
   75CHL1    C1 8000   0.369   0.786  17.146  0.4776 -0.2479 -0.5510
   75CHL1   H1A 8001   0.317   0.702  17.096 -0.6315  0.9500 -1.4917
   75CHL1   H1B 8002   0.329   0.880  17.102 -0.3874  0.4568  1.5899
   75CHL1    C2 8003   0.513   0.777  17.114 -0.5264 -0.1255 -0.4379
   75CHL1   H2A 8004   0.533   0.783  17.005 -0.2720  0.7432 -0.3554
   75CHL1   H2B 8005   0.550   0.676  17.141 -0.5881  0.2833  1.3101
   75CHL1   C20 8006  -0.376   0.880  17.342 -0.4274  0.2674 -0.4251
   75CHL1   H20 8007  -0.382   0.785  17.399  0.2348  0.7734  0.5143
   75CHL1   C21 8008  -0.392   0.835  17.196 -0.2878  0.1525 -0.1349
   75CHL1  H21A 8009  -0.497   0.807  17.170 -0.1993  0.2935 -0.6616
   75CHL1  H21B 8010  -0.330   0.745  17.173 -1.1958 -0.6489  0.4620
   75CHL1  H21C 8011  -0.362   0.919  17.130  0.7468  2.0744  2.6271
   75CHL1   C22 8012  -0.489   0.979  17.387 -0.2329 -0.7182 -0.2145
   75CHL1  H22A 8013  -0.482   1.011  17.494  0.8535 -0.8478 -0.2358
   75CHL1  H22B 8014  -0.496   1.062  17.314  1.5684  0.3401  0.7401
   75CHL1   C23 8015  -0.630   0.908  17.367  0.7117  0.8584 -0.6893
   75CHL1  H23A 8016  -0.645   0.914  17.257 -0.0364 -0.5832 -0.6849
   75CHL1  H23B 8017  -0.625   0.804  17.404  0.6939  0.3249 -2.1409
   75CHL1   C24 8018  -0.759   0.971  17.435 -0.0903 -0.5663  0.2257
   75CHL1  H24A 8019  -0.731   0.991  17.541  1.2181 -3.2187  0.4699
   75CHL1  H24B 8020  -0.779   1.068  17.386 -0.2495 -1.1483 -0.8761
   75CHL1   C25 8021  -0.888   0.891  17.428  0.1845 -0.7693  0.4102
   75CHL1   H25 8022  -0.911   0.876  17.320 -0.8851 -1.2640  0.6976
   75CHL1   C26 8023  -0.886   0.752  17.493 -0.6732  0.2872  0.7318
   75CHL1  H26A 8024  -0.975   0.693  17.462  1.7748 -1.4011 -4.0942
   75CHL1  H26B 8025  -0.803   0.697  17.443 -1.8501  2.1544 -3.7994
   75CHL1  H26C 8026  -0.871   0.755  17.603 -3.2049 -1.0032  1.1879
   75CHL1   C27 8027  -1.012   0.981  17.467 -0.3731  0.6845  0.7564
   75CHL1  H27A 8028  -1.008   1.075  17.408  2.0201  0.6415  0.7378
   75CHL1  H27B 8029  -1.109   0.930  17.452 -0.7180  1.6207 -0.3490
   75CHL1  H27C 8030  -0.998   1.001  17.576  3.9827 -4.1068  1.4645
   76CHL1    C3 8031   0.575   2.962  17.353 -0.1831 -0.8552  0.1041
   76CHL1    H3 8032   0.535   3.057  17.395  0.1061  0.4940 -2.4706
   76CHL1    O3 8033   0.684   2.987  17.270 -0.1212  0.3885 -0.0938
   76CHL1   H3' 8034   0.721   3.070  17.301  0.9907 -0.7682  1.8893
   76CHL1    C4 8035   0.616   2.880  17.468 -0.2547  0.4118 -0.2758
   76CHL1   H4A 8036   0.632   2.781  17.420  1.0353  0.5999 -0.2674
   76CHL1   H4B 8037   0.708   2.904  17.525 -2.0705  1.4313  2.4109
   76CHL1    C5 8038   0.502   2.858  17.563  0.0309 -0.3563 -0.2639
   76CHL1    C6 8039   0.506   2.900  17.687 -0.5545 -0.3022  0.0428
   76CHL1    H6 8040   0.601   2.943  17.721 -0.9440 -1.2786  2.5678
   76CHL1    C7 8041   0.395   2.887  17.790  0.0152 -0.2867  0.2113
   76CHL1   H7A 8042   0.429   2.846  17.887 -1.9164 -3.9378 -0.5053
   76CHL1   H7B 8043   0.334   2.978  17.808 -1.0691 -1.1308  0.8483
   76CHL1    C8 8044   0.286   2.789  17.739 -0.3739  0.5149 -0.1873
   76CHL1    H8 8045   0.326   2.685  17.749 -3.9069 -1.0035 -0.5645
   76CHL1   C14 8046   0.159   2.786  17.817 -0.4258  0.4191  0.2600
   76CHL1   H14 8047   0.100   2.877  17.795  1.9439  2.2703  1.0569
   76CHL1   C15 8048   0.165   2.772  17.971  0.3418  0.4808 -0.2815
   76CHL1  H15A 8049   0.234   2.686  17.985  0.6866  1.0067  1.4453
   76CHL1  H15B 8050   0.209   2.863  18.015 -0.1964  0.2218  0.8170
   76CHL1   C16 8051   0.029   2.731  18.017 -0.3103 -0.4923  0.6111
   76CHL1  H16A 8052   0.046   2.636  18.071 -0.8044  0.1941  2.0139
   76CHL1  H16B 8053  -0.023   2.792  18.093 -2.4301 -2.0902  0.5294
   76CHL1   C17 8054  -0.049   2.711  17.885 -0.2252 -0.7013  0.0170
   76CHL1   H17 8055  -0.099   2.807  17.861  0.9481  0.2791  1.3015
   76CHL1   C13 8056   0.059   2.680  17.776 -0.0711 -0.5541  0.8218
   76CHL1   C18 8057   0.113   2.529  17.792 -0.5901 -0.8460  0.1147
   76CHL1  H18A 8058   0.209   2.526  17.737  0.3806  3.3952  1.2353
   76CHL1  H18B 8059   0.133   2.511  17.900  0.7946  1.6199  0.3421
   76CHL1  H18C 8060   0.049   2.455  17.741 -1.4406  0.2993 -0.5093
   76CHL1   C12 8061   0.021   2.717  17.633  0.0068  0.5824 -0.7050
   76CHL1  H12A 8062  -0.060   2.645  17.611 -2.7591  2.5675  2.2052
   76CHL1  H12B 8063  -0.032   2.814  17.626 -1.3972 -0.2426 -2.1122
   76CHL1   C11 8064   0.135   2.720  17.537 -1.0296  0.3253  0.5887
   76CHL1  H11A 8065   0.163   2.613  17.529 -2.0853  0.0976 -0.4133
   76CHL1  H11B 8066   0.115   2.746  17.430 -0.3486  4.4225  1.2911
   76CHL1    C9 8067   0.253   2.808  17.589 -0.4496 -0.5246 -0.5939
   76CHL1    H9 8068   0.219   2.913  17.588 -0.3881 -0.4729  0.9420
   76CHL1   C10 8069   0.374   2.805  17.499 -0.6316  0.5566  0.7059
   76CHL1   C19 8070   0.393   2.655  17.466 -0.7721  0.2646  0.5718
   76CHL1  H19A 8071   0.321   2.606  17.397 -1.2182  1.8160 -0.1047
   76CHL1  H19B 8072   0.487   2.650  17.408  0.1036  0.9594  1.8953
   76CHL1  H19C 8073   0.411   2.593  17.556  0.7253 -0.2775 -0.0685
   76CHL1    C1 8074   0.343   2.870  17.364 -0.0523 -0.0287 -0.3398
   76CHL1   H1A 8075   0.268   2.813  17.304 -0.5424 -0.1505  0.3694
   76CHL1   H1B 8076   0.281   2.962  17.377 -1.1237 -0.7300 -0.3868
   76CHL1    C2 8077   0.465   2.885  17.276 -0.1677 -0.8171 -0.0862
   76CHL1   H2A 8078   0.436   2.943  17.185 -1.3029  1.1939  1.4839
   76CHL1   H2B 8079   0.509   2.786  17.250  0.5012 -0.6362  0.3322
   76CHL1   C20 8080  -0.172   2.612  17.894 -0.8836  0.2591 -0.4098
   76CHL1   H20 8081  -0.135   2.507  17.897 -1.6475 -0.0389 -1.1387
   76CHL1   C21 8082  -0.265   2.641  17.775 -0.7187  0.4745  0.3883
   76CHL1  H21A 8083  -0.252   2.738  17.724  0.1334  0.2484  0.1635
   76CHL1  H21B 8084  -0.370   2.618  17.805 -0.2290 -1.2240  0.9034
   76CHL1  H21C 8085  -0.239   2.572  17.692 -0.5921  1.4570 -0.4078
   76CHL1   C22 8086  -0.244   2.614  18.033 -0.3390  0.7862 -0.6075
   76CHL1  H22A 8087  -0.171   2.572  18.105 -1.2825 -0.3770 -0.3077
   76CHL1  H22B 8088  -0.265   2.720  18.061 -3.8387  0.0027  0.3034
   76CHL1   C23 8089  -0.378   2.537  18.045  0.0154 -0.4599 -0.0925
   76CHL1  H23A 8090  -0.456   2.601  17.999  1.2851  1.9327  0.9189
   76CHL1  H23B 8091  -0.361   2.436  18.001  2.1489  0.7607 -2.2445
   76CHL1   C24 8092  -0.419   2.528  18.191  0.5656  0.7196 -0.6879
   76CHL1  H24A 8093  -0.356   2.457  18.250  1.1206  2.2023  0.5694
   76CHL1  H24B 8094  -0.417   2.631  18.232  1.3077  0.7818 -0.8701
   76CHL1   C25 8095  -0.560   2.480  18.209  0.7513  0.0900  0.0727
   76CHL1   H25 8096  -0.631   2.555  18.168  0.2483  0.4901  1.5819
   76CHL1   C26 8097  -0.580   2.333  18.162  0.4467 -0.3691 -0.6082
   76CHL1  H26A 8098  -0.581   2.317  18.052 -1.3029 -0.3188 -0.6304
   76CHL1  H26B 8099  -0.484   2.282  18.182  0.6794 -0.8791 -2.7656
   76CHL1  H26C 8100  -0.666   2.281  18.209  0.9275  1.4655  2.5733
   76CHL1   C27 8101  -0.598   2.488  18.359  0.1813 -0.0550  0.0553
   76CHL1  H27A 8102  -0.643   2.588  18.379 -1.1052 -0.5258 -0.3616
   76CHL1  H27B 8103  -0.672   2.412  18.392  0.0960  1.0104  2.5737
   76CHL1  H27C 8104  -0.504   2.462  18.412  1.3564  2.3105 -0.7374
   77CHL1    C3 8105   3.796   4.400  13.818  0.6456  0.7939 -0.3169
   77CHL1    H3 8106   3.890   4.454  13.794  0.6959  0.2102 -1.5215
   77CHL1    O3 8107   3.789   4.278  13.742  0.4555  0.5640  0.4378
   77CHL1   H3' 8108   3.701   4.240  13.751  0.4883 -0.1983 -1.8583
   77CHL1    C4 8109   3.818   4.368  13.961  0.3753 -0.2355 -0.1041
   77CHL1   H4A 8110   3.753   4.282  13.989  1.2585 -1.1880 -0.9240
   77CHL1   H4B 8111   3.919   4.324  13.974  0.0275 -1.1649 -0.4341
   77CHL1    C5 8112   3.808   4.486  14.061 -0.0320 -1.0616  0.0476
   77CHL1    C6 8113   3.891   4.502  14.165 -0.9137  0.3230 -0.2923
   77CHL1    H6 8114   3.970   4.425  14.174 -0.7082  0.4761 -0.7430
   77CHL1    C7 8115   3.888   4.614  14.259 -0.5909 -0.0086 -0.3650
   77CHL1   H7A 8116   3.907   4.585  14.365  0.7444  1.8475 -0.0474
   77CHL1   H7B 8117   3.965   4.688  14.228 -0.9039  0.8767  0.8715
   77CHL1    C8 8118   3.756   4.684  14.258 -0.4230 -0.4229 -0.0943
   77CHL1    H8 8119   3.688   4.611  14.306 -0.4113 -0.1160  0.4003
   77CHL1   C14 8120   3.765   4.811  14.335  0.3732  0.1510 -0.7683
   77CHL1   H14 8121   3.830   4.870  14.267 -1.1312 -0.3131 -2.6853
   77CHL1   C15 8122   3.824   4.808  14.477 -0.2339  0.0558  0.3405
   77CHL1  H15A 8123   3.790   4.715  14.528  0.4034  0.0257  0.7161
   77CHL1  H15B 8124   3.935   4.805  14.476 -0.1342  1.8533  1.4695
   77CHL1   C16 8125   3.781   4.940  14.541  0.4422  0.1976  0.5937
   77CHL1  H16A 8126   3.756   4.922  14.648  2.5724 -1.9798  0.7886
   77CHL1  H16B 8127   3.861   5.017  14.549  0.8874 -0.0318 -1.2481
   77CHL1   C17 8128   3.668   5.001  14.449  0.5849  0.2630  0.5154
   77CHL1   H17 8129   3.723   5.074  14.385  0.3138 -0.6768 -0.8245
   77CHL1   C13 8130   3.632   4.890  14.353 -0.7607 -0.4912  1.1636
   77CHL1   C18 8131   3.531   4.800  14.422 -0.0568 -0.3058  0.6553
   77CHL1  H18A 8132   3.575   4.772  14.520  2.1976  0.3108 -0.1033
   77CHL1  H18B 8133   3.431   4.848  14.427 -0.8208 -1.9481  2.1993
   77CHL1  H18C 8134   3.520   4.707  14.361 -1.5338  1.3217 -1.7244
   77CHL1   C12 8135   3.597   4.933  14.207 -0.5909 -0.7571  0.6223
   77CHL1  H12A 8136   3.513   5.004  14.197 -0.3522 -0.6057 -0.3933
   77CHL1  H12B 8137   3.681   4.991  14.165 -1.4370  0.4904  0.6183
   77CHL1   C11 8138   3.584   4.815  14.112  0.5849  0.6804  0.2907
   77CHL1  H11A 8139   3.499   4.752  14.148 -0.4226  1.6130 -0.3824
   77CHL1  H11B 8140   3.564   4.853  14.009 -1.6212 -0.5910  0.1857
   77CHL1    C9 8141   3.702   4.712  14.113 -1.0452 -0.1915  0.2648
   77CHL1    H9 8142   3.780   4.777  14.070  0.5018 -0.6963  2.1725
   77CHL1   C10 8143   3.686   4.581  14.039  0.3417  0.1335  0.0854
   77CHL1   C19 8144   3.568   4.497  14.094 -0.4015 -0.3222  0.4800
   77CHL1  H19A 8145   3.582   4.481  14.203 -0.4454 -1.4970  0.3174
   77CHL1  H19B 8146   3.465   4.538  14.084  0.0771  1.7366  2.9374
   77CHL1  H19C 8147   3.565   4.394  14.054  0.0170 -0.3631  0.5509
   77CHL1    C1 8148   3.669   4.613  13.888 -0.8109 -0.1506  0.5796
   77CHL1   H1A 8149   3.575   4.670  13.872 -0.3805  0.1765 -1.0052
   77CHL1   H1B 8150   3.750   4.687  13.868 -2.5422  2.6655  3.0692
   77CHL1    C2 8151   3.677   4.494  13.785 -0.4127  0.1298 -0.1348
   77CHL1   H2A 8152   3.683   4.526  13.679 -1.5136 -0.0509 -0.2574
   77CHL1   H2B 8153   3.587   4.430  13.797  1.5313 -2.6327  0.7820
   77CHL1   C20 8154   3.557   5.064  14.535 -0.2647  0.8574 -0.2480
   77CHL1   H20 8155   3.505   4.982  14.588  0.2509  0.3543 -0.5072
   77CHL1   C21 8156   3.455   5.133  14.450 -0.9110  0.2943  0.1708
   77CHL1  H21A 8157   3.363   5.165  14.505 -1.0923  1.9184 -0.9968
   77CHL1  H21B 8158   3.423   5.059  14.373  1.0218 -0.2432 -0.1585
   77CHL1  H21C 8159   3.496   5.222  14.398  1.3905 -0.6925  0.1791
   77CHL1   C22 8160   3.616   5.154  14.646  0.1575 -0.2475 -0.2925
   77CHL1  H22A 8161   3.699   5.120  14.711 -0.0235 -2.2544 -1.0167
   77CHL1  H22B 8162   3.664   5.230  14.581 -1.7212  0.3968 -0.9894
   77CHL1   C23 8163   3.516   5.215  14.745  0.7256  0.3023 -0.9911
   77CHL1  H23A 8164   3.570   5.291  14.805 -1.0676  0.2478  0.7557
   77CHL1  H23B 8165   3.431   5.268  14.696  1.6450  3.5940  0.7121
   77CHL1   C24 8166   3.467   5.109  14.842 -0.3223 -0.2576 -0.0685
   77CHL1  H24A 8167   3.400   5.045  14.781  1.8925 -1.8819 -0.9511
   77CHL1  H24B 8168   3.558   5.055  14.876  0.4602  0.8202 -0.3877
   77CHL1   C25 8169   3.386   5.163  14.961  0.3888  0.1115  0.3212
   77CHL1   H25 8170   3.309   5.225  14.910 -2.3428 -3.3081 -0.0672
   77CHL1   C26 8171   3.302   5.041  15.020  0.6034 -0.3307  0.5171
   77CHL1  H26A 8172   3.367   4.961  15.062 -0.9468 -2.2807 -0.6221
   77CHL1  H26B 8173   3.230   5.076  15.097 -0.6094 -0.9332 -0.3127
   77CHL1  H26C 8174   3.246   4.995  14.937  1.8793  1.2877 -1.3256
   77CHL1   C27 8175   3.468   5.240  15.071  0.3300  0.0017 -0.5573
   77CHL1  H27A 8176   3.537   5.178  15.133  1.5622  1.1186 -0.7694
   77CHL1  H27B 8177   3.524   5.326  15.029 -2.4749  2.6122  0.7118
   77CHL1  H27C 8178   3.385   5.283  15.130  0.2312  0.0160 -0.7050
   78CHL1    C3 8179   0.674   0.036  16.370 -0.2878 -0.3287 -0.3886
   78CHL1    H3 8180   0.644   0.126  16.312  0.2670 -0.6368 -1.1731
   78CHL1    O3 8181   0.816   0.029  16.373  0.2766 -0.6532  0.4588
   78CHL1   H3' 8182   0.839   0.033  16.467 -1.6511 -3.1476  1.1349
   78CHL1    C4 8183   0.621   0.051  16.517 -0.1660 -0.4258  0.9456
   78CHL1   H4A 8184   0.667  -0.038  16.564 -0.5864 -0.6685  0.9040
   78CHL1   H4B 8185   0.655   0.151  16.552 -1.7520  1.3225 -2.0194
   78CHL1    C5 8186   0.469   0.051  16.523  0.1019 -0.1930 -0.2328
   78CHL1    C6 8187   0.403   0.154  16.589 -0.8206  0.4519  0.4187
   78CHL1    H6 8188   0.459   0.239  16.630 -0.0906  0.1124  0.1433
   78CHL1    C7 8189   0.252   0.170  16.598 -0.0756 -0.1359  0.0035
   78CHL1   H7A 8190   0.215   0.180  16.702 -1.6112 -0.0072 -0.5372
   78CHL1   H7B 8191   0.209   0.259  16.546 -0.5634  0.4337  1.3270
   78CHL1    C8 8192   0.183   0.038  16.542  0.0725 -0.2725  0.4450
   78CHL1    H8 8193   0.181  -0.043  16.618  1.2519 -0.8203 -0.0855
   78CHL1   C14 8194   0.035   0.070  16.512 -0.2911 -0.8426  0.0547
   78CHL1   H14 8195   0.043   0.151  16.437  1.5226 -0.2671  0.8115
   78CHL1   C15 8196  -0.031   0.138  16.631 -0.0482  0.8328 -0.0526
   78CHL1  H15A 8197  -0.016   0.075  16.721 -1.3466  0.6377  0.0508
   78CHL1  H15B 8198  -0.008   0.245  16.648 -2.8202  1.7834 -1.5649
   78CHL1   C16 8199  -0.181   0.124  16.599  0.0196 -0.0375  0.5219
   78CHL1  H16A 8200  -0.229   0.072  16.684  2.6458 -2.0098  0.9274
   78CHL1  H16B 8201  -0.226   0.226  16.591  0.9755  0.3780  0.2496
   78CHL1   C17 8202  -0.189   0.036  16.470 -0.0574  0.3015  0.8725
   78CHL1   H17 8203  -0.187   0.115  16.392 -2.5651  0.0320  0.4493
   78CHL1   C13 8204  -0.051  -0.037  16.464  0.8943  0.1982 -1.0464
   78CHL1   C18 8205  -0.063  -0.150  16.575 -0.3598  0.5689  0.1774
   78CHL1  H18A 8206  -0.124  -0.132  16.666  1.1870 -0.5711  1.4928
   78CHL1  H18B 8207  -0.104  -0.233  16.513  1.1590  0.1940 -0.3691
   78CHL1  H18C 8208   0.038  -0.179  16.611  0.0405 -0.1596 -1.4026
   78CHL1   C12 8209   0.003  -0.086  16.333 -0.5259 -0.6627 -0.2250
   78CHL1  H12A 8210  -0.057  -0.174  16.301 -3.1757 -0.0852  2.5735
   78CHL1  H12B 8211   0.001  -0.007  16.254  1.4450  0.3446  0.6577
   78CHL1   C11 8212   0.149  -0.133  16.358 -0.7106 -0.0760  0.2163
   78CHL1  H11A 8213   0.145  -0.225  16.420 -0.0901 -0.5228 -0.4021
   78CHL1  H11B 8214   0.180  -0.163  16.256 -3.1973 -0.9884 -0.3482
   78CHL1    C9 8215   0.250  -0.024  16.416 -0.3348 -0.1510 -0.8522
   78CHL1    H9 8216   0.241   0.064  16.348 -0.7197  2.4600  2.2993
   78CHL1   C10 8217   0.398  -0.062  16.433  0.2846 -0.5762 -0.1294
   78CHL1   C19 8218   0.397  -0.198  16.511  0.1024  0.2829 -0.2836
   78CHL1  H19A 8219   0.341  -0.268  16.445  1.7177  0.7796 -2.2995
   78CHL1  H19B 8220   0.499  -0.241  16.522 -0.2868 -0.6117 -0.1139
   78CHL1  H19C 8221   0.349  -0.195  16.611  2.4322  0.1982  0.9056
   78CHL1    C1 8222   0.468  -0.081  16.295  0.0415 -0.0018  0.5884
   78CHL1   H1A 8223   0.431  -0.182  16.268 -2.2226  0.3030  2.2033
   78CHL1   H1B 8224   0.422  -0.002  16.232 -1.8580  0.5013  2.4781
   78CHL1    C2 8225   0.617  -0.085  16.297  0.0147  0.0334  0.2895
   78CHL1   H2A 8226   0.659  -0.087  16.194  1.5530  0.0424  0.8982
   78CHL1   H2B 8227   0.653  -0.168  16.361  0.1177  0.9120  1.3865
   78CHL1   C20 8228  -0.323  -0.031  16.455 -0.2739  0.1691  0.3175
   78CHL1   H20 8229  -0.316  -0.130  16.505  1.4444 -1.4084 -2.7282
   78CHL1   C21 8230  -0.355  -0.070  16.309 -0.5291 -0.1546 -0.0268
   78CHL1  H21A 8231  -0.448  -0.129  16.294 -0.6001 -0.1824  0.4808
   78CHL1  H21B 8232  -0.273  -0.136  16.275  1.2415  0.4803  2.6537
   78CHL1  H21C 8233  -0.355   0.016  16.239  3.5024  0.2270  0.1699
   78CHL1   C22 8234  -0.448   0.030  16.524  0.3756 -0.1843  0.3520
   78CHL1  H22A 8235  -0.418   0.045  16.630  1.7307 -0.8139  0.0706
   78CHL1  H22B 8236  -0.474   0.128  16.477 -1.0221 -1.7532 -2.3729
   78CHL1   C23 8237  -0.571  -0.053  16.535  0.0897  0.6048  0.4526
   78CHL1  H23A 8238  -0.652   0.009  16.579 -1.0938 -0.2825 -0.4026
   78CHL1  H23B 8239  -0.606  -0.081  16.433  1.1764 -2.1468  0.7480
   78CHL1   C24 8240  -0.551  -0.181  16.626  0.2047  0.0911  0.0134
   78CHL1  H24A 8241  -0.494  -0.254  16.566 -0.6991 -0.1011 -0.6365
   78CHL1  H24B 8242  -0.494  -0.160  16.719 -1.8133 -0.9989  1.5840
   78CHL1   C25 8243  -0.682  -0.240  16.670  0.3843  0.4101 -0.6629
   78CHL1   H25 8244  -0.740  -0.169  16.733 -1.2778 -2.6356  1.4419
   78CHL1   C26 8245  -0.777  -0.278  16.552  0.1029 -0.2781  0.2732
   78CHL1  H26A 8246  -0.862  -0.333  16.597 -0.2118  0.5479  0.7055
   78CHL1  H26B 8247  -0.816  -0.181  16.515 -1.6743 -1.3979 -0.8753
   78CHL1  H26C 8248  -0.738  -0.348  16.476 -3.6106  0.2372 -2.3315
   78CHL1   C27 8249  -0.658  -0.357  16.765  1.1122 -1.4413  0.9444
   78CHL1  H27A 8250  -0.630  -0.447  16.706  3.4173 -0.2810  0.1842
   78CHL1  H27B 8251  -0.566  -0.334  16.822  0.9318 -0.9366  1.0348
   78CHL1  H27C 8252  -0.744  -0.386  16.830  0.8529 -2.4168  0.2002
   79CHL1    C3 8253   0.349   1.928  14.134 -0.2216 -0.2860 -0.9762
   79CHL1    H3 8254   0.303   2.025  14.106 -1.3429  0.1466  2.0627
   79CHL1    O3 8255   0.429   1.866  14.038  0.2413  0.2745  0.0146
   79CHL1   H3' 8256   0.431   1.776  14.071 -1.5684  0.1249 -0.1953
   79CHL1    C4 8257   0.432   1.949  14.263  0.7943 -0.1002 -0.3890
   79CHL1   H4A 8258   0.470   1.846  14.283  2.3921  1.0306  3.2283
   79CHL1   H4B 8259   0.528   2.005  14.257  1.3279 -0.9819 -0.4152
   79CHL1    C5 8260   0.343   1.994  14.374  0.0732  0.1529 -0.8149
   79CHL1    C6 8261   0.376   2.104  14.445 -0.0311 -0.6983 -0.2878
   79CHL1    H6 8262   0.467   2.160  14.421  0.1662 -0.9937 -0.2382
   79CHL1    C7 8263   0.299   2.153  14.563 -0.3381 -0.2697  0.3565
   79CHL1   H7A 8264   0.373   2.191  14.636  0.5985  0.4354 -0.9208
   79CHL1   H7B 8265   0.250   2.246  14.527  2.6282  1.7176  1.1360
   79CHL1    C8 8266   0.201   2.046  14.628 -0.0408  0.2685  0.6657
   79CHL1    H8 8267   0.277   1.982  14.678  1.5174  1.4923 -0.0672
   79CHL1   C14 8268   0.103   2.110  14.722 -0.3442  0.0273  0.0580
   79CHL1   H14 8269   0.037   2.172  14.657  1.8878  3.3837  0.7243
   79CHL1   C15 8270   0.162   2.205  14.833  0.7519  0.0131  0.3377
   79CHL1  H15A 8271   0.259   2.174  14.878  0.5622 -0.0964  0.6810
   79CHL1  H15B 8272   0.184   2.303  14.787 -2.0962  0.5798 -0.0121
   79CHL1   C16 8273   0.053   2.205  14.941  0.4289  0.2072 -0.8899
   79CHL1  H16A 8274   0.095   2.168  15.037  0.9344  1.1348 -0.7481
   79CHL1  H16B 8275   0.021   2.310  14.959 -1.6932 -0.4505 -0.5085
   79CHL1   C17 8276  -0.062   2.111  14.895 -0.4272 -0.1106  0.6788
   79CHL1   H17 8277  -0.128   2.168  14.826  1.3622 -0.2972 -1.2678
   79CHL1   C13 8278   0.014   2.012  14.799 -0.2449 -0.4714  0.9066
   79CHL1   C18 8279   0.102   1.921  14.891 -0.4040  0.0581  0.6617
   79CHL1  H18A 8280   0.154   1.982  14.969 -1.1369  3.0704 -1.0276
   79CHL1  H18B 8281   0.034   1.856  14.950 -1.2375  0.5727  0.2880
   79CHL1  H18C 8282   0.174   1.858  14.835  0.4258  1.5635 -0.0534
   79CHL1   C12 8283  -0.061   1.923  14.696 -0.4748  0.2704 -0.0781
   79CHL1  H12A 8284  -0.119   1.840  14.742 -0.5619  1.6474  2.5069
   79CHL1  H12B 8285  -0.125   1.989  14.634  2.4811  2.1409 -1.3642
   79CHL1   C11 8286   0.033   1.867  14.590 -0.3214  0.5303  0.5351
   79CHL1  H11A 8287   0.096   1.791  14.641  0.1232  0.5103 -0.0328
   79CHL1  H11B 8288  -0.025   1.819  14.509  1.8534 -1.1915 -0.0910
   79CHL1    C9 8289   0.128   1.962  14.526 -0.4749 -0.0559 -0.1438
   79CHL1    H9 8290   0.070   2.043  14.477 -1.4003 -1.0380 -0.7158
   79CHL1   C10 8291   0.226   1.897  14.409  0.0283 -0.4508 -0.5754
   79CHL1   C19 8292   0.278   1.753  14.452 -0.0278 -0.3586 -0.4029
   79CHL1  H19A 8293   0.337   1.772  14.544 -1.4746 -1.3543  0.7963
   79CHL1  H19B 8294   0.199   1.684  14.489 -1.0475  0.6720 -0.6244
   79CHL1  H19C 8295   0.355   1.708  14.386  1.1354  0.7753  0.1303
   79CHL1    C1 8296   0.143   1.882  14.275  0.0150  0.2743 -0.1250
   79CHL1   H1A 8297   0.055   1.819  14.299  0.5169 -0.2036  0.4946
   79CHL1   H1B 8298   0.094   1.976  14.241  0.6080  1.2039  1.4838
   79CHL1    C2 8299   0.227   1.835  14.159 -0.0411  0.5481 -0.4791
   79CHL1   H2A 8300   0.160   1.825  14.071  0.9970 -0.4896 -1.1876
   79CHL1   H2B 8301   0.254   1.732  14.188 -0.4474  0.5165 -0.2124
   79CHL1   C20 8302  -0.139   2.053  15.014 -0.2936 -0.0514 -0.4945
   79CHL1   H20 8303  -0.073   2.009  15.091 -1.2491  0.5238  0.6951
   79CHL1   C21 8304  -0.246   1.958  14.974  0.0755  0.3527  0.7250
   79CHL1  H21A 8305  -0.312   1.946  15.062 -1.3108 -2.3293 -0.5665
   79CHL1  H21B 8306  -0.202   1.858  14.957 -0.2565  0.4825 -1.2051
   79CHL1  H21C 8307  -0.303   1.994  14.886  2.5738  0.6659 -0.8862
   79CHL1   C22 8308  -0.211   2.170  15.092  0.7262 -0.1941  0.2171
   79CHL1  H22A 8309  -0.144   2.259  15.096  0.3456  0.1409 -0.5221
   79CHL1  H22B 8310  -0.278   2.213  15.013  2.5028  0.3750 -1.0391
   79CHL1   C23 8311  -0.270   2.140  15.229  0.8807 -0.3106 -0.0292
   79CHL1  H23A 8312  -0.332   2.048  15.234 -0.2281  0.4771  2.2387
   79CHL1  H23B 8313  -0.185   2.112  15.295 -2.4428 -4.4227  3.1058
   79CHL1   C24 8314  -0.336   2.260  15.290 -0.2247  0.6225 -0.0497
   79CHL1  H24A 8315  -0.252   2.326  15.319  1.8242 -1.3473 -1.2027
   79CHL1  H24B 8316  -0.401   2.313  15.217  0.0852  1.1968  0.0911
   79CHL1   C25 8317  -0.430   2.229  15.410 -0.3488 -0.2167  0.0776
   79CHL1   H25 8318  -0.487   2.139  15.379  2.8193 -2.2898 -0.1914
   79CHL1   C26 8319  -0.340   2.168  15.525 -0.1178 -0.1740  0.8596
   79CHL1  H26A 8320  -0.407   2.147  15.611 -2.4119  1.6959 -0.3863
   79CHL1  H26B 8321  -0.283   2.080  15.486 -1.6634 -1.0730  0.5331
   79CHL1  H26C 8322  -0.263   2.239  15.561 -0.3406  3.0204 -3.9972
   79CHL1   C27 8323  -0.524   2.345  15.454  0.4255  0.0894 -0.1024
   79CHL1  H27A 8324  -0.580   2.334  15.549  0.5621  1.3953  0.1500
   79CHL1  H27B 8325  -0.465   2.437  15.474  0.5412 -0.2234  1.0364
   79CHL1  H27C 8326  -0.599   2.360  15.373  1.1220  0.7331 -0.6417
   80CHL1    C3 8327   2.230   2.124  17.192 -0.0799 -0.3185  0.3765
   80CHL1    H3 8328   2.237   2.015  17.175 -0.9214 -0.4377  0.7112
   80CHL1    O3 8329   2.110   2.148  17.266  0.5335 -0.2775  0.1950
   80CHL1   H3' 8330   2.121   2.116  17.355  0.5732 -0.5337  0.0989
   80CHL1    C4 8331   2.353   2.178  17.272  0.2075  0.7355  0.0633
   80CHL1   H4A 8332   2.344   2.285  17.300 -2.1343  1.4545 -2.8990
   80CHL1   H4B 8333   2.345   2.112  17.360 -2.2505  2.4168  1.2215
   80CHL1    C5 8334   2.482   2.153  17.201 -0.6261 -0.3128  0.6834
   80CHL1    C6 8335   2.587   2.090  17.259  0.5741 -0.8246  0.6842
   80CHL1    H6 8336   2.576   2.060  17.364  0.3460  0.7922  1.1555
   80CHL1    C7 8337   2.724   2.063  17.197  0.5666 -0.5704  0.2913
   80CHL1   H7A 8338   2.813   2.102  17.251  1.7688  1.4064 -2.8254
   80CHL1   H7B 8339   2.736   1.954  17.179  0.2336 -0.6656  0.6389
   80CHL1    C8 8340   2.737   2.138  17.065 -0.4794 -0.0138  0.1025
   80CHL1    H8 8341   2.764   2.239  17.101 -2.5514  0.6093  0.0475
   80CHL1   C14 8342   2.854   2.076  16.979 -0.3291  0.2962 -0.4850
   80CHL1   H14 8343   2.817   1.974  16.953 -1.5177 -0.0395  2.1392
   80CHL1   C15 8344   2.993   2.072  17.053  0.5533  0.0093  0.4418
   80CHL1  H15A 8345   3.017   2.167  17.107  1.5000 -2.0053  3.8469
   80CHL1  H15B 8346   2.992   1.984  17.121 -2.0077 -1.8795 -1.8649
   80CHL1   C16 8347   3.089   2.050  16.935  0.1266 -0.4089 -0.2223
   80CHL1  H16A 8348   3.164   2.132  16.935 -1.8014  1.4550 -1.0947
   80CHL1  H16B 8349   3.136   1.951  16.950  1.2863  0.2906  1.0160
   80CHL1   C17 8350   3.012   2.071  16.801 -0.7156  0.0806 -0.1296
   80CHL1   H17 8351   2.972   1.969  16.786 -3.1752  0.7211  1.4710
   80CHL1   C13 8352   2.883   2.155  16.851 -0.5931  0.2454  0.2416
   80CHL1   C18 8353   2.925   2.305  16.851 -0.0025  0.2900 -0.5728
   80CHL1  H18A 8354   3.023   2.330  16.896 -0.0487  0.6899 -0.6954
   80CHL1  H18B 8355   2.918   2.350  16.750 -0.0722  1.2178 -0.1633
   80CHL1  H18C 8356   2.842   2.343  16.915  0.0111 -1.0518  0.3063
   80CHL1   C12 8357   2.758   2.143  16.765  0.2677  0.6672  0.5039
   80CHL1  H12A 8358   2.769   2.191  16.666 -2.4158 -0.7779 -0.5963
   80CHL1  H12B 8359   2.727   2.039  16.743 -0.6684  0.7213  1.4909
   80CHL1   C11 8360   2.639   2.206  16.839 -0.4990 -0.3582  0.0235
   80CHL1  H11A 8361   2.652   2.316  16.839 -0.2723 -0.3840 -0.2357
   80CHL1  H11B 8362   2.551   2.196  16.771  0.3252 -1.1105 -0.9700
   80CHL1    C9 8363   2.611   2.143  16.980 -0.4323 -0.3349  0.3808
   80CHL1    H9 8364   2.580   2.039  16.955 -1.5142  0.2409 -0.8034
   80CHL1   C10 8365   2.486   2.206  17.054  0.8150  0.5393 -0.3348
   80CHL1   C19 8366   2.503   2.361  17.063  0.3275 -0.5433 -0.1514
   80CHL1  H19A 8367   2.412   2.409  17.105  0.8080  0.8126 -0.5850
   80CHL1  H19B 8368   2.593   2.393  17.121  1.0959  0.5408 -1.8551
   80CHL1  H19C 8369   2.501   2.404  16.961 -4.5208 -0.9229 -0.4231
   80CHL1    C1 8370   2.360   2.175  16.973 -0.5753 -0.2765 -0.2681
   80CHL1   H1A 8371   2.362   2.233  16.878  2.1432  1.8283  0.9289
   80CHL1   H1B 8372   2.365   2.069  16.939 -0.1955 -0.1849 -0.5047
   80CHL1    C2 8373   2.231   2.191  17.052  0.3796 -0.4316 -0.8316
   80CHL1   H2A 8374   2.141   2.158  16.995 -0.0653 -1.0095  0.1809
   80CHL1   H2B 8375   2.224   2.301  17.065  1.9398 -0.6357  3.0502
   80CHL1   C20 8376   3.090   2.122  16.685  0.2060  0.6323  0.3906
   80CHL1   H20 8377   3.088   2.233  16.676 -0.0423  0.5628 -0.5689
   80CHL1   C21 8378   3.017   2.058  16.554 -0.2408 -0.0163 -0.5077
   80CHL1  H21A 8379   2.908   2.078  16.549  0.0009  1.2801 -1.4298
   80CHL1  H21B 8380   3.039   1.950  16.545 -1.1981 -0.4410  1.6461
   80CHL1  H21C 8381   3.064   2.102  16.463 -0.2371 -0.1557 -0.5721
   80CHL1   C22 8382   3.238   2.081  16.691  0.6123 -0.3169  0.0840
   80CHL1  H22A 8383   3.282   2.145  16.770  1.4942 -0.4501 -0.2918
   80CHL1  H22B 8384   3.245   1.975  16.724  2.0349 -0.1564  0.3579
   80CHL1   C23 8385   3.318   2.097  16.558  0.3133  0.8061  0.4809
   80CHL1  H23A 8386   3.414   2.046  16.580 -0.0866 -0.4663 -0.5279
   80CHL1  H23B 8387   3.275   2.041  16.472 -1.3881 -0.0784  1.8252
   80CHL1   C24 8388   3.334   2.242  16.506  0.5854 -0.2568 -0.6886
   80CHL1  H24A 8389   3.231   2.282  16.513  0.5946 -0.3201 -0.0878
   80CHL1  H24B 8390   3.406   2.295  16.572  0.6754 -1.3964  0.1590
   80CHL1   C25 8391   3.372   2.256  16.353 -0.9618  0.6383 -0.0523
   80CHL1   H25 8392   3.377   2.367  16.344  1.4624  0.5094 -0.9346
   80CHL1   C26 8393   3.514   2.200  16.334  0.1871 -0.7273  0.3763
   80CHL1  H26A 8394   3.513   2.091  16.352  1.0274 -0.8028 -0.0060
   80CHL1  H26B 8395   3.560   2.228  16.236 -1.9773  0.3790 -0.3887
   80CHL1  H26C 8396   3.586   2.233  16.412  1.1042 -0.0899 -0.6961
   80CHL1   C27 8397   3.263   2.207  16.259 -0.1406 -0.4705  0.2516
   80CHL1  H27A 8398   3.178   2.278  16.269  0.8592  0.3993  3.6328
   80CHL1  H27B 8399   3.312   2.211  16.159  0.5675 -2.0100  0.5194
   80CHL1  H27C 8400   3.237   2.102  16.283  0.6250 -0.0209  3.5666
   81CHL1    C3 8401   0.453   3.818  18.496 -0.0101 -0.5792 -0.6829
   81CHL1    H3 8402   0.370   3.770  18.440 -1.8257  1.2947  0.2250
   81CHL1    O3 8403   0.581   3.787  18.436 -0.0982 -0.0175  0.1632
   81CHL1   H3' 8404   0.647   3.828  18.493  0.9299 -2.1641  0.6114
   81CHL1    C4 8405   0.431   3.972  18.489 -0.7067  0.6778  0.1146
   81CHL1   H4A 8406   0.523   4.021  18.526  0.0013  0.3170 -1.1082
   81CHL1   H4B 8407   0.434   3.992  18.379 -0.4097 -0.6747 -0.1470
   81CHL1    C5 8408   0.309   4.007  18.566 -0.7638 -0.7282  0.0726
   81CHL1    C6 8409   0.209   4.078  18.505 -0.0860 -0.0960 -0.0306
   81CHL1    H6 8410   0.225   4.120  18.404  0.7812 -1.0172 -0.2983
   81CHL1    C7 8411   0.082   4.119  18.584 -0.0785 -0.5614  0.7544
   81CHL1   H7A 8412   0.046   4.219  18.555 -0.7854 -0.0768  3.0628
   81CHL1   H7B 8413  -0.000   4.055  18.546  1.8251 -0.7599 -3.6497
   81CHL1    C8 8414   0.090   4.113  18.737 -0.0028  0.0130 -0.5252
   81CHL1    H8 8415   0.143   4.206  18.769 -0.3526 -0.6095  2.0920
   81CHL1   C14 8416  -0.047   4.109  18.809  0.1466  0.4741 -0.4806
   81CHL1   H14 8417  -0.099   4.014  18.784 -0.2701  0.7685 -0.7391
   81CHL1   C15 8418  -0.139   4.222  18.771 -0.4221 -0.0831 -0.1893
   81CHL1  H15A 8419  -0.096   4.322  18.791  0.0829 -0.3336 -0.0019
   81CHL1  H15B 8420  -0.174   4.213  18.666 -3.9327  0.2285  0.8280
   81CHL1   C16 8421  -0.254   4.197  18.869 -0.9414 -0.1937  0.2300
   81CHL1  H16A 8422  -0.293   4.296  18.902 -2.7706 -0.6044 -0.5393
   81CHL1  H16B 8423  -0.338   4.144  18.818  0.2501  0.1726 -2.2782
   81CHL1   C17 8424  -0.201   4.110  18.988 -0.3540 -0.0452 -0.7812
   81CHL1   H17 8425  -0.232   4.008  18.955  1.3716 -1.2314  1.0446
   81CHL1   C13 8426  -0.052   4.110  18.963 -0.0260  0.4209 -0.5734
   81CHL1   C18 8427   0.009   4.238  19.027  0.6631 -0.4019  1.0662
   81CHL1  H18A 8428  -0.058   4.327  19.021  1.4445  0.1157 -0.5800
   81CHL1  H18B 8429   0.043   4.218  19.131  0.0479 -0.9097  1.1709
   81CHL1  H18C 8430   0.102   4.269  18.975  0.6681 -2.1047 -0.0161
   81CHL1   C12 8431   0.027   3.986  19.000  0.5119  1.1187  0.2270
   81CHL1  H12A 8432   0.042   3.979  19.110  0.9972 -0.2082  0.0875
   81CHL1  H12B 8433  -0.023   3.893  18.968 -0.1414  1.9754 -1.3042
   81CHL1   C11 8434   0.173   3.975  18.941  0.0765 -0.1447  0.3734
   81CHL1  H11A 8435   0.239   4.056  18.977  0.1307 -1.2529  3.0101
   81CHL1  H11B 8436   0.214   3.872  18.954 -0.4152 -0.8409 -2.7020
   81CHL1    C9 8437   0.162   3.986  18.784 -0.0446  0.5301  1.0153
   81CHL1    H9 8438   0.106   3.897  18.749  0.4839  1.3274 -2.2570
   81CHL1   C10 8439   0.303   3.969  18.710 -0.5928 -0.1795 -0.5286
   81CHL1   C19 8440   0.425   4.030  18.788  0.1367 -0.0827 -0.2642
   81CHL1  H19A 8441   0.429   3.980  18.887 -0.3251  0.6335  0.1291
   81CHL1  H19B 8442   0.523   4.007  18.740  1.1377  0.2595  1.5232
   81CHL1  H19C 8443   0.413   4.140  18.801 -0.6231 -0.1920  0.0318
   81CHL1    C1 8444   0.338   3.818  18.722  0.4016 -0.2011  0.6866
   81CHL1   H1A 8445   0.365   3.801  18.828  1.3094 -0.0232  0.4933
   81CHL1   H1B 8446   0.252   3.754  18.692 -0.1992  0.0168  1.8659
   81CHL1    C2 8447   0.461   3.766  18.646 -0.1119 -0.2995 -0.0358
   81CHL1   H2A 8448   0.466   3.656  18.642 -0.4363 -0.3552  0.8717
   81CHL1   H2B 8449   0.556   3.797  18.695  0.2942  0.9456 -1.5251
   81CHL1   C20 8450  -0.251   4.162  19.125 -0.0167 -1.0144  0.6699
   81CHL1   H20 8451  -0.197   4.256  19.148 -1.9664  0.1491  0.7178
   81CHL1   C21 8452  -0.219   4.063  19.236 -0.4100  0.1270 -0.0299
   81CHL1  H21A 8453  -0.111   4.069  19.263 -0.5014  1.4717  0.0925
   81CHL1  H21B 8454  -0.245   3.959  19.210 -0.1026 -0.0350  0.3005
   81CHL1  H21C 8455  -0.289   4.076  19.321 -1.9666  0.0206 -1.2626
   81CHL1   C22 8456  -0.410   4.187  19.114  0.0236  0.1514 -0.0139
   81CHL1  H22A 8457  -0.435   4.238  19.210  0.0685 -0.4093  0.3032
   81CHL1  H22B 8458  -0.437   4.251  19.028  0.7878  2.1038  1.1154
   81CHL1   C23 8459  -0.487   4.056  19.107  0.2203 -0.4524 -0.1035
   81CHL1  H23A 8460  -0.434   3.972  19.057  0.6578  0.9045 -2.0512
   81CHL1  H23B 8461  -0.495   4.029  19.214  0.1563 -1.2710 -0.3085
   81CHL1   C24 8462  -0.634   4.055  19.072  0.1744  0.4277  0.3511
   81CHL1  H24A 8463  -0.662   4.154  19.031  0.4101  0.5410  0.4632
   81CHL1  H24B 8464  -0.650   3.985  18.987  0.6337 -0.6967  1.1594
   81CHL1   C25 8465  -0.727   4.002  19.183 -0.2763 -0.1866  0.2463
   81CHL1   H25 8466  -0.678   3.926  19.248  1.8370  2.8817  2.5482
   81CHL1   C26 8467  -0.772   4.103  19.286 -0.4091 -0.8084  0.5836
   81CHL1  H26A 8468  -0.835   4.055  19.364 -0.1926 -0.8380  0.7424
   81CHL1  H26B 8469  -0.679   4.148  19.326 -1.3311  0.2177  1.6486
   81CHL1  H26C 8470  -0.838   4.183  19.246  0.1874 -0.2025  0.7935
   81CHL1   C27 8471  -0.843   3.935  19.117 -0.3017  0.6608  0.3681
   81CHL1  H27A 8472  -0.885   3.989  19.030  0.2016 -0.2470 -0.4489
   81CHL1  H27B 8473  -0.824   3.830  19.086 -1.1192  0.2241  1.2921
   81CHL1  H27C 8474  -0.920   3.934  19.197 -0.3237  1.1170  0.3556
   82CHL1    C3 8475   2.662   1.895  18.588 -0.6046 -0.0297 -0.1870
   82CHL1    H3 8476   2.729   1.855  18.509 -0.5278 -0.3485  0.0335
   82CHL1    O3 8477   2.532   1.886  18.544  0.3460  0.5602  0.9370
   82CHL1   H3' 8478   2.526   1.968  18.495  1.5522  1.2679  1.9067
   82CHL1    C4 8479   2.668   1.807  18.710  0.0404 -0.3335  0.4085
   82CHL1   H4A 8480   2.599   1.862  18.777 -0.0455  0.4532 -0.3195
   82CHL1   H4B 8481   2.625   1.705  18.703  0.8866 -0.7020  0.3518
   82CHL1    C5 8482   2.807   1.793  18.761 -0.6431  0.8534 -0.7913
   82CHL1    C6 8483   2.872   1.672  18.765  0.3425  0.4185 -0.5532
   82CHL1    H6 8484   2.817   1.585  18.727  1.0050  0.6416 -2.0875
   82CHL1    C7 8485   3.010   1.646  18.822 -0.6559 -0.5413  0.2802
   82CHL1   H7A 8486   3.006   1.570  18.904 -1.3654 -0.3848  0.3951
   82CHL1   H7B 8487   3.078   1.609  18.742 -1.3921 -2.0822  0.3357
   82CHL1    C8 8488   3.075   1.781  18.886  0.9800  0.4820  0.1501
   82CHL1    H8 8489   3.043   1.775  18.992 -2.0750 -0.0263 -0.6872
   82CHL1   C14 8490   3.222   1.765  18.882  0.5874 -0.7703  0.1782
   82CHL1   H14 8491   3.251   1.756  18.776 -2.5070 -2.6469 -0.6266
   82CHL1   C15 8492   3.279   1.640  18.958  0.6064  0.0596  0.0749
   82CHL1  H15A 8493   3.243   1.634  19.063  1.4968 -1.7250  0.3084
   82CHL1  H15B 8494   3.262   1.543  18.907  0.7684 -0.4629  0.9864
   82CHL1   C16 8495   3.434   1.670  18.959 -0.2261  0.0939 -0.3928
   82CHL1  H16A 8496   3.478   1.633  19.054 -1.0613  3.1282  1.3025
   82CHL1  H16B 8497   3.488   1.617  18.878  0.6067 -0.6909  0.6599
   82CHL1   C17 8498   3.443   1.829  18.935 -0.1034  0.0110  0.2117
   82CHL1   H17 8499   3.475   1.834  18.829 -0.7228  1.9883  0.0781
   82CHL1   C13 8500   3.304   1.883  18.934  0.1138  0.8065  0.1602
   82CHL1   C18 8501   3.252   1.908  19.076  0.2698 -0.7290 -1.4862
   82CHL1  H18A 8502   3.283   1.827  19.147  0.2465 -0.4552 -1.1600
   82CHL1  H18B 8503   3.299   2.004  19.108 -1.8457  0.2986 -1.3292
   82CHL1  H18C 8504   3.147   1.938  19.092  0.4311  0.8139 -3.0432
   82CHL1   C12 8505   3.269   2.007  18.845  0.0882 -0.5877  0.1817
   82CHL1  H12A 8506   3.320   2.102  18.875 -0.6208 -0.5943  1.5026
   82CHL1  H12B 8507   3.309   1.981  18.745  1.9448 -3.2815  1.4830
   82CHL1   C11 8508   3.113   2.035  18.839  0.4978 -0.9705  0.2763
   82CHL1  H11A 8509   3.075   2.078  18.934 -1.6082  2.1298 -1.8037
   82CHL1  H11B 8510   3.094   2.108  18.758 -3.6876  0.9230  2.6206
   82CHL1    C9 8511   3.032   1.907  18.802  0.1680  0.3545  0.0357
   82CHL1    H9 8512   3.081   1.887  18.704  0.3048  0.5757  0.0590
   82CHL1   C10 8513   2.878   1.931  18.785 -0.5928  0.2940 -0.1337
   82CHL1   C19 8514   2.821   1.979  18.921 -0.4515 -0.2605 -0.8718
   82CHL1  H19A 8515   2.712   1.962  18.935 -0.0697 -3.1519 -0.7293
   82CHL1  H19B 8516   2.881   1.921  18.995  0.8007  1.1407 -0.7420
   82CHL1  H19C 8517   2.854   2.083  18.940  0.3358 -0.5341 -0.6898
   82CHL1    C1 8518   2.855   2.035  18.669 -0.3109  0.3772 -0.4167
   82CHL1   H1A 8519   2.879   2.141  18.693  0.2302  0.4496 -1.2607
   82CHL1   H1B 8520   2.932   2.004  18.596  1.5087  0.2763  1.4679
   82CHL1    C2 8521   2.710   2.041  18.607  0.0181  0.3381 -0.2798
   82CHL1   H2A 8522   2.708   2.081  18.503  0.6210 -0.0150 -0.4323
   82CHL1   H2B 8523   2.638   2.100  18.667  1.1070 -1.5801  3.2222
   82CHL1   C20 8524   3.543   1.892  19.031  0.2203  0.1636 -0.6392
   82CHL1   H20 8525   3.510   1.880  19.137 -1.0738 -2.3909 -1.2326
   82CHL1   C21 8526   3.562   2.043  18.997  0.6772 -0.5405 -0.5670
   82CHL1  H21A 8527   3.654   2.094  19.032 -0.9564  2.7300 -0.5502
   82CHL1  H21B 8528   3.482   2.104  19.045 -0.2496 -1.1832 -1.2634
   82CHL1  H21C 8529   3.552   2.048  18.887  2.1541  2.7562 -0.6561
   82CHL1   C22 8530   3.692   1.837  19.016 -0.0260 -0.6389 -0.0438
   82CHL1  H22A 8531   3.695   1.742  18.959  2.1460  0.2958 -1.6216
   82CHL1  H22B 8532   3.746   1.903  18.944  0.7562 -1.9312 -0.6666
   82CHL1   C23 8533   3.766   1.824  19.152  0.3923 -0.0600 -0.2697
   82CHL1  H23A 8534   3.796   1.927  19.180 -1.8432  0.0367  2.1948
   82CHL1  H23B 8535   3.694   1.798  19.232  1.7162  0.9719  1.3246
   82CHL1   C24 8536   3.876   1.717  19.149  0.7371 -0.4547 -0.2657
   82CHL1  H24A 8537   3.829   1.617  19.143  0.8247 -0.5040 -0.1387
   82CHL1  H24B 8538   3.943   1.740  19.063 -1.0165  0.9335 -1.3512
   82CHL1   C25 8539   3.970   1.711  19.269 -0.0281  0.7097 -0.2624
   82CHL1   H25 8540   3.903   1.680  19.352  1.8474 -5.4140 -0.5742
   82CHL1   C26 8541   4.077   1.599  19.261 -0.3065  1.2342 -0.6676
   82CHL1  H26A 8542   4.136   1.602  19.355 -2.2892  2.0556  0.6046
   82CHL1  H26B 8543   4.016   1.506  19.255  2.1882 -0.4861 -1.1255
   82CHL1  H26C 8544   4.147   1.607  19.175  1.4143 -1.9638  0.2662
   82CHL1   C27 8545   4.056   1.837  19.291  0.1433  0.0275  0.8450
   82CHL1  H27A 8546   4.107   1.830  19.390 -0.1992  0.0104  1.0209
   82CHL1  H27B 8547   4.132   1.853  19.211  1.3056 -0.1932  1.8692
   82CHL1  H27C 8548   3.990   1.926  19.298  0.0682  0.1448 -0.9515
   83CHL1    C3 8549   0.682   1.566  15.435  1.3214  0.0402 -0.0853
   83CHL1    H3 8550   0.682   1.677  15.431 -0.0648  0.0888  0.7008
   83CHL1    O3 8551   0.807   1.535  15.393 -0.2571  0.3514  0.4283
   83CHL1   H3' 8552   0.815   1.440  15.390  1.2751  0.4331  1.0812
   83CHL1    C4 8553   0.660   1.501  15.569  0.1668  0.1212 -0.0614
   83CHL1   H4A 8554   0.673   1.391  15.556  0.3788  0.2282 -0.7427
   83CHL1   H4B 8555   0.732   1.515  15.652 -0.2560 -0.0673  0.3475
   83CHL1    C5 8556   0.519   1.543  15.618 -0.2014 -0.0871 -0.1577
   83CHL1    C6 8557   0.494   1.595  15.743  0.2414  0.6934  0.0524
   83CHL1    H6 8558   0.576   1.609  15.815  1.6988  1.8891 -1.7698
   83CHL1    C7 8559   0.354   1.617  15.796 -0.3488 -0.9141 -0.4585
   83CHL1   H7A 8560   0.341   1.567  15.894  0.8549  0.4962  0.4717
   83CHL1   H7B 8561   0.349   1.728  15.800 -0.4068 -0.9441  0.5579
   83CHL1    C8 8562   0.237   1.567  15.699 -0.0497  0.0735 -0.3452
   83CHL1    H8 8563   0.232   1.458  15.719  1.6951  0.3953  2.3112
   83CHL1   C14 8564   0.109   1.646  15.726  0.1571 -0.0843 -0.6396
   83CHL1   H14 8565   0.119   1.745  15.676 -2.6348  0.8035  0.3757
   83CHL1   C15 8566   0.072   1.678  15.872 -0.6586  0.0256  0.3604
   83CHL1  H15A 8567   0.114   1.595  15.934 -0.1234 -1.2701 -1.6355
   83CHL1  H15B 8568   0.118   1.773  15.906 -1.3667  1.0923 -1.5215
   83CHL1   C16 8569  -0.081   1.691  15.868 -0.0297  0.6195  0.3012
   83CHL1  H16A 8570  -0.118   1.608  15.932  0.9640  0.0486  0.1484
   83CHL1  H16B 8571  -0.126   1.784  15.910 -2.6897 -0.4510  0.0377
   83CHL1   C17 8572  -0.125   1.671  15.718  0.2901 -0.5302 -1.2260
   83CHL1   H17 8573  -0.109   1.775  15.683  1.4066 -0.2764 -0.0338
   83CHL1   C13 8574  -0.013   1.597  15.655 -0.3553 -0.7304  0.8858
   83CHL1   C18 8575  -0.039   1.444  15.691  0.2353 -0.1734  0.6196
   83CHL1  H18A 8576   0.048   1.382  15.659 -0.0041 -0.7672  1.1174
   83CHL1  H18B 8577  -0.049   1.433  15.801 -2.8002 -1.4532  0.3065
   83CHL1  H18C 8578  -0.130   1.398  15.647  0.4946 -3.1063  2.8652
   83CHL1   C12 8579   0.011   1.600  15.501  0.3860  0.4747  0.0595
   83CHL1  H12A 8580  -0.072   1.550  15.448  1.7004  0.5677 -2.2318
   83CHL1  H12B 8581   0.014   1.706  15.467  2.2962 -0.0714 -1.6772
   83CHL1   C11 8582   0.146   1.543  15.454 -0.2440 -0.1323 -0.3014
   83CHL1  H11A 8583   0.141   1.432  15.461  1.4560 -0.3078 -1.2673
   83CHL1  H11B 8584   0.163   1.574  15.348  0.7906  0.0330 -0.1025
   83CHL1    C9 8585   0.265   1.583  15.553 -0.0941  0.0051  0.2935
   83CHL1    H9 8586   0.287   1.691  15.540  1.2375  0.0335  2.3347
   83CHL1   C10 8587   0.407   1.517  15.515  0.3730 -0.3817 -0.1073
   83CHL1   C19 8588   0.383   1.365  15.504 -0.6147 -0.5413 -0.6252
   83CHL1  H19A 8589   0.347   1.336  15.403  1.7727 -1.8519 -1.1760
   83CHL1  H19B 8590   0.482   1.315  15.511  0.4019  1.5833  1.6077
   83CHL1  H19C 8591   0.327   1.321  15.589  0.4789 -0.1119  0.3526
   83CHL1    C1 8592   0.438   1.570  15.374 -0.2551  0.9419 -0.0071
   83CHL1   H1A 8593   0.361   1.543  15.299 -0.0712 -1.1491  0.4855
   83CHL1   H1B 8594   0.439   1.680  15.381 -0.5928  0.9943 -0.7448
   83CHL1    C2 8595   0.577   1.528  15.328 -0.1435 -0.4956 -0.5728
   83CHL1   H2A 8596   0.602   1.585  15.236  0.7926  1.4246  0.7910
   83CHL1   H2B 8597   0.588   1.420  15.306 -1.4527 -0.6680 -0.4702
   83CHL1   C20 8598  -0.271   1.628  15.696 -0.2470 -0.1856 -0.6515
   83CHL1   H20 8599  -0.285   1.528  15.744  3.4818 -0.0466  1.1324
   83CHL1   C21 8600  -0.308   1.632  15.554  0.1044  0.3588  0.5128
   83CHL1  H21A 8601  -0.419   1.624  15.550 -0.1247 -1.2431  4.6942
   83CHL1  H21B 8602  -0.273   1.542  15.500 -0.8058 -0.0827  0.6321
   83CHL1  H21C 8603  -0.281   1.729  15.508  0.2619 -0.1829 -0.5661
   83CHL1   C22 8604  -0.359   1.736  15.770 -0.1765  1.1641  0.3486
   83CHL1  H22A 8605  -0.329   1.750  15.875 -0.6930  0.6453  0.5765
   83CHL1  H22B 8606  -0.335   1.834  15.724  1.6100  0.1231 -1.1030
   83CHL1   C23 8607  -0.512   1.710  15.766 -0.2152 -0.8418  0.1427
   83CHL1  H23A 8608  -0.549   1.739  15.665 -2.1003  2.2907  1.5701
   83CHL1  H23B 8609  -0.519   1.600  15.778  1.1281 -1.0788 -0.9462
   83CHL1   C24 8610  -0.590   1.801  15.862 -0.2781 -0.4938  0.1006
   83CHL1  H24A 8611  -0.537   1.790  15.959 -0.6546  1.7385  0.5917
   83CHL1  H24B 8612  -0.575   1.905  15.826  1.0966 -0.6671  0.0997
   83CHL1   C25 8613  -0.745   1.792  15.874  0.4082  0.5583  0.4268
   83CHL1   H25 8614  -0.786   1.816  15.774  1.4533  0.7102  0.0225
   83CHL1   C26 8615  -0.780   1.649  15.914  0.3750  0.3709 -0.2004
   83CHL1  H26A 8616  -0.737   1.632  16.015 -0.9613  1.6710  0.6164
   83CHL1  H26B 8617  -0.889   1.644  15.931  0.5395  0.5467  0.9457
   83CHL1  H26C 8618  -0.742   1.572  15.843  1.5604  0.7736 -0.0238
   83CHL1   C27 8619  -0.804   1.895  15.971 -0.1793  0.0774  0.1561
   83CHL1  H27A 8620  -0.756   1.879  16.070  1.5788  0.2743 -0.6089
   83CHL1  H27B 8621  -0.773   1.996  15.935  0.8825 -0.7386 -1.3368
   83CHL1  H27C 8622  -0.914   1.879  15.971 -0.2211 -0.2207 -2.4782
   84CHL1    C3 8623   2.442   3.475  18.646  0.3382  0.1394 -0.4234
   84CHL1    H3 8624   2.436   3.509  18.752  0.7530 -0.1340 -0.3135
   84CHL1    O3 8625   2.306   3.470  18.594  0.1318 -0.0011  0.5874
   84CHL1   H3' 8626   2.307   3.391  18.539  1.7199  0.3949 -0.0089
   84CHL1    C4 8627   2.516   3.585  18.560 -0.8668 -0.2079  0.5773
   84CHL1   H4A 8628   2.494   3.553  18.455  1.5086  1.3872 -0.4868
   84CHL1   H4B 8629   2.465   3.681  18.580 -1.9722 -1.1082  2.2523
   84CHL1    C5 8630   2.668   3.596  18.590  0.2758 -0.2082 -0.0542
   84CHL1    C6 8631   2.720   3.706  18.623 -0.5699 -0.5150 -0.2618
   84CHL1    H6 8632   2.662   3.800  18.628 -1.6229 -1.2080  2.5834
   84CHL1    C7 8633   2.869   3.723  18.658  0.5485  0.6252 -1.2345
   84CHL1   H7A 8634   2.919   3.811  18.611 -0.2115  1.7997  0.0693
   84CHL1   H7B 8635   2.871   3.750  18.765  0.2551 -0.2310 -1.0073
   84CHL1    C8 8636   2.962   3.598  18.637 -0.2770  0.2672 -0.2029
   84CHL1    H8 8637   2.984   3.603  18.528 -0.6622 -1.7861 -0.4116
   84CHL1   C14 8638   3.094   3.611  18.711 -0.4109  0.1486 -0.1346
   84CHL1   H14 8639   3.065   3.595  18.818  0.2155 -0.1956 -0.0108
   84CHL1   C15 8640   3.178   3.738  18.713  0.4701 -0.4133  1.2913
   84CHL1  H15A 8641   3.191   3.764  18.606  1.0570  2.5355  1.9914
   84CHL1  H15B 8642   3.135   3.826  18.766  1.2822  0.9413 -0.2166
   84CHL1   C16 8643   3.319   3.684  18.757  0.2264  0.1869  0.2529
   84CHL1  H16A 8644   3.382   3.702  18.668  1.4776 -0.9059  0.8915
   84CHL1  H16B 8645   3.351   3.733  18.852  0.1402  0.4715  0.1361
   84CHL1   C17 8646   3.312   3.527  18.774  0.3047 -0.2923 -0.3639
   84CHL1   H17 8647   3.283   3.517  18.881 -1.8472 -1.3945 -0.9921
   84CHL1   C13 8648   3.192   3.486  18.687  0.2741 -0.2632  0.4365
   84CHL1   C18 8649   3.231   3.486  18.537 -0.8313 -0.1190  0.1384
   84CHL1  H18A 8650   3.145   3.504  18.470 -0.9979  2.1259  0.8737
   84CHL1  H18B 8651   3.296   3.575  18.525 -2.2208  0.9479  0.2120
   84CHL1  H18C 8652   3.281   3.390  18.511 -1.8244 -1.2434  2.0945
   84CHL1   C12 8653   3.112   3.357  18.728  1.3156 -1.2134  0.0358
   84CHL1  H12A 8654   3.175   3.265  18.739  0.8696 -1.5350 -0.0618
   84CHL1  H12B 8655   3.084   3.386  18.832  0.8727 -1.5008  0.0010
   84CHL1   C11 8656   2.983   3.349  18.646 -0.7180  0.3890 -0.2335
   84CHL1  H11A 8657   3.016   3.334  18.542  1.4223 -2.1607  0.7050
   84CHL1  H11B 8658   2.928   3.259  18.680  0.3448  0.6582  2.4779
   84CHL1    C9 8659   2.887   3.467  18.672  0.0790 -0.7696  1.0360
   84CHL1    H9 8660   2.870   3.473  18.782 -2.9240 -0.4433  0.6501
   84CHL1   C10 8661   2.743   3.456  18.606 -0.0544  0.0593 -0.0448
   84CHL1   C19 8662   2.764   3.394  18.467  0.2200  0.5318 -0.1459
   84CHL1  H19A 8663   2.802   3.290  18.471  1.3103  0.9020 -0.4009
   84CHL1  H19B 8664   2.663   3.391  18.421 -0.5368  1.7502  1.3196
   84CHL1  H19C 8665   2.845   3.446  18.411 -0.1529 -0.2061 -1.3982
   84CHL1    C1 8666   2.665   3.356  18.690  0.3116 -0.7874 -0.4047
   84CHL1   H1A 8667   2.702   3.251  18.687 -0.7832 -1.1945 -0.0018
   84CHL1   H1B 8668   2.658   3.387  18.796 -1.1030  1.5356 -1.1124
   84CHL1    C2 8669   2.516   3.340  18.640  0.5886 -0.3129  0.4407
   84CHL1   H2A 8670   2.467   3.277  18.718 -1.9912  0.0169 -0.8050
   84CHL1   H2B 8671   2.506   3.303  18.536  0.2412  0.4532  0.1957
   84CHL1   C20 8672   3.450   3.457  18.748  0.6765  0.6152 -0.4742
   84CHL1   H20 8673   3.468   3.478  18.640  0.3198  3.5636 -0.0474
   84CHL1   C21 8674   3.451   3.305  18.780  0.0916 -0.1178 -0.2534
   84CHL1  H21A 8675   3.402   3.294  18.879  0.1412 -1.6807 -0.3874
   84CHL1  H21B 8676   3.560   3.285  18.787  0.1643  0.5907  0.9631
   84CHL1  H21C 8677   3.401   3.252  18.696  0.8989  0.2538 -0.9855
   84CHL1   C22 8678   3.561   3.529  18.825  1.0996 -0.5550  0.5411
   84CHL1  H22A 8679   3.651   3.473  18.791  1.0066 -1.3806  1.5964
   84CHL1  H22B 8680   3.570   3.632  18.786 -1.6322 -0.2117  0.6102
   84CHL1   C23 8681   3.574   3.528  18.976  0.0306 -0.2136  0.0796
   84CHL1  H23A 8682   3.497   3.588  19.028  1.0750  1.1996  0.0450
   84CHL1  H23B 8683   3.541   3.430  19.016 -2.4601  1.2634  1.9270
   84CHL1   C24 8684   3.705   3.570  19.033 -0.0629 -0.7747 -0.2095
   84CHL1  H24A 8685   3.791   3.507  19.004  2.4008  2.0549  0.3973
   84CHL1  H24B 8686   3.730   3.669  18.989 -0.8933 -0.2734  0.4140
   84CHL1   C25 8687   3.728   3.560  19.188 -0.7085 -0.5000  1.3585
   84CHL1   H25 8688   3.640   3.605  19.240 -0.8762  0.5208  0.2232
   84CHL1   C26 8689   3.733   3.419  19.237  0.0879  0.8002 -0.0841
   84CHL1  H26A 8690   3.832   3.372  19.215  0.4636  1.2294  0.6689
   84CHL1  H26B 8691   3.708   3.419  19.345 -0.6568  0.4302 -0.2477
   84CHL1  H26C 8692   3.658   3.355  19.185  1.3589 -1.1180  0.3281
   84CHL1   C27 8693   3.860   3.634  19.221  0.0559  0.0070 -0.2307
   84CHL1  H27A 8694   3.876   3.625  19.331 -0.9707 -0.1621 -0.0869
   84CHL1  H27B 8695   3.942   3.582  19.167  0.5710 -0.9313  1.3564
   84CHL1  H27C 8696   3.848   3.739  19.188 -1.1031  0.7092  2.1811
   85CHL1    C3 8697   0.687   2.518  15.893  0.7620 -0.2187  0.4200
   85CHL1    H3 8698   0.631   2.547  15.802  0.2726 -0.7414  0.5527
   85CHL1    O3 8699   0.824   2.513  15.855  0.7821  0.0287 -0.1769
   85CHL1   H3' 8700   0.842   2.421  15.873 -0.7261  0.1134  2.1823
   85CHL1    C4 8701   0.669   2.617  16.010 -0.1714  0.3373 -0.5393
   85CHL1   H4A 8702   0.733   2.583  16.094  1.0416  1.0064 -1.1559
   85CHL1   H4B 8703   0.716   2.718  15.997 -1.1245  0.8699  0.0547
   85CHL1    C5 8704   0.525   2.617  16.055 -0.0464 -0.5191  0.1591
   85CHL1    C6 8705   0.464   2.735  16.072 -0.1650 -0.4358 -0.1644
   85CHL1    H6 8706   0.515   2.824  16.033 -0.7454 -0.6874 -1.5600
   85CHL1    C7 8707   0.325   2.762  16.128 -0.7527  0.4623  0.1317
   85CHL1   H7A 8708   0.336   2.843  16.203 -0.3827  0.6957 -0.1676
   85CHL1   H7B 8709   0.263   2.800  16.044 -1.7623 -0.0732  0.6221
   85CHL1    C8 8710   0.270   2.630  16.190  0.1897 -0.2515 -0.2851
   85CHL1    H8 8711   0.312   2.629  16.293 -1.1776 -1.9455  0.3147
   85CHL1   C14 8712   0.117   2.642  16.200 -0.6321 -0.4597  0.1828
   85CHL1   H14 8713   0.085   2.642  16.094  1.3903 -1.1286 -0.4815
   85CHL1   C15 8714   0.063   2.776  16.271 -0.4763  0.3128  0.7899
   85CHL1  H15A 8715   0.119   2.797  16.365  1.0518 -1.3341  0.3035
   85CHL1  H15B 8716   0.076   2.862  16.202  1.4423  0.7177  1.5975
   85CHL1   C16 8717  -0.079   2.737  16.297  0.4142 -0.0408 -0.2841
   85CHL1  H16A 8718  -0.095   2.760  16.405  0.4447  1.4225 -0.5695
   85CHL1  H16B 8719  -0.165   2.790  16.251 -1.8623 -3.0574  0.1763
   85CHL1   C17 8720  -0.099   2.584  16.274 -0.3057  0.6290  0.1732
   85CHL1   H17 8721  -0.143   2.560  16.175  0.7707 -0.8056  0.0029
   85CHL1   C13 8722   0.050   2.526  16.270 -0.2991  0.0767 -0.4919
   85CHL1   C18 8723   0.092   2.499  16.420 -0.0262  0.1027  1.1174
   85CHL1  H18A 8724   0.066   2.582  16.489 -1.9797  0.8342 -0.4124
   85CHL1  H18B 8725   0.028   2.414  16.453 -0.8121  0.2296 -0.0195
   85CHL1  H18C 8726   0.201   2.479  16.429 -0.0054 -2.0440 -2.1758
   85CHL1   C12 8727   0.079   2.394  16.195 -0.2741  0.5121 -0.0565
   85CHL1  H12A 8728   0.029   2.308  16.244 -0.5396  0.8301  0.2385
   85CHL1  H12B 8729   0.035   2.407  16.093 -1.9891 -2.4633  0.1996
   85CHL1   C11 8730   0.231   2.378  16.172  0.5091 -0.6157  0.5580
   85CHL1  H11A 8731   0.278   2.354  16.270  2.1004 -1.5496 -0.3859
   85CHL1  H11B 8732   0.245   2.282  16.116  0.2225 -0.6121  0.4780
   85CHL1    C9 8733   0.309   2.500  16.109 -0.2023 -0.1104  0.6014
   85CHL1    H9 8734   0.270   2.518  16.007  2.3627  2.2413 -0.0734
   85CHL1   C10 8735   0.466   2.486  16.102  0.8301  0.3133  0.5289
   85CHL1   C19 8736   0.521   2.437  16.233 -0.2562  0.0864 -0.3214
   85CHL1  H19A 8737   0.632   2.440  16.234 -0.2052 -1.0716  0.4736
   85CHL1  H19B 8738   0.478   2.497  16.316  2.3668 -0.2411  1.3690
   85CHL1  H19C 8739   0.497   2.329  16.247 -0.6785  0.0619 -1.1666
   85CHL1    C1 8740   0.499   2.384  15.992  0.5343 -0.0888 -0.0504
   85CHL1   H1A 8741   0.467   2.283  16.025  0.7728 -0.2331 -0.2491
   85CHL1   H1B 8742   0.441   2.414  15.902 -0.2001 -0.1749  0.3871
   85CHL1    C2 8743   0.638   2.375  15.926 -0.3129 -0.1692 -1.2184
   85CHL1   H2A 8744   0.654   2.307  15.840  0.3413 -0.6984 -0.6842
   85CHL1   H2B 8745   0.698   2.346  16.014 -2.8716  1.5015  1.2383
   85CHL1   C20 8746  -0.196   2.522  16.378 -1.2118 -0.7482  0.1632
   85CHL1   H20 8747  -0.155   2.545  16.479 -0.2930  0.0985 -0.3821
   85CHL1   C21 8748  -0.213   2.373  16.353 -0.3872  0.1346 -0.3188
   85CHL1  H21A 8749  -0.124   2.314  16.385 -0.4871 -0.2021 -0.6637
   85CHL1  H21B 8750  -0.227   2.352  16.244  0.3402  1.3243 -0.6677
   85CHL1  H21C 8751  -0.297   2.329  16.410  0.7537 -0.8475  0.6484
   85CHL1   C22 8752  -0.340   2.589  16.366 -0.0981  0.2150 -0.0658
   85CHL1  H22A 8753  -0.321   2.698  16.378  0.6827 -0.0043  0.8402
   85CHL1  H22B 8754  -0.381   2.566  16.266  0.9845  0.0268 -0.4825
   85CHL1   C23 8755  -0.447   2.555  16.472  0.2104 -0.2027  1.2384
   85CHL1  H23A 8756  -0.484   2.457  16.435  0.7317 -0.8892  2.4592
   85CHL1  H23B 8757  -0.403   2.551  16.574  1.3824  1.1299  0.8139
   85CHL1   C24 8758  -0.562   2.655  16.489  0.6690  0.2990  0.6566
   85CHL1  H24A 8759  -0.624   2.640  16.580  1.1252 -0.1624  0.8900
   85CHL1  H24B 8760  -0.525   2.760  16.485  0.1627  0.4546 -0.3501
   85CHL1   C25 8761  -0.660   2.659  16.367 -0.0042  0.7012 -0.3338
   85CHL1   H25 8762  -0.606   2.663  16.270  1.5319  0.7439  0.4980
   85CHL1   C26 8763  -0.758   2.532  16.367  0.1897 -0.5612  0.4441
   85CHL1  H26A 8764  -0.834   2.558  16.290  0.9224 -1.1174 -0.4942
   85CHL1  H26B 8765  -0.711   2.432  16.354 -1.8398 -1.5229  0.0121
   85CHL1  H26C 8766  -0.821   2.534  16.458  1.3538  1.5329  1.2658
   85CHL1   C27 8767  -0.744   2.788  16.373  0.2109 -0.0334 -0.9470
   85CHL1  H27A 8768  -0.781   2.809  16.475 -0.7392 -1.1027 -1.0640
   85CHL1  H27B 8769  -0.685   2.875  16.336 -1.0000  1.0425 -0.4160
   85CHL1  H27C 8770  -0.830   2.770  16.305  0.7916 -1.2018 -1.4071
   86CHL1    C3 8771   1.706   0.345  19.370 -0.0601  0.5885 -0.4955
   86CHL1    H3 8772   1.723   0.405  19.279 -2.0688  0.4238 -1.0352
   86CHL1    O3 8773   1.716   0.210  19.352 -0.0669  0.0424 -0.6457
   86CHL1   H3' 8774   1.753   0.177  19.434  2.0919  0.7098 -1.2914
   86CHL1    C4 8775   1.796   0.395  19.483 -0.0431  0.4438 -0.2527
   86CHL1   H4A 8776   1.780   0.328  19.570 -0.5983  0.6928 -0.1614
   86CHL1   H4B 8777   1.900   0.372  19.450 -0.6793  1.4113 -3.1963
   86CHL1    C5 8778   1.777   0.539  19.510  0.5556 -0.8376 -0.2928
   86CHL1    C6 8779   1.875   0.625  19.485 -0.4575  0.1406 -0.4190
   86CHL1    H6 8780   1.972   0.582  19.457  0.0488 -1.6986  3.5569
   86CHL1    C7 8781   1.884   0.768  19.522  0.5284 -0.2330  0.8146
   86CHL1   H7A 8782   1.985   0.792  19.563  1.0055  2.8277 -1.7838
   86CHL1   H7B 8783   1.880   0.829  19.430 -0.2389  0.3010  1.1887
   86CHL1    C8 8784   1.765   0.813  19.607 -0.0080 -0.7424 -0.7882
   86CHL1    H8 8785   1.792   0.778  19.710  0.3009 -0.9065 -0.9231
   86CHL1   C14 8786   1.744   0.963  19.608  0.0254  0.0682  0.1501
   86CHL1   H14 8787   1.703   0.990  19.509 -2.3872 -3.3396  0.0501
   86CHL1   C15 8788   1.867   1.054  19.640 -0.4929 -0.5378 -0.1894
   86CHL1  H15A 8789   1.921   1.015  19.729  1.1094 -0.9241 -1.2773
   86CHL1  H15B 8790   1.948   1.053  19.563  0.8859 -0.0953  1.1823
   86CHL1   C16 8791   1.806   1.188  19.672  0.3915  0.1922  0.5895
   86CHL1  H16A 8792   1.856   1.228  19.763  0.6511 -0.7404  0.8779
   86CHL1  H16B 8793   1.828   1.250  19.582 -1.0177 -1.9532 -1.3508
   86CHL1   C17 8794   1.653   1.167  19.690  0.5010 -0.2922 -0.0279
   86CHL1   H17 8795   1.619   1.181  19.585 -0.7089  1.8440  0.5858
   86CHL1   C13 8796   1.636   1.016  19.708  0.1095  0.0358  0.6144
   86CHL1   C18 8797   1.667   0.988  19.851  0.2132 -0.1182 -0.4317
   86CHL1  H18A 8798   1.701   0.883  19.860  1.3336  0.3880  2.3981
   86CHL1  H18B 8799   1.752   1.052  19.881  0.8534 -0.7154 -0.9539
   86CHL1  H18C 8800   1.582   0.993  19.923  1.3022  1.1643  0.8210
   86CHL1   C12 8801   1.501   0.960  19.658 -0.1912  0.8092 -0.1973
   86CHL1  H12A 8802   1.418   0.992  19.724  0.2404 -0.5766  1.0924
   86CHL1  H12B 8803   1.484   1.005  19.558  1.8640 -0.5137 -1.2118
   86CHL1   C11 8804   1.504   0.797  19.642  0.9620 -0.4018 -0.4203
   86CHL1  H11A 8805   1.494   0.761  19.747  2.2436 -0.1682 -0.2073
   86CHL1  H11B 8806   1.410   0.765  19.591 -0.4274  0.7325  1.3114
   86CHL1    C9 8807   1.635   0.745  19.569  0.4186 -0.6684 -0.1254
   86CHL1    H9 8808   1.626   0.776  19.463  2.4257  1.5863  0.2971
   86CHL1   C10 8809   1.644   0.581  19.561  0.3657 -0.0443  0.2257
   86CHL1   C19 8810   1.617   0.519  19.704 -0.2685 -0.6220 -0.8492
   86CHL1  H19A 8811   1.619   0.408  19.707 -0.2423 -0.6321  1.8604
   86CHL1  H19B 8812   1.695   0.559  19.773  0.3315 -1.9179 -0.7242
   86CHL1  H19C 8813   1.518   0.557  19.738 -1.5843 -0.8903 -4.0842
   86CHL1    C1 8814   1.536   0.522  19.457 -0.9948 -0.7212 -0.1007
   86CHL1   H1A 8815   1.439   0.531  19.512 -0.4621  0.2118  0.7096
   86CHL1   H1B 8816   1.527   0.580  19.363 -1.1789 -2.9317 -1.5321
   86CHL1    C2 8817   1.554   0.379  19.410 -0.7095  0.6529  0.4167
   86CHL1   H2A 8818   1.486   0.368  19.323 -0.5663  0.6830  0.3017
   86CHL1   H2B 8819   1.518   0.307  19.487  0.2679  1.3348  1.5549
   86CHL1   C20 8820   1.563   1.258  19.773  0.2555  0.2819  0.3919
   86CHL1   H20 8821   1.485   1.194  19.819  0.7901 -0.1276  0.7242
   86CHL1   C21 8822   1.494   1.359  19.675  0.1885 -0.2771 -0.0168
   86CHL1  H21A 8823   1.416   1.311  19.612 -0.1507  0.3947 -0.1101
   86CHL1  H21B 8824   1.569   1.402  19.605 -2.0893  1.4868 -1.4858
   86CHL1  H21C 8825   1.450   1.438  19.739 -1.9219 -1.6764  0.3719
   86CHL1   C22 8826   1.641   1.329  19.886  0.1967 -0.0725 -0.5295
   86CHL1  H22A 8827   1.712   1.259  19.936 -1.2279 -1.0857  0.1240
   86CHL1  H22B 8828   1.692   1.419  19.847 -0.9844  1.8663  2.1210
   86CHL1   C23 8829   1.541   1.389  19.987 -0.1659 -0.1556 -0.1637
   86CHL1  H23A 8830   1.496   1.479  19.940  1.8393 -0.0577 -2.0590
   86CHL1  H23B 8831   1.462   1.322  20.027 -0.1986  1.1296  2.0967
   86CHL1   C24 8832   1.627   1.433  20.113  0.8426 -0.2473  0.3619
   86CHL1  H24A 8833   1.681   1.341  20.144  2.1570  0.0705 -0.8597
   86CHL1  H24B 8834   1.704   1.508  20.085  0.0519  0.4375 -0.0206
   86CHL1   C25 8835   1.549   1.498  20.231 -0.0748  0.1253  0.2559
   86CHL1   H25 8836   1.465   1.437  20.269 -0.7214  0.8265 -0.0171
   86CHL1   C26 8837   1.640   1.525  20.360 -0.7265  0.1966 -0.3867
   86CHL1  H26A 8838   1.712   1.609  20.345 -0.0331 -0.0323  1.3906
   86CHL1  H26B 8839   1.569   1.558  20.439 -0.2210  0.2908  0.0330
   86CHL1  H26C 8840   1.697   1.436  20.394 -0.8160  0.7319  1.2432
   86CHL1   C27 8841   1.492   1.632  20.184  0.0166  0.0617  0.6380
   86CHL1  H27A 8842   1.441   1.689  20.265  0.0841 -1.0107  1.4554
   86CHL1  H27B 8843   1.569   1.706  20.154  1.7676 -1.9628 -0.0538
   86CHL1  H27C 8844   1.412   1.617  20.108  0.9224 -1.7257 -0.0099
   87CHL1    C3 8845   2.732   3.487  19.147  0.4197  0.0273 -0.7604
   87CHL1    H3 8846   2.785   3.563  19.208  1.1098 -2.1425  1.5116
   87CHL1    O3 8847   2.639   3.539  19.056 -0.7345  0.1310 -0.1236
   87CHL1   H3' 8848   2.566   3.566  19.112 -0.8108 -0.8561  0.2676
   87CHL1    C4 8849   2.833   3.413  19.056  0.2005  0.4619 -0.3381
   87CHL1   H4A 8850   2.785   3.331  18.999  2.2720 -2.3283  1.6588
   87CHL1   H4B 8851   2.868   3.487  18.981  0.5420 -2.0190 -2.7879
   87CHL1    C5 8852   2.943   3.348  19.139  0.2893 -0.3211 -0.1029
   87CHL1    C6 8853   3.071   3.370  19.108  0.4496 -0.1266 -0.3140
   87CHL1    H6 8854   3.102   3.428  19.021 -1.9030 -1.1633 -1.9628
   87CHL1    C7 8855   3.174   3.297  19.183 -0.4899 -0.2122  0.7180
   87CHL1   H7A 8856   3.250   3.259  19.111 -1.7581  0.1543 -0.8624
   87CHL1   H7B 8857   3.218   3.373  19.251 -0.5546 -1.5720  2.3681
   87CHL1    C8 8858   3.130   3.192  19.293 -0.2812 -0.1495  0.3030
   87CHL1    H8 8859   3.107   3.093  19.249 -0.5523  0.0131  0.0702
   87CHL1   C14 8860   3.248   3.171  19.394  0.0578  0.4233  0.2176
   87CHL1   H14 8861   3.257   3.270  19.443 -1.3832  0.6744  0.0104
   87CHL1   C15 8862   3.388   3.139  19.350 -0.1401 -0.5734  0.8469
   87CHL1  H15A 8863   3.374   3.058  19.275 -1.1355  1.0884 -0.8318
   87CHL1  H15B 8864   3.419   3.236  19.305 -3.4666  0.5588  0.7600
   87CHL1   C16 8865   3.461   3.088  19.474  0.1130 -0.2446  0.4626
   87CHL1  H16A 8866   3.509   2.990  19.453 -0.7127 -0.6289  0.3233
   87CHL1  H16B 8867   3.538   3.160  19.509 -0.3613  0.6032 -0.1948
   87CHL1   C17 8868   3.348   3.080  19.588 -0.2450  0.3232  0.0127
   87CHL1   H17 8869   3.350   3.182  19.630 -1.6276  0.0745  0.7630
   87CHL1   C13 8870   3.215   3.078  19.509 -0.5758 -0.6253 -0.6973
   87CHL1   C18 8871   3.188   2.946  19.441 -0.4678  0.3050 -0.5262
   87CHL1  H18A 8872   3.265   2.906  19.372  0.9568  1.6762  0.1991
   87CHL1  H18B 8873   3.151   2.880  19.522 -1.9412  0.4197 -1.0752
   87CHL1  H18C 8874   3.101   2.950  19.373  0.3988 -1.7585 -1.8326
   87CHL1   C12 8875   3.079   3.124  19.582 -0.2216 -0.0370 -0.0284
   87CHL1  H12A 8876   3.046   3.045  19.652  1.4280 -0.9655 -0.2723
   87CHL1  H12B 8877   3.100   3.223  19.629  0.2476 -0.3456  0.4095
   87CHL1   C11 8878   2.971   3.147  19.485  0.2442  0.3690  0.4361
   87CHL1  H11A 8879   2.930   3.053  19.443 -0.3535 -0.3704  2.5269
   87CHL1  H11B 8880   2.889   3.184  19.551 -1.5839 -0.2024 -1.4445
   87CHL1    C9 8881   3.003   3.244  19.367  0.0855 -0.2063 -0.0761
   87CHL1    H9 8882   3.036   3.343  19.406  0.9628 -0.6057  0.2173
   87CHL1   C10 8883   2.886   3.275  19.266 -1.0984  0.2130  0.3364
   87CHL1   C19 8884   2.835   3.144  19.204 -0.2493 -0.5395  0.0738
   87CHL1  H19A 8885   2.754   3.163  19.130  1.5881 -0.8164 -2.1204
   87CHL1  H19B 8886   2.922   3.096  19.155  0.5742 -1.6496  2.4824
   87CHL1  H19C 8887   2.797   3.072  19.279 -1.7024  0.6802  0.5773
   87CHL1    C1 8888   2.777   3.342  19.343 -0.2096  1.0702  0.2366
   87CHL1   H1A 8889   2.736   3.283  19.428 -2.4312 -0.1237 -1.5361
   87CHL1   H1B 8890   2.816   3.435  19.389 -1.3440  2.3257 -1.2482
   87CHL1    C2 8891   2.665   3.399  19.251 -0.5008  0.3361 -0.5020
   87CHL1   H2A 8892   2.593   3.448  19.320  1.2878  3.3562 -0.5970
   87CHL1   H2B 8893   2.606   3.330  19.188 -1.3356  0.5767  0.0028
   87CHL1   C20 8894   3.373   2.975  19.694  0.6145  0.5559  0.4185
   87CHL1   H20 8895   3.364   2.870  19.659  0.2127  0.3667  1.0725
   87CHL1   C21 8896   3.266   2.992  19.815  0.3418 -0.3155 -0.0173
   87CHL1  H21A 8897   3.254   3.097  19.847 -1.2938 -0.0324 -1.3845
   87CHL1  H21B 8898   3.297   2.940  19.908 -2.0000 -1.0900  0.4108
   87CHL1  H21C 8899   3.164   2.949  19.803 -0.0122  0.4162  0.3374
   87CHL1   C22 8900   3.513   2.988  19.756 -1.1063  0.4624  0.5179
   87CHL1  H22A 8901   3.585   2.960  19.676 -2.6505 -1.0782 -0.4008
   87CHL1  H22B 8902   3.529   3.094  19.787 -0.4536  0.3524  0.5779
   87CHL1   C23 8903   3.546   2.898  19.871 -0.3402 -0.1072  0.5063
   87CHL1  H23A 8904   3.486   2.923  19.961  1.2159  1.0531  1.2609
   87CHL1  H23B 8905   3.509   2.804  19.825 -3.1632  1.2787 -0.3750
   87CHL1   C24 8906   3.702   2.885  19.891  0.7025  0.0335  0.1564
   87CHL1  H24A 8907   3.747   2.860  19.793  1.5658  0.6082  0.3889
   87CHL1  H24B 8908   3.750   2.980  19.922 -0.0020  0.0898  1.1118
   87CHL1   C25 8909   3.744   2.769  19.982 -1.1779  0.9341 -0.3842
   87CHL1   H25 8910   3.674   2.685  19.963  0.5640 -0.3044 -1.5312
   87CHL1   C26 8911   3.890   2.722  19.956  0.7714 -0.3144 -0.0010
   87CHL1  H26A 8912   3.921   2.639  20.023  2.2779  0.8325  0.8013
   87CHL1  H26B 8913   3.887   2.695  19.849 -0.6551 -0.2780  0.0187
   87CHL1  H26C 8914   3.951   2.814  19.973 -0.6746  0.7710 -0.4323
   87CHL1   C27 8915   3.712   2.804  20.125 -0.3962 -0.6162 -0.4032
   87CHL1  H27A 8916   3.772   2.893  20.155  1.0537 -1.1831 -1.4970
   87CHL1  H27B 8917   3.609   2.841  20.141 -0.1941  0.1894 -0.8953
   87CHL1  H27C 8918   3.713   2.719  20.196 -2.8641 -1.5432 -1.3862
   88CHL1    C3 8919   0.909   2.270  17.895  0.2116 -0.1161 -0.5423
   88CHL1    H3 8920   0.853   2.366  17.893  0.2360 -0.0520 -3.3957
   88CHL1    O3 8921   1.005   2.299  17.798  0.4531  0.3570 -0.0967
   88CHL1   H3' 8922   1.054   2.376  17.828  0.0002  1.3426 -1.7879
   88CHL1    C4 8923   0.976   2.233  18.027  0.1351  0.0131 -0.2866
   88CHL1   H4A 8924   1.039   2.143  18.012  0.5064  0.6574 -3.3853
   88CHL1   H4B 8925   1.039   2.318  18.061 -2.7336  2.7997 -1.3930
   88CHL1    C5 8926   0.867   2.212  18.133 -0.4588 -0.5906  1.0962
   88CHL1    C6 8927   0.862   2.289  18.243  0.6267 -0.6697 -0.1606
   88CHL1    H6 8928   0.944   2.362  18.250  0.6047 -0.3714 -2.2889
   88CHL1    C7 8929   0.760   2.269  18.355 -0.8822 -0.0871  0.5466
   88CHL1   H7A 8930   0.805   2.284  18.456 -0.6643 -0.0587  0.4467
   88CHL1   H7B 8931   0.689   2.351  18.333 -0.0898 -0.0201 -1.9857
   88CHL1    C8 8932   0.678   2.139  18.335 -1.4132  0.8072  0.6297
   88CHL1    H8 8933   0.738   2.054  18.373 -2.2314 -0.7950 -1.4877
   88CHL1   C14 8934   0.556   2.147  18.432 -0.8257 -0.7519 -0.0316
   88CHL1   H14 8935   0.495   2.233  18.398 -0.5008 -0.2299  0.6893
   88CHL1   C15 8936   0.579   2.170  18.579  0.6820  0.2267 -0.2815
   88CHL1  H15A 8937   0.654   2.094  18.611  0.1461 -0.2825 -0.2175
   88CHL1  H15B 8938   0.612   2.271  18.610  0.4792  0.3690 -0.5261
   88CHL1   C16 8939   0.446   2.133  18.645 -0.4190  0.5496  0.0297
   88CHL1  H16A 8940   0.458   2.065  18.732 -1.7567 -1.1705 -1.0692
   88CHL1  H16B 8941   0.387   2.222  18.676 -1.1999  0.5205 -1.3053
   88CHL1   C17 8942   0.367   2.056  18.530 -0.3326 -0.4091 -0.1538
   88CHL1   H17 8943   0.303   2.133  18.480  0.4820  0.4434  0.0844
   88CHL1   C13 8944   0.464   2.025  18.417  1.1855 -0.5907 -0.7088
   88CHL1   C18 8945   0.539   1.890  18.442 -0.9318  0.3238  0.4107
   88CHL1  H18A 8946   0.604   1.854  18.359 -1.0718 -1.3960  1.0052
   88CHL1  H18B 8947   0.591   1.885  18.540 -1.5211 -1.6895  0.6661
   88CHL1  H18C 8948   0.464   1.809  18.453 -0.1237 -0.6050 -0.7772
   88CHL1   C12 8949   0.413   2.029  18.274  0.2215  0.0612  0.5287
   88CHL1  H12A 8950   0.350   1.942  18.249 -0.6480  1.0631 -0.8948
   88CHL1  H12B 8951   0.349   2.118  18.253  0.4861  0.0136 -0.4947
   88CHL1   C11 8952   0.525   2.018  18.167 -0.3916 -0.2893  0.6006
   88CHL1  H11A 8953   0.568   1.916  18.161  3.4408  1.1969 -0.1406
   88CHL1  H11B 8954   0.479   2.049  18.071  0.6249 -0.6013  0.0086
   88CHL1    C9 8955   0.640   2.129  18.187 -0.1601 -0.3776  0.1875
   88CHL1    H9 8956   0.594   2.229  18.169 -1.4056 -0.2622  3.4075
   88CHL1   C10 8957   0.755   2.107  18.089 -0.2149 -0.1249 -0.3072
   88CHL1   C19 8958   0.832   1.974  18.094 -0.8596  0.1387 -0.5631
   88CHL1  H19A 8959   0.902   1.962  18.180 -3.2293 -2.2155  1.2151
   88CHL1  H19B 8960   0.754   1.895  18.097  0.0699 -0.7631  1.1329
   88CHL1  H19C 8961   0.883   1.962  17.996  2.3260  0.2999  0.9663
   88CHL1    C1 8962   0.700   2.121  17.945  0.5905 -0.2439  0.6241
   88CHL1   H1A 8963   0.662   2.024  17.906  2.2767 -0.1532 -1.3721
   88CHL1   H1B 8964   0.613   2.189  17.939 -0.8968 -2.1472 -0.6572
   88CHL1    C2 8965   0.807   2.165  17.846  0.5707 -0.3334  0.2148
   88CHL1   H2A 8966   0.753   2.203  17.757  1.8782  0.1048 -0.4150
   88CHL1   H2B 8967   0.869   2.078  17.816  0.5422 -0.9660  1.8592
   88CHL1   C20 8968   0.273   1.955  18.593 -0.0481  0.1602  0.1323
   88CHL1   H20 8969   0.324   1.877  18.655  0.1896 -0.4841 -0.8427
   88CHL1   C21 8970   0.195   1.888  18.481  0.2429 -0.7168 -0.2169
   88CHL1  H21A 8971   0.132   1.964  18.431  0.4993  0.8221  1.6483
   88CHL1  H21B 8972   0.135   1.805  18.523 -0.5859 -0.5626 -1.0719
   88CHL1  H21C 8973   0.260   1.848  18.400  1.6454  2.1044 -0.5879
   88CHL1   C22 8974   0.171   2.024  18.690  0.7233  1.1504 -0.2670
   88CHL1  H22A 8975   0.233   2.084  18.759  2.1369  1.7987 -2.0238
   88CHL1  H22B 8976   0.115   2.102  18.634 -0.8887  1.0652  1.1292
   88CHL1   C23 8977   0.080   1.920  18.764  0.0548  0.1814  0.1254
   88CHL1  H23A 8978   0.047   1.848  18.686  3.0542 -0.0652 -1.0613
   88CHL1  H23B 8979   0.145   1.857  18.829 -1.6649 -1.0711  0.7046
   88CHL1   C24 8980  -0.027   1.991  18.837 -0.0911 -0.5304 -0.5624
   88CHL1  H24A 8981   0.012   2.053  18.921 -2.6690  0.6740 -0.1728
   88CHL1  H24B 8982  -0.084   2.067  18.779  0.5096  1.2395  1.0642
   88CHL1   C25 8983  -0.145   1.907  18.879 -0.1406  0.0560 -0.2791
   88CHL1   H25 8984  -0.164   1.844  18.790 -0.5852 -0.0769 -0.0924
   88CHL1   C26 8985  -0.099   1.816  18.996 -0.8891  0.0628  0.0098
   88CHL1  H26A 8986  -0.056   1.868  19.084  0.0791 -1.2937  0.3827
   88CHL1  H26B 8987  -0.175   1.740  19.023 -0.2559 -0.3755  0.6015
   88CHL1  H26C 8988  -0.017   1.752  18.956 -1.5743 -0.5062 -0.5008
   88CHL1   C27 8989  -0.272   1.986  18.924  0.2135  0.1973  0.1589
   88CHL1  H27A 8990  -0.356   1.914  18.934  1.6289 -1.3196  2.2500
   88CHL1  H27B 8991  -0.269   2.043  19.019 -2.7549 -0.6104  0.8236
   88CHL1  H27C 8992  -0.301   2.054  18.842  1.5293 -1.6941 -1.9983
   89CHL1    C3 8993   2.538   0.195  19.679  0.3364  0.0856 -0.4487
   89CHL1    H3 8994   2.540   0.305  19.672 -2.1398  0.3959  1.9396
   89CHL1    O3 8995   2.527   0.146  19.550  0.7858 -0.2053  0.1133
   89CHL1   H3' 8996   2.576   0.064  19.553  0.5837 -0.5149 -2.5373
   89CHL1    C4 8997   2.671   0.137  19.739  0.0889 -0.8232  1.0471
   89CHL1   H4A 8998   2.668   0.028  19.720  2.3177 -0.4933 -1.7536
   89CHL1   H4B 8999   2.755   0.176  19.678 -0.8226  1.2560  1.0194
   89CHL1    C5 9000   2.686   0.171  19.883 -0.2206  0.5003  0.1027
   89CHL1    C6 9001   2.800   0.222  19.926 -0.0127  0.1463 -0.1952
   89CHL1    H6 9002   2.889   0.243  19.865  0.0297 -1.2775 -0.6675
   89CHL1    C7 9003   2.831   0.258  20.067 -0.0292 -0.8192 -0.1731
   89CHL1   H7A 9004   2.933   0.228  20.100  0.2134 -1.3608 -1.3698
   89CHL1   H7B 9005   2.833   0.368  20.086  2.7417 -0.5881 -1.3163
   89CHL1    C8 9006   2.730   0.198  20.163 -0.8832  0.1374  0.0692
   89CHL1    H8 9007   2.739   0.087  20.158 -1.2313  0.1521 -1.0657
   89CHL1   C14 9008   2.743   0.244  20.314 -0.5650 -0.5578  0.6459
   89CHL1   H14 9009   2.725   0.354  20.316  0.3550 -0.2966 -1.5895
   89CHL1   C15 9010   2.885   0.228  20.366  0.1276  0.3581 -0.6723
   89CHL1  H15A 9011   2.932   0.131  20.338  1.9282  1.8957 -3.4666
   89CHL1  H15B 9012   2.953   0.303  20.319 -2.3260  3.2111 -0.0086
   89CHL1   C16 9013   2.855   0.242  20.519 -0.1817 -0.3737 -0.0613
   89CHL1  H16A 9014   2.908   0.164  20.577 -0.2372 -0.8179 -0.5955
   89CHL1  H16B 9015   2.911   0.330  20.556 -0.0309 -0.0935 -0.9242
   89CHL1   C17 9016   2.706   0.231  20.540 -0.2356 -0.3365 -0.1339
   89CHL1   H17 9017   2.671   0.337  20.543  0.2820 -0.1445 -0.6154
   89CHL1   C13 9018   2.652   0.176  20.408  0.3164 -0.3356  0.3688
   89CHL1   C18 9019   2.677   0.029  20.408 -0.2301  0.3034 -0.5734
   89CHL1  H18A 9020   2.658  -0.019  20.310 -1.3884  0.6639 -0.5338
   89CHL1  H18B 9021   2.775  -0.008  20.447 -0.7152 -2.0153 -1.3803
   89CHL1  H18C 9022   2.602  -0.011  20.479 -0.7966  0.1636 -1.2382
   89CHL1   C12 9023   2.504   0.216  20.363 -0.4573 -0.1790  0.2988
   89CHL1  H12A 9024   2.427   0.160  20.421  0.4321  0.1345  1.8341
   89CHL1  H12B 9025   2.489   0.325  20.378 -1.0188 -0.0969 -0.7627
   89CHL1   C11 9026   2.474   0.195  20.214  0.0802 -0.2358  0.0931
   89CHL1  H11A 9027   2.437   0.090  20.204 -0.9051  0.2045 -1.1889
   89CHL1  H11B 9028   2.388   0.259  20.185 -0.3305 -1.1794 -0.8852
   89CHL1    C9 9029   2.589   0.225  20.113  0.4782 -0.0570  0.5449
   89CHL1    H9 9030   2.595   0.335  20.097  0.7733 -0.0204  0.9110
   89CHL1   C10 9031   2.561   0.150  19.977 -0.1857  0.6725 -0.3091
   89CHL1   C19 9032   2.542  -0.006  19.992 -0.5918  0.9520 -0.0856
   89CHL1  H19A 9033   2.442  -0.026  20.036 -0.5989 -1.4170 -1.0389
   89CHL1  H19B 9034   2.539  -0.068  19.900 -1.7743 -1.3897  1.4389
   89CHL1  H19C 9035   2.618  -0.057  20.056  0.1449  1.1223 -0.8055
   89CHL1    C1 9036   2.430   0.211  19.916  0.3787  0.0322  0.1792
   89CHL1   H1A 9037   2.343   0.177  19.976  0.5113  1.2527  1.1107
   89CHL1   H1B 9038   2.447   0.321  19.926 -0.0919  0.1192  0.0811
   89CHL1    C2 9039   2.413   0.168  19.769  0.0692  0.4737  0.6268
   89CHL1   H2A 9040   2.330   0.226  19.724  1.1746  0.2611 -1.8283
   89CHL1   H2B 9041   2.396   0.058  19.772  0.0822  0.4862  1.3626
   89CHL1   C20 9042   2.659   0.169  20.675 -0.8213 -0.2710 -0.2702
   89CHL1   H20 9043   2.676   0.060  20.682 -3.2306 -0.6824  0.1803
   89CHL1   C21 9044   2.510   0.207  20.707  0.6599  0.4845  0.1490
   89CHL1  H21A 9045   2.442   0.175  20.624  0.1549 -3.2502  1.7905
   89CHL1  H21B 9046   2.498   0.312  20.741 -3.0813  0.4284 -0.5139
   89CHL1  H21C 9047   2.478   0.143  20.792 -0.2762 -1.4234 -1.5563
   89CHL1   C22 9048   2.735   0.227  20.798 -0.9268  0.4064  0.5397
   89CHL1  H22A 9049   2.830   0.171  20.785 -1.7094 -0.4172 -2.5058
   89CHL1  H22B 9050   2.748   0.336  20.778 -1.0261  0.3952  0.4121
   89CHL1   C23 9051   2.673   0.198  20.931  1.2379 -0.1172 -0.3807
   89CHL1  H23A 9052   2.595   0.271  20.959  0.6615 -2.1338  4.0022
   89CHL1  H23B 9053   2.633   0.095  20.924 -0.4422  0.5574 -1.3260
   89CHL1   C24 9054   2.780   0.213  21.040 -0.3517  0.5303  0.2302
   89CHL1  H24A 9055   2.856   0.134  21.020 -0.7497  0.2380 -0.1878
   89CHL1  H24B 9056   2.832   0.309  21.024  1.4479 -0.5029 -0.4730
   89CHL1   C25 9057   2.734   0.181  21.180  0.4943 -0.0119  0.7568
   89CHL1   H25 9058   2.666   0.093  21.180  2.5814 -1.7002  1.7070
   89CHL1   C26 9059   2.845   0.130  21.271 -0.4272 -0.0774 -0.6237
   89CHL1  H26A 9060   2.910   0.054  21.223  1.3610  0.8733  0.1977
   89CHL1  H26B 9061   2.909   0.214  21.307 -2.3511  1.9710 -1.7342
   89CHL1  H26C 9062   2.796   0.082  21.359  1.1605 -0.1311  0.2721
   89CHL1   C27 9063   2.674   0.308  21.244 -0.3251  0.4061 -0.1369
   89CHL1  H27A 9064   2.640   0.292  21.348 -0.2140  3.0694  0.3752
   89CHL1  H27B 9065   2.735   0.400  21.256  0.4405 -0.1950  0.6477
   89CHL1  H27C 9066   2.581   0.331  21.187 -2.0346 -3.8112  0.6126
   90CHL1    C3 9067   0.056   0.011  14.675  0.0286  0.2223  0.1010
   90CHL1    H3 9068  -0.011  -0.047  14.609  2.6505 -0.8478 -1.8041
   90CHL1    O3 9069   0.189   0.005  14.619 -0.1430  0.0703 -0.0332
   90CHL1   H3' 9070   0.218  -0.086  14.632 -0.0789  0.3647  2.1923
   90CHL1    C4 9071   0.011   0.163  14.692 -0.2934 -0.2607 -0.1476
   90CHL1   H4A 9072   0.091   0.223  14.740 -0.6457  1.6256 -1.7970
   90CHL1   H4B 9073   0.008   0.200  14.587  1.1420 -0.0519 -0.1324
   90CHL1    C5 9074  -0.130   0.176  14.747  0.3035  0.3761  0.6237
   90CHL1    C6 9075  -0.224   0.247  14.680 -0.0744  0.1725 -0.0461
   90CHL1    H6 9076  -0.200   0.302  14.588 -1.1084  1.9302  0.6878
   90CHL1    C7 9077  -0.362   0.266  14.732 -0.3795 -0.2849  0.0270
   90CHL1   H7A 9078  -0.388   0.374  14.729  1.3884  0.1885 -3.4413
   90CHL1   H7B 9079  -0.435   0.205  14.675 -1.2659  0.4216  0.3826
   90CHL1    C8 9080  -0.370   0.229  14.882  0.8375 -0.7632  0.1882
   90CHL1    H8 9081  -0.315   0.310  14.934  0.7649  0.8320 -2.0971
   90CHL1   C14 9082  -0.515   0.229  14.926  0.2997 -0.2393 -0.2979
   90CHL1   H14 9083  -0.554   0.154  14.853  1.7065  1.4941 -3.0020
   90CHL1   C15 9084  -0.601   0.353  14.888 -0.5435  0.5315 -0.3783
   90CHL1  H15A 9085  -0.532   0.436  14.913  1.6802 -1.4611  0.4575
   90CHL1  H15B 9086  -0.632   0.334  14.783 -0.1083 -3.0919  0.0199
   90CHL1   C16 9087  -0.723   0.340  14.978  0.4315 -0.5033  0.1410
   90CHL1  H16A 9088  -0.719   0.435  15.035  4.0768  0.7322 -1.8668
   90CHL1  H16B 9089  -0.818   0.343  14.921  0.5343 -1.0209 -0.0632
   90CHL1   C17 9090  -0.702   0.217  15.066 -0.4614  0.1318 -0.1090
   90CHL1   H17 9091  -0.740   0.131  15.007  0.0467  0.3027 -0.6878
   90CHL1   C13 9092  -0.544   0.192  15.065 -0.0499  0.4330  0.1363
   90CHL1   C18 9093  -0.483   0.284  15.168  0.3887 -0.0340 -0.3783
   90CHL1  H18A 9094  -0.373   0.292  15.160  0.5207 -2.1535 -1.3936
   90CHL1  H18B 9095  -0.533   0.383  15.161 -1.9140 -0.9993  0.9484
   90CHL1  H18C 9096  -0.498   0.235  15.266 -1.6975  0.5559 -0.3504
   90CHL1   C12 9097  -0.494   0.047  15.075 -0.0468 -0.4020 -0.0178
   90CHL1  H12A 9098  -0.506   0.012  15.180  0.4330  0.4245  0.3200
   90CHL1  H12B 9099  -0.558  -0.013  15.006 -0.5406  2.1483 -1.9232
   90CHL1   C11 9100  -0.340   0.040  15.049 -0.3672 -0.5099 -1.0847
   90CHL1  H11A 9101  -0.295   0.108  15.125 -1.6645 -0.2063 -0.5556
   90CHL1  H11B 9102  -0.312  -0.068  15.045 -2.0992 -1.0626  0.4205
   90CHL1    C9 9103  -0.302   0.093  14.915 -0.9525 -0.2697 -0.2014
   90CHL1    H9 9104  -0.341   0.017  14.843 -0.9276  0.3545 -0.8957
   90CHL1   C10 9105  -0.150   0.099  14.883  0.1953  0.3221 -0.3602
   90CHL1   C19 9106  -0.059   0.178  14.985  0.7420 -0.4124  0.0190
   90CHL1  H19A 9107  -0.047   0.119  15.079  1.2521  2.3314  1.7888
   90CHL1  H19B 9108   0.041   0.198  14.943  0.9365 -2.4734 -0.6062
   90CHL1  H19C 9109  -0.103   0.272  15.024  0.7095 -0.0819 -0.8067
   90CHL1    C1 9110  -0.087  -0.044  14.866 -0.6042  0.4285  0.1196
   90CHL1   H1A 9111  -0.096  -0.096  14.963 -2.0242 -0.0537 -0.2468
   90CHL1   H1B 9112  -0.146  -0.112  14.802  0.1165  1.1062 -1.3198
   90CHL1    C2 9113   0.057  -0.043  14.817 -0.1893  0.2001  0.1022
   90CHL1   H2A 9114   0.091  -0.148  14.814 -0.4914  0.0675  1.0277
   90CHL1   H2B 9115   0.124   0.020  14.880 -0.4272 -0.3648  0.9312
   90CHL1   C20 9116  -0.783   0.214  15.204 -0.2773 -0.5135  0.6036
   90CHL1   H20 9117  -0.741   0.286  15.277  1.4407 -0.1623 -0.6632
   90CHL1   C21 9118  -0.776   0.073  15.260  0.1001 -0.1380 -0.3070
   90CHL1  H21A 9119  -0.816   0.007  15.180  1.2096 -1.3810  0.1353
   90CHL1  H21B 9120  -0.852   0.068  15.340 -0.1986 -0.7761 -0.6253
   90CHL1  H21C 9121  -0.674   0.041  15.291  0.9978  2.3083 -0.5007
   90CHL1   C22 9122  -0.933   0.253  15.176 -0.1617  0.1146 -0.7249
   90CHL1  H22A 9123  -0.996   0.225  15.264 -0.8070  1.8821 -0.5890
   90CHL1  H22B 9124  -0.935   0.363  15.162 -0.0563  0.4457  1.4734
   90CHL1   C23 9125  -1.000   0.172  15.059 -0.0627  0.3964 -0.4939
   90CHL1  H23A 9126  -0.949   0.198  14.964 -1.6506 -0.8456 -1.7329
   90CHL1  H23B 9127  -0.994   0.063  15.080  0.1455  0.6829  1.0794
   90CHL1   C24 9128  -1.147   0.193  15.065  0.3268 -0.0301 -0.0060
   90CHL1  H24A 9129  -1.190   0.118  15.134  2.6905 -1.0350  0.4399
   90CHL1  H24B 9130  -1.173   0.296  15.098  0.2951 -0.1872  0.4607
   90CHL1   C25 9131  -1.214   0.176  14.919 -0.0603 -0.4490 -0.5257
   90CHL1   H25 9132  -1.165   0.101  14.852  2.7486  2.0693 -1.5422
   90CHL1   C26 9133  -1.369   0.144  14.937 -0.0736 -0.0673 -0.0941
   90CHL1  H26A 9134  -1.383   0.050  14.995 -2.1403 -0.2651 -0.8275
   90CHL1  H26B 9135  -1.429   0.227  14.981 -1.5475 -0.6241 -0.9735
   90CHL1  H26C 9136  -1.418   0.129  14.839  1.8407  0.4664 -1.1940
   90CHL1   C27 9137  -1.204   0.305  14.841  0.0148 -0.1674  0.1697
   90CHL1  H27A 9138  -1.267   0.306  14.750  1.1869 -2.0909 -0.7117
   90CHL1  H27B 9139  -1.232   0.396  14.899  0.7651  0.5654 -0.6011
   90CHL1  H27C 9140  -1.102   0.322  14.800 -0.4674  0.9543 -0.5952
   91CHL1    C3 9141   0.650   1.085  15.979 -0.0650 -0.4113  0.8711
   91CHL1    H3 9142   0.691   1.081  16.082  0.5188  1.2647  0.7417
   91CHL1    O3 9143   0.765   1.084  15.892 -0.2661  0.2920 -0.5258
   91CHL1   H3' 9144   0.794   1.173  15.870  3.1637 -0.6136 -0.2417
   91CHL1    C4 9145   0.554   0.973  15.963  0.0542  0.1847 -0.1624
   91CHL1   H4A 9146   0.520   0.968  15.858 -1.9391  2.1357  0.3020
   91CHL1   H4B 9147   0.604   0.882  16.003 -0.7455 -0.2911 -0.2169
   91CHL1    C5 9148   0.430   0.993  16.045  0.2574 -0.5078 -0.2311
   91CHL1    C6 9149   0.398   0.912  16.147  0.2104 -0.1834  0.0888
   91CHL1    H6 9150   0.460   0.825  16.170  0.6349  0.2325  0.5237
   91CHL1    C7 9151   0.266   0.922  16.218 -0.5073 -0.6522  0.6074
   91CHL1   H7A 9152   0.213   0.824  16.224 -1.6616  0.0078  1.7229
   91CHL1   H7B 9153   0.296   0.949  16.321  0.8746 -0.9612  0.3019
   91CHL1    C8 9154   0.169   1.018  16.141 -0.0638  0.3130  0.4864
   91CHL1    H8 9155   0.132   0.954  16.057  2.7116 -2.0021  0.8763
   91CHL1   C14 9156   0.060   1.061  16.238 -0.8297  0.0085 -0.1150
   91CHL1   H14 9157   0.112   1.128  16.310  1.3907 -0.9923 -0.7322
   91CHL1   C15 9158  -0.005   0.952  16.326 -0.1548  0.6542 -0.2835
   91CHL1  H15A 9159  -0.019   0.858  16.268  1.3528  0.7219 -0.7878
   91CHL1  H15B 9160   0.067   0.928  16.406 -1.4928 -1.7664  0.3061
   91CHL1   C16 9161  -0.138   1.004  16.363  1.1712 -0.0217 -0.1700
   91CHL1  H16A 9162  -0.217   0.935  16.327 -0.2336  1.1816  0.4773
   91CHL1  H16B 9163  -0.139   0.992  16.473 -0.6644 -0.3159 -0.1888
   91CHL1   C17 9164  -0.151   1.145  16.300 -0.4060 -0.2903  0.0719
   91CHL1   H17 9165  -0.101   1.205  16.378  0.9726  0.3314 -1.2437
   91CHL1   C13 9166  -0.054   1.142  16.179  0.2464  0.0572 -0.3522
   91CHL1   C18 9167  -0.126   1.076  16.061 -0.1362 -0.8427 -0.0684
   91CHL1  H18A 9168  -0.172   0.978  16.086 -2.4285 -0.0861 -1.0033
   91CHL1  H18B 9169  -0.215   1.135  16.028 -1.4311 -1.8877  1.4380
   91CHL1  H18C 9170  -0.062   1.058  15.972  0.1368  0.0924 -0.0788
   91CHL1   C12 9171   0.013   1.277  16.135  0.7845 -0.3737  0.5358
   91CHL1  H12A 9172  -0.055   1.344  16.079  0.9652 -0.3803  0.3078
   91CHL1  H12B 9173   0.050   1.332  16.224  1.4901  0.7938 -0.4409
   91CHL1   C11 9174   0.130   1.253  16.042 -0.7087 -0.3534 -0.5906
   91CHL1  H11A 9175   0.089   1.215  15.946 -3.4518  1.0650 -0.0626
   91CHL1  H11B 9176   0.190   1.346  16.030 -0.2387 -0.4622  0.7111
   91CHL1    C9 9177   0.229   1.148  16.096  0.1235  0.2905 -0.3251
   91CHL1    H9 9178   0.268   1.194  16.189 -0.7106  2.0391 -0.8036
   91CHL1   C10 9179   0.354   1.123  16.005 -0.2079  0.4219 -0.0619
   91CHL1   C19 9180   0.305   1.116  15.861  0.2735 -0.0233  0.3201
   91CHL1  H19A 9181   0.218   1.047  15.861  1.5122 -1.6250  0.7932
   91CHL1  H19B 9182   0.282   1.219  15.824 -0.2174 -0.5496 -0.9138
   91CHL1  H19C 9183   0.383   1.077  15.792  1.6929  0.6335  1.4912
   91CHL1    C1 9184   0.457   1.233  16.028  0.3748 -0.3422  0.1445
   91CHL1   H1A 9185   0.403   1.327  16.001  0.8765  0.1288  0.7494
   91CHL1   H1B 9186   0.475   1.245  16.138  0.4805  1.7105 -0.0451
   91CHL1    C2 9187   0.585   1.220  15.948 -0.0401  0.1305 -0.3290
   91CHL1   H2A 9188   0.653   1.306  15.967  1.3092 -1.1535  0.9232
   91CHL1   H2B 9189   0.549   1.225  15.843 -2.7848 -0.8143  0.4907
   91CHL1   C20 9190  -0.298   1.194  16.283 -0.7066 -0.0022 -0.5362
   91CHL1   H20 9191  -0.329   1.134  16.195  0.7436 -1.3444 -0.1927
   91CHL1   C21 9192  -0.300   1.344  16.246 -0.3610  0.1269 -0.7806
   91CHL1  H21A 9193  -0.255   1.400  16.331 -1.1242 -1.4790  0.7414
   91CHL1  H21B 9194  -0.405   1.378  16.231 -0.5262  1.3339  2.3784
   91CHL1  H21C 9195  -0.238   1.362  16.155 -0.0904  5.1072  0.1059
   91CHL1   C22 9196  -0.390   1.174  16.401  0.6732  0.3756  0.3993
   91CHL1  H22A 9197  -0.358   1.079  16.449  0.0574 -0.6242 -1.1208
   91CHL1  H22B 9198  -0.385   1.262  16.469 -0.7727 -0.4354  1.6244
   91CHL1   C23 9199  -0.530   1.147  16.347  0.1226  0.0559  0.1189
   91CHL1  H23A 9200  -0.578   1.235  16.299 -3.3082 -2.5989 -1.7046
   91CHL1  H23B 9201  -0.524   1.080  16.259 -1.8150  2.3959 -1.9261
   91CHL1   C24 9202  -0.625   1.079  16.449  0.9114  0.2359  0.6875
   91CHL1  H24A 9203  -0.728   1.080  16.408  0.5089  1.0492  1.6785
   91CHL1  H24B 9204  -0.587   0.975  16.462 -1.0377 -0.6120 -0.0341
   91CHL1   C25 9205  -0.636   1.138  16.588 -0.3402 -0.1259  0.3935
   91CHL1   H25 9206  -0.534   1.155  16.628  1.2178  0.9664 -3.6055
   91CHL1   C26 9207  -0.715   1.268  16.594  1.0890  0.3243 -0.4961
   91CHL1  H26A 9208  -0.656   1.350  16.548  0.9592  0.0362 -1.1913
   91CHL1  H26B 9209  -0.808   1.271  16.534  0.8479  1.8058 -0.0969
   91CHL1  H26C 9210  -0.742   1.294  16.699 -1.8453  3.3823 -1.8455
   91CHL1   C27 9211  -0.715   1.036  16.671  0.0146 -0.4168 -0.0607
   91CHL1  H27A 9212  -0.744   1.090  16.763 -0.5622  0.2109 -0.6066
   91CHL1  H27B 9213  -0.808   1.009  16.616 -0.4113  0.1377  0.3754
   91CHL1  H27C 9214  -0.650   0.947  16.689  1.8553  0.6466 -1.1471
   92CHL1    C3 9215   2.629   3.821  19.369  0.5383 -0.6967  0.2964
   92CHL1    H3 9216   2.661   3.739  19.302 -2.1109  1.1394 -3.6495
   92CHL1    O3 9217   2.570   3.927  19.293 -0.3197 -0.2117  0.2837
   92CHL1   H3' 9218   2.483   3.935  19.333  0.0616 -0.9971  1.3380
   92CHL1    C4 9219   2.528   3.781  19.473 -0.1750  0.6001 -0.3867
   92CHL1   H4A 9220   2.507   3.867  19.540  2.2342  0.1193  1.1200
   92CHL1   H4B 9221   2.435   3.740  19.428 -0.2125  0.5273 -0.2451
   92CHL1    C5 9222   2.587   3.668  19.563 -0.1101 -1.2795  0.5350
   92CHL1    C6 9223   2.523   3.549  19.572  0.0741  0.2573 -1.2527
   92CHL1    H6 9224   2.424   3.546  19.522 -1.5153  1.5384  1.5826
   92CHL1    C7 9225   2.573   3.432  19.652  0.2536 -0.1594 -0.0509
   92CHL1   H7A 9226   2.491   3.388  19.713 -0.4146  0.3051 -0.5928
   92CHL1   H7B 9227   2.607   3.349  19.586 -0.2615 -0.1804 -0.2974
   92CHL1    C8 9228   2.687   3.478  19.742  0.1052  0.2516 -0.1432
   92CHL1    H8 9229   2.639   3.538  19.822 -0.7283  0.7361 -0.9924
   92CHL1   C14 9230   2.762   3.364  19.809 -0.7845  0.1180  0.2732
   92CHL1   H14 9231   2.803   3.309  19.722 -2.1182  1.2639 -1.1249
   92CHL1   C15 9232   2.679   3.256  19.875  0.0022  0.3118 -0.3557
   92CHL1  H15A 9233   2.606   3.290  19.951  0.3739 -2.1523  1.1960
   92CHL1  H15B 9234   2.630   3.187  19.802  1.7340  0.5613 -1.8214
   92CHL1   C16 9235   2.790   3.167  19.933 -0.0168  0.3908  0.0027
   92CHL1  H16A 9236   2.764   3.138  20.037  1.2193 -0.0790  0.1905
   92CHL1  H16B 9237   2.811   3.082  19.865 -3.7059  0.2580 -1.2255
   92CHL1   C17 9238   2.922   3.252  19.946  0.7146 -0.2421  0.1208
   92CHL1   H17 9239   2.985   3.215  19.862 -1.8512  0.4399 -2.2648
   92CHL1   C13 9240   2.878   3.396  19.901  0.2845 -0.3965 -0.2912
   92CHL1   C18 9241   2.820   3.463  20.029  0.2272 -0.3181 -0.2323
   92CHL1  H18A 9242   2.739   3.401  20.074 -0.0626  2.2405  3.2291
   92CHL1  H18B 9243   2.895   3.480  20.109  0.1939 -0.8658 -0.0807
   92CHL1  H18C 9244   2.774   3.563  20.013  0.0933 -0.0402  1.6488
   92CHL1   C12 9245   2.983   3.480  19.818  0.8194  0.6196  0.1013
   92CHL1  H12A 9246   3.075   3.507  19.873  1.6544  1.2447 -1.5384
   92CHL1  H12B 9247   3.005   3.427  19.723  2.5177 -0.3873  0.9947
   92CHL1   C11 9248   2.904   3.603  19.775  0.1667  0.0492  0.7652
   92CHL1  H11A 9249   2.869   3.666  19.859 -0.3121  2.3300 -1.0418
   92CHL1  H11B 9250   2.976   3.675  19.729  1.1682 -1.1355  0.4211
   92CHL1    C9 9251   2.787   3.578  19.677 -0.8419  0.0673 -0.1666
   92CHL1    H9 9252   2.820   3.513  19.594  2.4069 -2.1453  2.5995
   92CHL1   C10 9253   2.723   3.707  19.626 -0.4478 -0.4714  0.2276
   92CHL1   C19 9254   2.711   3.819  19.737  0.2494  0.8239  0.0943
   92CHL1  H19A 9255   2.658   3.781  19.827  0.8186 -1.1156 -0.3306
   92CHL1  H19B 9256   2.813   3.858  19.757  0.2928  0.7713 -0.0172
   92CHL1  H19C 9257   2.655   3.902  19.689 -1.7074 -1.3194 -1.5654
   92CHL1    C1 9258   2.820   3.777  19.526  0.1579 -0.4967  0.1785
   92CHL1   H1A 9259   2.903   3.826  19.580  1.7221 -1.2268 -1.4513
   92CHL1   H1B 9260   2.868   3.696  19.466 -0.2727  0.1713 -1.1145
   92CHL1    C2 9261   2.752   3.885  19.434  0.1652  0.0739  0.0799
   92CHL1   H2A 9262   2.831   3.923  19.366  0.0313  1.6784  0.7663
   92CHL1   H2B 9263   2.719   3.978  19.486  0.6751  2.9067 -4.1875
   92CHL1   C20 9264   3.002   3.236  20.078  0.3229  0.0079 -0.4900
   92CHL1   H20 9265   2.952   3.272  20.170  1.5819 -1.1378  0.6887
   92CHL1   C21 9266   3.134   3.313  20.052  0.5049 -0.0936  0.1099
   92CHL1  H21A 9267   3.167   3.300  19.947  0.5009 -2.4328  0.3251
   92CHL1  H21B 9268   3.214   3.259  20.108 -0.3128  0.0666  1.4655
   92CHL1  H21C 9269   3.133   3.416  20.093 -0.6875  0.6795 -1.7534
   92CHL1   C22 9270   3.028   3.076  20.096 -0.7244 -0.2913 -0.4998
   92CHL1  H22A 9271   2.937   3.017  20.072 -0.3529 -0.2728 -2.1188
   92CHL1  H22B 9272   3.102   3.050  20.017 -1.8580  1.4355 -2.2178
   92CHL1   C23 9273   3.082   3.033  20.239 -0.8036 -0.2287 -0.1852
   92CHL1  H23A 9274   3.155   3.100  20.288 -0.9221 -1.3106  1.5813
   92CHL1  H23B 9275   2.993   3.029  20.306 -1.4874  1.5501 -0.9157
   92CHL1   C24 9276   3.156   2.892  20.242  0.1576  0.3011  0.2576
   92CHL1  H24A 9277   3.091   2.802  20.239  1.6034 -0.7932  0.6242
   92CHL1  H24B 9278   3.223   2.908  20.156 -0.6779  1.6772 -0.1621
   92CHL1   C25 9279   3.248   2.876  20.367 -0.0510 -0.5320 -0.6182
   92CHL1   H25 9280   3.318   2.961  20.381 -0.7550 -0.0658  0.1528
   92CHL1   C26 9281   3.160   2.878  20.492  0.1125  0.0860  0.0087
   92CHL1  H26A 9282   3.089   2.792  20.493  1.1288 -0.8181 -1.3400
   92CHL1  H26B 9283   3.222   2.871  20.584 -1.0048  0.0129  0.7785
   92CHL1  H26C 9284   3.104   2.973  20.506 -0.2684 -0.2792  1.0793
   92CHL1   C27 9285   3.338   2.751  20.354  0.3216 -0.2755 -0.0198
   92CHL1  H27A 9286   3.266   2.679  20.308  0.3823  1.2996 -2.8489
   92CHL1  H27B 9287   3.423   2.774  20.287 -0.2684 -0.9704 -1.0351
   92CHL1  H27C 9288   3.373   2.714  20.452 -1.8351 -1.5404  0.3332
   93CHL1    C3 9289   0.146   1.420  14.051 -0.2387 -0.5867 -0.5302
   93CHL1    H3 9290   0.194   1.517  14.074 -1.1076 -0.4620  0.8602
   93CHL1    O3 9291   0.224   1.352  13.959  0.1239  0.0224 -0.3930
   93CHL1   H3' 9292   0.312   1.359  13.997 -1.2133  1.1541  2.8582
   93CHL1    C4 9293   0.134   1.335  14.178  0.1326  0.0348 -0.2708
   93CHL1   H4A 9294   0.100   1.236  14.142 -1.8267  0.7043 -0.3915
   93CHL1   H4B 9295   0.236   1.324  14.220  0.1581 -0.1480 -0.3789
   93CHL1    C5 9296   0.031   1.390  14.272  0.2968 -0.4717 -0.1280
   93CHL1    C6 9297   0.069   1.405  14.403  0.4088 -0.6350 -0.7397
   93CHL1    H6 9298   0.171   1.385  14.439  0.2773  0.8945  0.5877
   93CHL1    C7 9299  -0.031   1.456  14.508 -0.0342 -0.2815  0.6251
   93CHL1   H7A 9300  -0.025   1.393  14.599 -4.3929 -0.2245  1.2010
   93CHL1   H7B 9301  -0.002   1.559  14.536  2.1609 -1.1183  1.6597
   93CHL1    C8 9302  -0.174   1.456  14.465  0.1455 -0.0634  0.2612
   93CHL1    H8 9303  -0.216   1.354  14.455  1.9493 -0.7286 -1.0529
   93CHL1   C14 9304  -0.257   1.556  14.553  0.2598  0.1111 -0.0464
   93CHL1   H14 9305  -0.210   1.656  14.549 -0.3232  0.4495  1.1502
   93CHL1   C15 9306  -0.259   1.521  14.698  0.6804  0.2662 -0.5217
   93CHL1  H15A 9307  -0.295   1.418  14.716  2.2204 -0.4681 -1.4566
   93CHL1  H15B 9308  -0.165   1.529  14.756  0.1825  1.2088  0.1994
   93CHL1   C16 9309  -0.366   1.615  14.753  0.2891 -0.6624 -0.0513
   93CHL1  H16A 9310  -0.432   1.571  14.830  0.5927 -0.2860  0.4347
   93CHL1  H16B 9311  -0.317   1.698  14.808 -0.7415 -1.9022  2.9193
   93CHL1   C17 9312  -0.444   1.662  14.632  0.0091 -0.2992 -0.8291
   93CHL1   H17 9313  -0.414   1.767  14.608  0.3822 -1.2103 -4.9715
   93CHL1   C13 9314  -0.404   1.572  14.516 -0.0307  0.4723 -0.4617
   93CHL1   C18 9315  -0.484   1.440  14.523 -0.3999  0.0358  0.3684
   93CHL1  H18A 9316  -0.517   1.410  14.625  0.3851 -0.0206  0.6138
   93CHL1  H18B 9317  -0.582   1.446  14.470  0.0132  2.0496 -0.2559
   93CHL1  H18C 9318  -0.426   1.347  14.504 -1.9355 -1.2233  1.5024
   93CHL1   C12 9319  -0.396   1.630  14.377 -0.3093 -0.4051  0.1935
   93CHL1  H12A 9320  -0.503   1.637  14.348 -0.5114 -1.1739  0.7056
   93CHL1  H12B 9321  -0.353   1.732  14.382 -1.1595 -0.0699  1.4584
   93CHL1   C11 9322  -0.329   1.546  14.273  0.4839 -0.6410 -0.0957
   93CHL1  H11A 9323  -0.388   1.453  14.261 -0.2495 -0.3324  0.9567
   93CHL1  H11B 9324  -0.322   1.604  14.179  2.8004 -2.5863 -1.2275
   93CHL1    C9 9325  -0.184   1.517  14.319  0.1314  1.0379  0.2559
   93CHL1    H9 9326  -0.124   1.611  14.318  1.5992  0.1411 -0.7849
   93CHL1   C10 9327  -0.106   1.423  14.216  0.2021  0.0661 -0.6193
   93CHL1   C19 9328  -0.175   1.290  14.196 -0.0105  0.4271  0.5237
   93CHL1  H19A 9329  -0.213   1.255  14.295 -1.5210  1.7447  0.4553
   93CHL1  H19B 9330  -0.273   1.292  14.144 -0.4644 -1.0654  1.2565
   93CHL1  H19C 9331  -0.112   1.214  14.146  1.0549  1.6123  0.0028
   93CHL1    C1 9332  -0.096   1.504  14.086 -0.6285  0.1822 -0.3045
   93CHL1   H1A 9333  -0.194   1.511  14.035 -1.7153 -1.9662  1.2959
   93CHL1   H1B 9334  -0.057   1.604  14.113 -0.6369 -0.3566  1.9313
   93CHL1    C2 9335   0.005   1.442  13.991  0.2955 -0.7446  0.2559
   93CHL1   H2A 9336   0.017   1.499  13.896 -1.9723 -0.2114  0.2163
   93CHL1   H2B 9337  -0.028   1.339  13.967  0.5844 -0.7556 -0.1012
   93CHL1   C20 9338  -0.590   1.673  14.675 -0.4763 -0.3998 -0.6564
   93CHL1   H20 9339  -0.620   1.577  14.722  2.4435 -0.3300  1.6933
   93CHL1   C21 9340  -0.677   1.719  14.552  0.0332  0.2755  0.3003
   93CHL1  H21A 9341  -0.775   1.753  14.593 -1.1798 -2.5803 -0.0246
   93CHL1  H21B 9342  -0.673   1.642  14.473  1.4856  0.6096  0.0290
   93CHL1  H21C 9343  -0.634   1.809  14.504  0.2335  0.3806  0.6756
   93CHL1   C22 9344  -0.619   1.755  14.807 -0.0063  0.1269 -0.5192
   93CHL1  H22A 9345  -0.715   1.720  14.849  1.1576  0.0518  2.3329
   93CHL1  H22B 9346  -0.548   1.726  14.887 -3.8491 -1.5306  2.6035
   93CHL1   C23 9347  -0.623   1.910  14.803 -0.1432  0.5753 -0.0489
   93CHL1  H23A 9348  -0.530   1.954  14.762  1.0755 -0.6207  1.3034
   93CHL1  H23B 9349  -0.706   1.937  14.734  1.2174  0.6105 -1.7362
   93CHL1   C24 9350  -0.647   1.968  14.943 -1.2479  0.2355 -0.1625
   93CHL1  H24A 9351  -0.742   1.928  14.986 -0.8896 -1.5378 -0.9098
   93CHL1  H24B 9352  -0.570   1.945  15.020 -0.7567 -1.3992 -1.0819
   93CHL1   C25 9353  -0.656   2.119  14.942 -0.5706 -0.3752 -0.0696
   93CHL1   H25 9354  -0.562   2.169  14.911 -0.6986  0.2373  0.4961
   93CHL1   C26 9355  -0.754   2.174  14.837  0.6348 -0.6250  0.1506
   93CHL1  H26A 9356  -0.714   2.160  14.734 -3.2041 -1.5932 -1.3779
   93CHL1  H26B 9357  -0.854   2.127  14.847  0.6394 -1.3734 -2.5316
   93CHL1  H26C 9358  -0.776   2.282  14.841 -0.6322 -0.7753 -1.4110
   93CHL1   C27 9359  -0.695   2.171  15.083 -0.4658  0.0204  0.5699
   93CHL1  H27A 9360  -0.787   2.123  15.122 -0.6147  0.3584  0.6422
   93CHL1  H27B 9361  -0.614   2.154  15.156 -0.1410 -0.6346  0.0664
   93CHL1  H27C 9362  -0.717   2.279  15.069 -1.8478 -0.3987 -0.8614
   94CHL1    C3 9363   2.297   4.104  19.883 -0.0683  0.6157  0.6656
   94CHL1    H3 9364   2.325   4.212  19.887  0.3357  0.4975  1.0557
   94CHL1    O3 9365   2.220   4.086  19.766 -0.3752  0.5797  0.8981
   94CHL1   H3' 9366   2.175   4.003  19.776 -0.6503  0.7836  1.3663
   94CHL1    C4 9367   2.423   4.020  19.875 -0.4908 -0.2199 -0.5884
   94CHL1   H4A 9368   2.404   3.918  19.835 -0.8452 -0.8101  0.9954
   94CHL1   H4B 9369   2.475   4.067  19.789 -1.8329  1.4563 -0.5258
   94CHL1    C5 9370   2.505   4.024  20.003  0.3543 -0.2833 -0.1867
   94CHL1    C6 9371   2.630   4.058  20.007 -0.5310  0.0332 -0.0932
   94CHL1    H6 9372   2.689   4.075  19.916 -0.4466  0.6422  0.0636
   94CHL1    C7 9373   2.715   4.065  20.129  0.4718  0.4468 -1.1126
   94CHL1   H7A 9374   2.815   4.020  20.111  0.0588 -1.1788  0.3864
   94CHL1   H7B 9375   2.738   4.171  20.155  1.8948  0.0290 -0.6375
   94CHL1    C8 9376   2.646   3.976  20.247  0.0966 -0.7568 -0.4292
   94CHL1    H8 9377   2.654   3.871  20.212  0.5415 -0.8929  0.0640
   94CHL1   C14 9378   2.718   4.018  20.375  0.6001 -0.5031  1.0750
   94CHL1   H14 9379   2.689   4.124  20.390 -1.1719 -0.5089 -1.6187
   94CHL1   C15 9380   2.867   4.008  20.381 -0.4665 -0.2732 -0.5943
   94CHL1  H15A 9381   2.899   3.907  20.346 -1.7708 -0.5981 -0.8798
   94CHL1  H15B 9382   2.915   4.083  20.315 -0.0932  0.5579  0.5954
   94CHL1   C16 9383   2.898   4.033  20.536  1.2990 -0.1964  0.5742
   94CHL1  H16A 9384   2.948   3.941  20.572  2.7733  0.0827 -0.6702
   94CHL1  H16B 9385   2.953   4.129  20.544  0.5860  0.2257  0.5707
   94CHL1   C17 9386   2.755   4.028  20.605  0.0515  0.2370  0.5916
   94CHL1   H17 9387   2.720   4.134  20.598  1.0309  0.5400  0.0762
   94CHL1   C13 9388   2.660   3.962  20.508  0.5570  0.1351  0.0698
   94CHL1   C18 9389   2.674   3.811  20.511 -0.0114  0.2763  0.5454
   94CHL1  H18A 9390   2.617   3.761  20.592 -0.9608 -0.4031 -0.5023
   94CHL1  H18B 9391   2.636   3.760  20.419 -0.5852  0.2650  0.7856
   94CHL1  H18C 9392   2.783   3.789  20.514  0.3207  1.0616 -2.3002
   94CHL1   C12 9393   2.507   4.010  20.518 -0.2969 -0.0738  0.6439
   94CHL1  H12A 9394   2.460   3.965  20.608 -0.2339 -2.3563 -0.3948
   94CHL1  H12B 9395   2.491   4.120  20.523 -3.3935 -0.2754 -1.5114
   94CHL1   C11 9396   2.431   3.973  20.387  0.4087 -0.3766  0.0212
   94CHL1  H11A 9397   2.435   3.862  20.397 -1.8383 -0.6477 -1.2118
   94CHL1  H11B 9398   2.324   4.003  20.392  0.4061 -0.4559  0.5110
   94CHL1    C9 9399   2.498   4.020  20.255  0.1822  0.4248 -0.2135
   94CHL1    H9 9400   2.497   4.131  20.262  0.2206  0.4457 -0.5345
   94CHL1   C10 9401   2.419   3.991  20.126  0.3325  0.1388  0.2537
   94CHL1   C19 9402   2.376   3.838  20.115 -0.0563 -0.1419 -0.1562
   94CHL1  H19A 9403   2.307   3.821  20.030 -0.1757 -0.9160  0.0900
   94CHL1  H19B 9404   2.468   3.778  20.103 -0.6813 -1.4435  1.2330
   94CHL1  H19C 9405   2.315   3.820  20.207 -1.8713  0.1040 -1.2636
   94CHL1    C1 9406   2.287   4.082  20.136 -0.3781 -0.2130  0.3107
   94CHL1   H1A 9407   2.223   4.051  20.222  0.3432  2.5614  1.9875
   94CHL1   H1B 9408   2.315   4.190  20.145 -1.1877  0.0416 -0.1195
   94CHL1    C2 9409   2.213   4.072  20.004  0.2029 -0.1445 -0.0084
   94CHL1   H2A 9410   2.124   4.139  20.008  2.1587  2.5648  1.0294
   94CHL1   H2B 9411   2.176   3.968  19.997  0.4994 -0.3128  0.8643
   94CHL1   C20 9412   2.769   3.981  20.754 -0.5550 -0.3935 -0.6760
   94CHL1   H20 9413   2.773   3.870  20.755 -1.5105 -0.4364  0.2711
   94CHL1   C21 9414   2.648   4.042  20.825 -0.2342  0.3153 -0.2770
   94CHL1  H21A 9415   2.644   4.018  20.933  0.7631  3.7248  0.6303
   94CHL1  H21B 9416   2.555   4.001  20.779  0.7750 -2.0497 -0.3641
   94CHL1  H21C 9417   2.649   4.151  20.807  2.3166  0.4955  0.5952
   94CHL1   C22 9418   2.900   4.029  20.822  0.1027 -0.4002  0.0908
   94CHL1  H22A 9419   2.910   3.982  20.923  0.1322  1.2541  0.8857
   94CHL1  H22B 9420   2.981   3.979  20.765  0.7028  1.7516 -1.0453
   94CHL1   C23 9421   2.915   4.174  20.838  0.3038 -0.4889  0.1563
   94CHL1  H23A 9422   2.883   4.223  20.744 -0.2146  0.3922  0.7789
   94CHL1  H23B 9423   2.859   4.226  20.919 -1.8393 -0.1859 -1.4492
   94CHL1   C24 9424   3.062   4.220  20.849 -0.7055  0.2264  0.4073
   94CHL1  H24A 9425   3.121   4.147  20.909  0.0378 -0.9967 -1.7044
   94CHL1  H24B 9426   3.096   4.221  20.744  0.1869  0.2443  0.6896
   94CHL1   C25 9427   3.087   4.357  20.907 -0.5037  0.2485 -0.2824
   94CHL1   H25 9428   3.008   4.428  20.876  0.5228  1.3192 -0.5178
   94CHL1   C26 9429   3.090   4.342  21.055  0.8338 -1.0521  0.1147
   94CHL1  H26A 9430   2.998   4.300  21.100 -0.1400 -1.4338 -2.1025
   94CHL1  H26B 9431   3.182   4.287  21.086  1.5669 -0.6516 -1.2743
   94CHL1  H26C 9432   3.107   4.438  21.108 -2.1136 -2.0371  3.1912
   94CHL1   C27 9433   3.226   4.411  20.860 -0.0558 -0.1720  0.4921
   94CHL1  H27A 9434   3.303   4.332  20.857 -0.4223 -0.5182 -0.0385
   94CHL1  H27B 9435   3.218   4.443  20.754  0.7727  0.7294  0.6919
   94CHL1  H27C 9436   3.266   4.493  20.922 -0.9617  0.2968  0.4803
   95CHL1    C3 9437   2.259   3.171  19.265  0.5952  0.2369  0.1679
   95CHL1    H3 9438   2.152   3.146  19.282  0.5800 -0.7053 -1.1211
   95CHL1    O3 9439   2.260   3.234  19.133 -0.6767  0.7452 -0.4493
   95CHL1   H3' 9440   2.174   3.277  19.135 -0.3439  1.4468 -0.8849
   95CHL1    C4 9441   2.328   3.261  19.376  0.0312  0.3066 -0.0077
   95CHL1   H4A 9442   2.427   3.294  19.339  1.6620 -2.2379  1.6891
   95CHL1   H4B 9443   2.275   3.358  19.369  1.6861  1.2546  0.0631
   95CHL1    C5 9444   2.319   3.195  19.508  0.9626  0.4405 -0.8130
   95CHL1    C6 9445   2.245   3.250  19.604  0.1990  0.9833 -0.2488
   95CHL1    H6 9446   2.179   3.336  19.584 -2.4848 -1.1645 -1.2784
   95CHL1    C7 9447   2.218   3.188  19.742  0.4155 -0.1206 -0.1655
   95CHL1   H7A 9448   2.225   3.272  19.814  2.0610  1.8184 -2.4263
   95CHL1   H7B 9449   2.112   3.154  19.742  0.2513  0.2100  2.2503
   95CHL1    C8 9450   2.312   3.065  19.769 -0.0558  0.6959  0.1905
   95CHL1    H8 9451   2.413   3.101  19.799  0.5804  1.8074 -2.8525
   95CHL1   C14 9452   2.254   2.980  19.873 -1.1362  0.9405  0.1738
   95CHL1   H14 9453   2.161   2.942  19.826  0.0692 -0.9647 -0.7714
   95CHL1   C15 9454   2.195   3.043  20.004  0.4823  0.4415 -0.7156
   95CHL1  H15A 9455   2.249   3.130  20.047  1.2294 -0.3168 -0.0736
   95CHL1  H15B 9456   2.088   3.068  19.986 -0.2437 -0.2115  2.2043
   95CHL1   C16 9457   2.187   2.917  20.106  0.1228  0.1497 -0.5331
   95CHL1  H16A 9458   2.246   2.942  20.197  0.1419 -1.0121 -0.2029
   95CHL1  H16B 9459   2.077   2.907  20.121  0.4198  0.2727  2.2383
   95CHL1   C17 9460   2.242   2.799  20.021 -0.1565  0.0341  0.0227
   95CHL1   H17 9461   2.149   2.758  19.975  0.5319 -0.0208 -1.3635
   95CHL1   C13 9462   2.335   2.859  19.916  0.1269 -0.4099  0.6647
   95CHL1   C18 9463   2.472   2.905  19.967 -0.2223  0.2880  0.8458
   95CHL1  H18A 9464   2.457   3.000  20.024  0.0570 -0.2773  1.8833
   95CHL1  H18B 9465   2.519   2.831  20.035 -1.8292 -2.2916 -0.6857
   95CHL1  H18C 9466   2.543   2.926  19.884  1.4406  0.9004  2.3720
   95CHL1   C12 9467   2.351   2.774  19.790 -0.3442  0.1440 -0.5758
   95CHL1  H12A 9468   2.422   2.692  19.815 -1.1702 -0.3342  0.2722
   95CHL1  H12B 9469   2.255   2.723  19.766  0.3848 -1.4090 -0.2957
   95CHL1   C11 9470   2.397   2.841  19.665 -0.4108  0.5608 -0.6502
   95CHL1  H11A 9471   2.506   2.847  19.686 -0.2697  0.5398 -1.3596
   95CHL1  H11B 9472   2.374   2.771  19.582 -0.2557  1.8198 -1.7888
   95CHL1    C9 9473   2.323   2.980  19.640  0.5820 -0.4164  0.4457
   95CHL1    H9 9474   2.222   2.940  19.614  0.8037 -1.0828  0.5785
   95CHL1   C10 9475   2.373   3.054  19.517  0.0617  0.2532 -0.4900
   95CHL1   C19 9476   2.531   3.065  19.516  0.2963 -0.4163 -0.9501
   95CHL1  H19A 9477   2.576   2.963  19.520  1.6231  0.1439 -1.0091
   95CHL1  H19B 9478   2.575   3.114  19.426 -1.2466 -1.1409 -2.1594
   95CHL1  H19C 9479   2.566   3.120  19.606 -1.3424  0.1568 -0.6291
   95CHL1    C1 9480   2.335   2.973  19.394  0.5440  0.3345 -0.5462
   95CHL1   H1A 9481   2.411   2.892  19.387  1.0705  0.8943 -1.6644
   95CHL1   H1B 9482   2.237   2.924  19.413  2.7503 -3.6706  2.0329
   95CHL1    C2 9483   2.332   3.041  19.259  0.2620 -0.5044  0.9491
   95CHL1   H2A 9484   2.299   2.979  19.173 -2.8193  2.0847  0.0800
   95CHL1   H2B 9485   2.440   3.051  19.238 -0.1743  1.1878 -0.7250
   95CHL1   C20 9486   2.280   2.677  20.105 -0.4000 -0.0831 -0.4234
   95CHL1   H20 9487   2.371   2.717  20.156  0.9670  0.1750 -2.9177
   95CHL1   C21 9488   2.309   2.548  20.031  0.8105  1.1062 -0.7932
   95CHL1  H21A 9489   2.322   2.467  20.106  0.1017  2.2583  0.6172
   95CHL1  H21B 9490   2.400   2.560  19.967 -0.1610 -2.8420 -3.2545
   95CHL1  H21C 9491   2.221   2.529  19.966  0.1885 -0.2744  0.4141
   95CHL1   C22 9492   2.172   2.645  20.216 -0.4295 -0.5387 -0.1028
   95CHL1  H22A 9493   2.216   2.564  20.278 -3.5735 -3.0231 -0.8821
   95CHL1  H22B 9494   2.153   2.731  20.284 -1.9493 -0.7807 -0.1922
   95CHL1   C23 9495   2.032   2.589  20.162  0.2529 -0.1742 -0.5457
   95CHL1  H23A 9496   1.959   2.663  20.122 -0.5582 -0.8318 -0.3225
   95CHL1  H23B 9497   2.054   2.515  20.083 -1.0256 -0.1291 -0.9785
   95CHL1   C24 9498   1.956   2.513  20.270  0.2791 -0.1851  0.8707
   95CHL1  H24A 9499   2.026   2.434  20.305 -1.1326 -1.7825  0.2100
   95CHL1  H24B 9500   1.929   2.582  20.353  2.6404  1.1360  0.6524
   95CHL1   C25 9501   1.834   2.432  20.226 -0.3083  0.1638  0.2176
   95CHL1   H25 9502   1.757   2.498  20.182  0.2990  0.4640 -0.4126
   95CHL1   C26 9503   1.880   2.338  20.116  0.5840  0.1854  0.0367
   95CHL1  H26A 9504   1.787   2.280  20.098  0.8537 -1.5106  3.3392
   95CHL1  H26B 9505   1.899   2.386  20.018 -4.0130  2.5027  0.0025
   95CHL1  H26C 9506   1.952   2.259  20.147 -0.1773 -0.1176  1.0680
   95CHL1   C27 9507   1.775   2.364  20.342 -0.4705  0.0062  0.7784
   95CHL1  H27A 9508   1.703   2.284  20.314 -0.5860  0.7417 -1.1488
   95CHL1  H27B 9509   1.851   2.332  20.416  1.9736  1.3838 -1.0034
   95CHL1  H27C 9510   1.716   2.437  20.401 -0.9079 -1.0612  1.7196
   96CHL1    C3 9511   3.345   3.639  22.104 -0.4407  0.0198  0.0598
   96CHL1    H3 9512   3.353   3.552  22.034  2.2174  0.7253 -0.6174
   96CHL1    O3 9513   3.478   3.677  22.145  0.8148 -0.2520 -0.7453
   96CHL1   H3' 9514   3.525   3.666  22.062 -1.2850 -2.2660 -1.8206
   96CHL1    C4 9515   3.278   3.738  22.006 -0.3068  0.1580  0.0883
   96CHL1   H4A 9516   3.281   3.836  22.059  2.2242 -0.6595  1.6236
   96CHL1   H4B 9517   3.348   3.739  21.919 -1.1962 -1.1460 -0.6629
   96CHL1    C5 9518   3.137   3.719  21.963 -0.4360  0.1029 -0.7232
   96CHL1    C6 9519   3.105   3.722  21.828 -0.3192  0.5940  0.0999
   96CHL1    H6 9520   3.187   3.732  21.755 -1.1582 -1.1165 -1.1463
   96CHL1    C7 9521   2.974   3.702  21.769  0.8634 -0.0986  0.3999
   96CHL1   H7A 9522   2.954   3.773  21.686 -1.1968  1.2805  1.9459
   96CHL1   H7B 9523   2.961   3.604  21.718  1.2799 -0.2000  0.4880
   96CHL1    C8 9524   2.867   3.711  21.878  0.3354 -0.1137  0.3437
   96CHL1    H8 9525   2.845   3.816  21.907 -0.7675  0.0180 -0.8538
   96CHL1   C14 9526   2.739   3.650  21.825 -0.5316  0.1139 -0.7542
   96CHL1   H14 9527   2.771   3.544  21.819 -0.0088  0.3170 -1.6264
   96CHL1   C15 9528   2.684   3.695  21.690  0.0604 -0.0986  0.1598
   96CHL1  H15A 9529   2.683   3.806  21.685  2.0949 -0.0022  0.9506
   96CHL1  H15B 9530   2.742   3.656  21.604  2.3243  0.1658  1.5008
   96CHL1   C16 9531   2.547   3.630  21.682 -0.7527  0.6680 -0.0914
   96CHL1  H16A 9532   2.477   3.715  21.669 -1.6960 -0.1733 -0.6064
   96CHL1  H16B 9533   2.533   3.549  21.607  2.3114  1.2127 -1.4258
   96CHL1   C17 9534   2.515   3.572  21.824  0.4662 -0.0149  0.6864
   96CHL1   H17 9535   2.545   3.465  21.827  0.7295  0.0644  1.0604
   96CHL1   C13 9536   2.620   3.648  21.914 -0.0027 -0.5462  0.5022
   96CHL1   C18 9537   2.564   3.789  21.934 -0.0220 -0.2371  0.5324
   96CHL1  H18A 9538   2.524   3.836  21.842 -2.0503 -0.4096  1.2820
   96CHL1  H18B 9539   2.478   3.785  22.004  1.0283 -0.2732  1.8601
   96CHL1  H18C 9540   2.640   3.861  21.971 -0.1547 -0.6599  1.6691
   96CHL1   C12 9541   2.657   3.581  22.044 -0.6895  0.9466  0.2139
   96CHL1  H12A 9542   2.586   3.601  22.127 -0.9013  0.7302  0.0852
   96CHL1  H12B 9543   2.651   3.473  22.017 -1.0404  1.3003 -1.1853
   96CHL1   C11 9544   2.789   3.618  22.106 -0.0541 -0.1675  0.6522
   96CHL1  H11A 9545   2.783   3.715  22.160  3.1583  1.1805 -1.1045
   96CHL1  H11B 9546   2.819   3.545  22.183  0.4797 -0.0965  0.5193
   96CHL1    C9 9547   2.908   3.632  22.006  0.4318  0.3523 -0.4321
   96CHL1    H9 9548   2.937   3.529  21.976  0.2530  0.4773 -1.0432
   96CHL1   C10 9549   3.043   3.682  22.079 -0.3205  0.5981  0.0605
   96CHL1   C19 9550   3.021   3.805  22.169  0.5715  0.5582  0.3349
   96CHL1  H19A 9551   3.106   3.840  22.231  0.3883 -0.7526  1.3714
   96CHL1  H19B 9552   2.994   3.889  22.101 -1.7537 -1.6659 -1.7089
   96CHL1  H19C 9553   2.936   3.797  22.241 -1.4469 -0.8586 -2.0344
   96CHL1    C1 9554   3.107   3.575  22.162 -0.1554 -0.4881  0.0931
   96CHL1   H1A 9555   3.032   3.560  22.243  1.6382 -0.3232  1.8501
   96CHL1   H1B 9556   3.123   3.478  22.110  1.0787 -0.6541  0.7342
   96CHL1    C2 9557   3.251   3.608  22.222  0.0848  0.3356 -0.2966
   96CHL1   H2A 9558   3.293   3.523  22.279  0.0894  2.0785  2.4687
   96CHL1   H2B 9559   3.263   3.704  22.276  2.1392  0.0889 -0.2348
   96CHL1   C20 9560   2.366   3.582  21.851 -0.6056  0.4576  0.2692
   96CHL1   H20 9561   2.324   3.685  21.848 -1.9073 -0.0743 -1.3181
   96CHL1   C21 9562   2.337   3.520  21.994  0.0995  1.0216 -0.1356
   96CHL1  H21A 9563   2.384   3.581  22.075  0.7033 -0.5905  0.7796
   96CHL1  H21B 9564   2.385   3.421  22.008 -0.5172  0.8818  1.1935
   96CHL1  H21C 9565   2.227   3.506  22.003  0.3933 -3.0306 -1.0584
   96CHL1   C22 9566   2.284   3.512  21.734 -0.1445  0.4295 -0.3754
   96CHL1  H22A 9567   2.304   3.552  21.632  0.6010  1.2837  0.0930
   96CHL1  H22B 9568   2.310   3.405  21.747 -0.4632  0.5408  1.5057
   96CHL1   C23 9569   2.136   3.517  21.743 -0.2337 -0.0978 -0.5281
   96CHL1  H23A 9570   2.104   3.464  21.651  0.1696 -0.3710 -0.5151
   96CHL1  H23B 9571   2.110   3.457  21.833  0.6787  0.3362  0.0291
   96CHL1   C24 9572   2.072   3.655  21.749  0.0867 -0.7868  0.2655
   96CHL1  H24A 9573   2.037   3.677  21.852  1.8014  0.5540  0.5994
   96CHL1  H24B 9574   2.154   3.729  21.743 -0.9151  0.3325 -0.0688
   96CHL1   C25 9575   1.977   3.696  21.635  0.2493  0.2843  0.5361
   96CHL1   H25 9576   2.029   3.671  21.540 -1.4348 -0.2211 -0.3048
   96CHL1   C26 9577   1.851   3.603  21.639 -0.4644 -0.9249  0.3059
   96CHL1  H26A 9578   1.797   3.631  21.546 -1.8993  0.8647  1.6029
   96CHL1  H26B 9579   1.882   3.497  21.624 -2.6038 -1.1337 -4.8431
   96CHL1  H26C 9580   1.782   3.623  21.724 -1.9398  2.0361 -1.4525
   96CHL1   C27 9581   1.948   3.845  21.629 -0.6427  0.1729 -0.2007
   96CHL1  H27A 9582   1.899   3.880  21.535  0.6255 -0.0686 -0.9800
   96CHL1  H27B 9583   1.885   3.866  21.718  0.5782 -0.3447  0.8104
   96CHL1  H27C 9584   2.037   3.911  21.631 -1.8159  2.0140 -2.6062
   97OSM      N 9585   0.080   3.789  21.142 -0.1307  0.4421 -0.0434
   97OSM    C15 9586   0.142   3.685  21.057  0.5892  0.0824 -0.1142
   97OSM   H15A 9587   0.118   3.701  20.953  0.9154 -0.0493 -0.2130
   97OSM   H15B 9588   0.119   3.582  21.081  1.3176 -0.1236 -0.2696
   97OSM   H15C 9589   0.250   3.683  21.062  0.5714 -0.7790  0.1395
   97OSM    C14 9590  -0.064   3.793  21.111  0.1135  0.1232 -0.0038
   97OSM   H14A 9591  -0.097   3.690  21.121  3.1871 -1.0194 -0.4425
   97OSM   H14B 9592  -0.074   3.817  21.006  2.2190 -1.2994 -0.6114
   97OSM   H14C 9593  -0.112   3.862  21.178 -0.2866 -0.4336  0.2897
   97OSM    C13 9594   0.097   3.734  21.282  0.3496  0.6660 -0.7467
   97OSM   H13A 9595   0.197   3.696  21.298 -0.8182 -1.5610  2.1116
   97OSM   H13B 9596   0.034   3.647  21.289  2.6964 -1.0503  3.4156
   97OSM   H13C 9597   0.076   3.806  21.360 -1.3136 -0.5827  0.0265
   97OSM    C12 9598   0.138   3.930  21.121 -0.3774 -0.1173 -0.2314
   97OSM   H12A 9599   0.131   3.961  21.018  1.1318 -2.0561 -0.9956
   97OSM   H12B 9600   0.243   3.935  21.147 -0.0460  0.8826 -1.6574
   97OSM    C11 9601   0.071   4.036  21.203  0.6048 -0.0634 -0.5890
   97OSM   H11A 9602   0.145   4.102  21.251 -1.1408 -0.3619  2.8607
   97OSM   H11B 9603   0.013   3.999  21.291  0.8660  2.6873  0.8300
   97OSM      P 9604  -0.167   4.143  21.155  0.3101 -0.0462  0.3176
   97OSM    O13 9605  -0.255   4.063  21.064 -0.1042 -0.3830 -0.2234
   97OSM    O14 9606  -0.188   4.141  21.296  0.2071 -0.3036 -0.4551
   97OSM    O11 9607  -0.180   4.298  21.107  0.2672 -0.0902 -0.6996
   97OSM    O12 9608  -0.015   4.107  21.113  0.1122 -0.0699 -0.1585
   97OSM    C1S 9609  -0.121   4.345  20.989 -0.6332  0.0840 -0.2566
   97OSM    H1S 9610  -0.027   4.288  20.971 -1.5925 -1.6293 -0.0873
   97OSM    H1T 9611  -0.123   4.456  20.984 -2.2466  0.0454 -1.0188
   97OSM     NF 9612  -0.122   4.370  20.746  0.3120  0.2287  0.2232
   97OSM    HNF 9613  -0.121   4.470  20.741 -3.1799  0.4281  1.3756
   97OSM    C2S 9614  -0.205   4.321  20.856 -0.4746  0.0087  0.0169
   97OSM    H2S 9615  -0.233   4.214  20.842 -0.7065 -0.3118  2.5651
   97OSM    C3S 9616  -0.348   4.387  20.876  0.6831 -1.0203  0.2268
   97OSM    H3S 9617  -0.327   4.487  20.918 -1.9592 -0.5427  0.5857
   97OSM     O3 9618  -0.434   4.327  20.969 -0.2484  0.7709  0.0087
   97OSM    HO3 9619  -0.369   4.282  21.022  0.7728  1.9593 -0.2040
   97OSM    C4S 9620  -0.437   4.396  20.753  0.3984 -0.1055 -0.4492
   97OSM    H4S 9621  -0.460   4.295  20.716  2.5369 -0.0001 -2.2853
   97OSM    C5S 9622  -0.477   4.507  20.685 -0.3965  0.2787 -0.1307
   97OSM    H5S 9623  -0.430   4.600  20.721  2.8936 -1.4767  0.5545
   97OSM    C6S 9624  -0.567   4.489  20.569 -0.0777 -0.5041  0.5869
   97OSM    H6S 9625  -0.655   4.423  20.584 -1.6834  1.4229  0.1376
   97OSM    H6T 9626  -0.508   4.460  20.479 -1.0515 -0.4630 -0.0913
   97OSM    C7S 9627  -0.633   4.622  20.536  0.0735  0.0087  0.1159
   97OSM    H7S 9628  -0.556   4.700  20.517  0.9111 -0.8566 -0.1474
   97OSM    H7T 9629  -0.689   4.663  20.623  2.2849 -0.3860  1.8305
   97OSM    C8S 9630  -0.728   4.617  20.411 -0.1670 -0.0412  0.6107
   97OSM    H8S 9631  -0.655   4.564  20.347  1.7150  0.9868  1.8010
   97OSM    H8T 9632  -0.745   4.721  20.378 -0.8086  0.1847  1.5950
   97OSM    C9S 9633  -0.857   4.546  20.448  0.0026  0.4221  0.4034
   97OSM    H9S 9634  -0.897   4.603  20.535 -0.1311  1.0235 -0.0489
   97OSM    H9T 9635  -0.839   4.440  20.478 -0.3040 -0.0381 -0.9484
   97OSM   C10S 9636  -0.956   4.525  20.332 -0.3111  0.3799 -0.0564
   97OSM   H10S 9637  -0.908   4.466  20.251 -1.5556 -2.6829  1.2780
   97OSM   H10T 9638  -0.975   4.626  20.290  0.1810  0.4187 -0.1943
   97OSM   C11S 9639  -1.086   4.461  20.372  0.1555 -0.1836  0.5867
   97OSM   H11S 9640  -1.133   4.524  20.451 -0.2177  1.3238 -0.7781
   97OSM   H11T 9641  -1.067   4.358  20.409 -0.0037 -0.4126  0.0409
   97OSM   C12S 9642  -1.182   4.443  20.249 -0.0586 -0.1708  0.0450
   97OSM   H12S 9643  -1.130   4.413  20.155 -1.2229 -3.1584  0.2746
   97OSM   H12T 9644  -1.239   4.538  20.243 -1.0220 -0.6040  1.8251
   97OSM   C13S 9645  -1.282   4.328  20.283 -0.4936 -0.8682 -0.1372
   97OSM   H13S 9646  -1.339   4.352  20.376 -0.9340  1.7459 -0.9896
   97OSM   H13T 9647  -1.216   4.240  20.293 -0.1629 -0.3511  4.3923
   97OSM   C14S 9648  -1.383   4.305  20.172  0.2665 -0.2365 -0.1204
   97OSM   H14S 9649  -1.466   4.379  20.177 -0.6632 -1.1215 -1.6034
   97OSM   H14T 9650  -1.433   4.206  20.185  0.0389  0.0076  0.9720
   97OSM   C15S 9651  -1.317   4.299  20.032 -0.6026 -0.0759  0.0546
   97OSM   H15S 9652  -1.251   4.210  20.034 -1.7891 -0.9918  1.4822
   97OSM   H15T 9653  -1.257   4.389  20.008 -2.0393  1.1983  0.9872
   97OSM   C16S 9654  -1.425   4.282  19.926  0.1914  0.3753  0.0494
   97OSM   H16S 9655  -1.475   4.378  19.901  1.9051  1.3490  0.1887
   97OSM   H16T 9656  -1.504   4.211  19.959  1.9115 -1.9082 -0.5027
   97OSM   C17S 9657  -1.376   4.221  19.795 -0.0218  0.1048  0.3547
   97OSM   H17S 9658  -1.330   4.122  19.816 -2.9922 -0.9458  2.8246
   97OSM   H17T 9659  -1.305   4.290  19.745  0.4501 -0.8692 -0.3608
   97OSM   C18S 9660  -1.491   4.181  19.697  0.0606  0.6444 -0.4396
   97OSM   H18S 9661  -1.565   4.263  19.697 -1.2542 -0.4921 -1.0183
   97OSM   H18T 9662  -1.554   4.096  19.734  0.5896  0.4858  0.1194
   97OSM   H18U 9663  -1.448   4.165  19.596  0.3309  0.4949 -0.3017
   97OSM    C1F 9664  -0.030   4.290  20.699  0.1882  0.0949 -0.0704
   97OSM     OF 9665  -0.042   4.176  20.729 -0.1750  0.3546 -0.0029
   97OSM    C2F 9666   0.088   4.344  20.616  0.1653 -0.4283  0.4114
   97OSM    H2F 9667   0.176   4.356  20.684  0.9557  1.0443 -0.7854
   97OSM    H2G 9668   0.070   4.441  20.565 -0.6606 -0.9324 -0.2666
   97OSM    C3F 9669   0.129   4.261  20.495 -0.5429  0.4213  0.3196
   97OSM    H3F 9670   0.064   4.295  20.411 -1.5341  0.3605  1.0462
   97OSM    H3G 9671   0.108   4.153  20.513 -0.9752  0.3249 -0.6946
   97OSM    C4F 9672   0.279   4.272  20.474  0.2438 -0.7676 -0.3900
   97OSM    H4F 9673   0.335   4.264  20.569  0.0164  1.6528 -0.0043
   97OSM    H4G 9674   0.291   4.372  20.428 -0.1560 -0.3569  0.3850
   97OSM    C5F 9675   0.320   4.166  20.372 -0.5230  0.1892 -0.5988
   97OSM    H5F 9676   0.415   4.210  20.335 -2.4236  3.4856 -2.0679
   97OSM    H5G 9677   0.252   4.152  20.284  0.2507  0.5501 -1.2627
   97OSM    C6F 9678   0.372   4.029  20.425 -0.1834  0.0977 -0.8410
   97OSM    H6F 9679   0.291   3.959  20.453  1.7117 -1.4050  1.2658
   97OSM    H6G 9680   0.432   4.052  20.516 -1.0169 -0.4421 -0.1409
   97OSM    C7F 9681   0.455   3.950  20.320 -0.3665  0.0054  0.4413
   97OSM    H7F 9682   0.563   3.946  20.343 -0.2090 -1.9998 -0.4054
   97OSM    H7G 9683   0.446   3.999  20.221  0.9551 -0.5381  0.0377
   97OSM    C8F 9684   0.410   3.804  20.290  0.6505  0.1776  0.4479
   97OSM    H8F 9685   0.468   3.763  20.205  0.9975 -1.1311  1.2766
   97OSM    H8G 9686   0.305   3.814  20.254  0.5116  0.0826  0.8143
   97OSM    C9F 9687   0.418   3.716  20.414  0.9384  0.0253  0.6795
   97OSM    H9F 9688   0.353   3.745  20.498 -1.3630 -2.0813 -0.2501
   97OSM   C10F 9689   0.486   3.599  20.425  0.1039 -0.9463 -0.2038
   97OSM   H10F 9690   0.485   3.542  20.520  0.5987  0.3698  0.6281
   97OSM   C11F 9691   0.580   3.539  20.322  0.1369  0.1435 -0.9679
   97OSM   H11F 9692   0.518   3.530  20.230 -0.6666  0.2708 -0.4518
   97OSM   H11G 9693   0.601   3.431  20.340 -0.1732  0.2818  0.3560
   97OSM   C12F 9694   0.721   3.602  20.307  0.1724 -0.4128  0.1262
   97OSM   H12F 9695   0.773   3.584  20.404 -0.1387 -0.9847  0.1922
   97OSM   H12G 9696   0.715   3.712  20.297 -0.4480 -0.4282  0.2758
   97OSM   C13F 9697   0.801   3.544  20.196 -1.0356 -0.5163  1.4459
   97OSM   H13F 9698   0.764   3.579  20.098  1.2701  0.5055  0.8857
   97OSM   H13G 9699   0.789   3.435  20.183 -2.0318 -0.1598 -1.2141
   97OSM   C14F 9700   0.949   3.579  20.224 -0.1545  0.4759 -0.5248
   97OSM   H14F 9701   0.972   3.543  20.326 -1.3388 -0.1646 -0.4629
   97OSM   H14G 9702   0.965   3.689  20.217  0.5473  0.4747  0.7747
   97OSM   C15F 9703   1.042   3.512  20.112  0.4362  0.2246 -0.6843
   97OSM   H15F 9704   1.008   3.546  20.011 -0.9598 -0.7766 -0.5734
   97OSM   H15G 9705   1.036   3.402  20.101 -1.1628  0.4599 -3.2400
   97OSM   C16F 9706   1.185   3.565  20.120 -0.2094 -0.4098 -0.4582
   97OSM   H16F 9707   1.241   3.563  20.216  1.8108  0.0466 -1.5681
   97OSM   H16G 9708   1.177   3.676  20.109  0.8180  0.0025  2.2035
   97OSM   C17F 9709   1.264   3.512  20.004  0.5060  0.0713  0.0854
   97OSM   H17F 9710   1.224   3.551  19.908 -0.7285  3.7147  1.9098
   97OSM   H17G 9711   1.233   3.406  19.992 -0.3755  0.4384 -1.1039
   97OSM   C18F 9712   1.415   3.524  20.009 -0.8841 -0.1836  0.0994
   97OSM   H18F 9713   1.466   3.465  20.089 -0.7817 -0.6854 -0.3344
   97OSM   H18G 9714   1.438   3.633  20.009 -2.3514  0.1516  1.2626
   97OSM   H18H 9715   1.454   3.492  19.910 -0.4140  1.7221 -0.3825
   98OSM      N 9716   4.304   1.230  22.135 -0.4318 -0.1985  0.4332
   98OSM    C15 9717   4.417   1.288  22.046  0.2137  0.2080 -0.4370
   98OSM   H15A 9718   4.372   1.314  21.952 -0.5426 -2.9210 -1.0285
   98OSM   H15B 9719   4.496   1.216  22.034 -2.0978 -2.3367 -1.2479
   98OSM   H15C 9720   4.456   1.379  22.090  0.6625  0.2632 -0.9416
   98OSM    C14 9721   4.255   1.101  22.077  0.4925  0.3259 -0.5966
   98OSM   H14A 9722   4.166   1.060  22.123 -0.2664  1.3441 -1.1228
   98OSM   H14B 9723   4.326   1.021  22.092  0.0800 -0.1404 -1.0679
   98OSM   H14C 9724   4.229   1.102  21.973 -1.4774 -1.3986 -0.2070
   98OSM    C13 9725   4.363   1.212  22.272  0.8770  0.5615  0.0032
   98OSM   H13A 9726   4.300   1.141  22.325  0.0159  2.4363  1.6220
   98OSM   H13B 9727   4.357   1.303  22.330 -1.7829  0.2853  0.3034
   98OSM   H13C 9728   4.463   1.173  22.265  0.5175 -0.6515  1.2373
   98OSM    C12 9729   4.190   1.326  22.138 -0.4957  0.2635  0.0941
   98OSM   H12A 9730   4.231   1.417  22.179 -1.4405  2.3122 -3.1426
   98OSM   H12B 9731   4.120   1.283  22.208  2.0263 -1.2037  1.8493
   98OSM    C11 9732   4.109   1.370  22.008 -1.3416 -0.0161 -0.4248
   98OSM   H11A 9733   4.027   1.433  22.049 -2.4019 -0.0297 -2.4389
   98OSM   H11B 9734   4.051   1.280  21.979  0.1717 -0.6694 -1.5617
   98OSM      P 9735   4.120   1.441  21.762  0.4017 -0.0289  0.1799
   98OSM    O13 9736   4.193   1.543  21.685  0.5387 -0.1511 -0.5440
   98OSM    O14 9737   4.113   1.304  21.703  0.1794  0.0298  0.9083
   98OSM    O11 9738   3.972   1.489  21.792 -0.1289 -0.5812  0.6219
   98OSM    O12 9739   4.191   1.435  21.901  0.7734  0.1338  0.4676
   98OSM    C1S 9740   3.955   1.633  21.778  0.4295  0.2503 -0.2816
   98OSM    H1S 9741   3.994   1.674  21.682  0.2906  0.2595 -0.3349
   98OSM    H1T 9742   3.998   1.687  21.864  0.6569 -0.3746  0.0029
   98OSM     NF 9743   3.756   1.799  21.737 -0.0953 -0.7947 -0.6486
   98OSM    HNF 9744   3.713   1.860  21.804 -0.3503 -0.3142 -1.2347
   98OSM    C2S 9745   3.801   1.667  21.781  0.5244 -0.0291  0.0305
   98OSM    H2S 9746   3.760   1.597  21.705  2.0710  0.5151 -1.3767
   98OSM    C3S 9747   3.740   1.632  21.924  0.3988 -0.0134  0.7615
   98OSM    H3S 9748   3.797   1.692  21.998 -0.3021  0.9592  0.5365
   98OSM     O3 9749   3.762   1.496  21.960 -0.2707  0.3602  0.2746
   98OSM    HO3 9750   3.844   1.473  21.916 -0.9855  1.0600 -1.5276
   98OSM    C4S 9751   3.595   1.665  21.933 -0.2540  0.3355 -0.2769
   98OSM    H4S 9752   3.591   1.767  21.975  0.7273  0.7440 -1.1394
   98OSM    C5S 9753   3.485   1.592  21.898  0.4888  0.0053  0.4069
   98OSM    H5S 9754   3.500   1.486  21.869 -0.8670 -0.1238  0.0712
   98OSM    C6S 9755   3.336   1.635  21.914  0.0498 -0.2620 -0.5065
   98OSM    H6S 9756   3.281   1.552  21.963 -2.3850  0.5450 -1.7010
   98OSM    H6T 9757   3.290   1.677  21.822  0.1902  1.9163  0.3726
   98OSM    C7S 9758   3.312   1.753  22.013 -0.6054  0.4162  0.3400
   98OSM    H7S 9759   3.352   1.851  21.977 -2.0039  2.0723  3.0159
   98OSM    H7T 9760   3.374   1.727  22.102  0.2402  0.3950 -0.2382
   98OSM    C8S 9761   3.176   1.776  22.066  0.5446  0.1760  0.4799
   98OSM    H8S 9762   3.114   1.807  21.979  0.6672 -2.2680 -0.5746
   98OSM    H8T 9763   3.180   1.862  22.136 -1.4965 -0.0130  0.9032
   98OSM    C9S 9764   3.105   1.656  22.135 -0.0761 -0.1269 -0.5876
   98OSM    H9S 9765   3.163   1.633  22.227 -1.7708  4.6956  2.0257
   98OSM    H9T 9766   3.108   1.566  22.069  0.9027 -0.1055 -0.5843
   98OSM   C10S 9767   2.960   1.676  22.170 -0.4989 -0.3239  0.6281
   98OSM   H10S 9768   2.955   1.777  22.216 -0.0525  0.5060 -1.0791
   98OSM   H10T 9769   2.931   1.597  22.243  0.3718 -2.6446 -1.4175
   98OSM   C11S 9770   2.864   1.670  22.051 -0.7118  0.1168 -0.3923
   98OSM   H11S 9771   2.857   1.560  22.035 -0.4836 -0.9902  4.9831
   98OSM   H11T 9772   2.903   1.726  21.964  1.8782 -1.2473 -0.1871
   98OSM   C12S 9773   2.723   1.712  22.095 -0.2576 -0.5942  0.1660
   98OSM   H12S 9774   2.678   1.736  21.996  0.4346 -0.8036 -0.2039
   98OSM   H12T 9775   2.735   1.810  22.145 -1.4809 -0.7131  0.7258
   98OSM   C13S 9776   2.639   1.612  22.176  0.2192  0.4502  0.1444
   98OSM   H13S 9777   2.682   1.584  22.274 -0.1506 -0.9106 -0.0582
   98OSM   H13T 9778   2.632   1.522  22.111  0.0958  1.7011 -1.6523
   98OSM   C14S 9779   2.498   1.665  22.199  0.9845  0.5135 -0.2263
   98OSM   H14S 9780   2.499   1.771  22.167  2.6358  0.1269 -1.6149
   98OSM   H14T 9781   2.481   1.653  22.308 -0.7871 -0.1483 -0.5471
   98OSM   C15S 9782   2.394   1.598  22.115 -0.0375  0.8726  0.2686
   98OSM   H15S 9783   2.443   1.602  22.015  4.1098 -2.1961  1.8724
   98OSM   H15T 9784   2.295   1.648  22.126  0.3662  1.3695  2.0935
   98OSM   C16S 9785   2.376   1.450  22.146 -0.2566 -0.1142 -0.0894
   98OSM   H16S 9786   2.350   1.434  22.253  0.7618 -1.5833 -0.0271
   98OSM   H16T 9787   2.469   1.389  22.139  0.9343  1.8180 -2.0736
   98OSM   C17S 9788   2.263   1.382  22.064 -0.6393  0.3182  0.3495
   98OSM   H17S 9789   2.291   1.402  21.959  0.3399 -0.6012  0.4178
   98OSM   H17T 9790   2.164   1.432  22.075 -1.2592 -0.8731  0.3530
   98OSM   C18S 9791   2.254   1.228  22.085  0.4101 -0.3541  0.5805
   98OSM   H18S 9792   2.226   1.210  22.191 -0.4832  0.7856  0.5521
   98OSM   H18T 9793   2.342   1.169  22.052 -1.7245 -1.7476 -3.2846
   98OSM   H18U 9794   2.173   1.200  22.015  1.2376  1.5616 -1.2535
   98OSM    C1F 9795   3.763   1.841  21.614 -0.1526  0.2755 -0.3085
   98OSM     OF 9796   3.819   1.775  21.531 -0.3201  0.2579  0.5493
   98OSM    C2F 9797   3.706   1.974  21.581  0.0169  0.5061 -0.1000
   98OSM    H2F 9798   3.737   2.037  21.666  0.1305  2.4907 -1.5535
   98OSM    H2G 9799   3.595   1.968  21.588 -0.0056  0.6695 -0.3109
   98OSM    C3F 9800   3.756   2.020  21.438  0.2835 -0.2131 -0.0549
   98OSM    H3F 9801   3.711   1.948  21.367  0.0982 -0.0691 -0.0847
   98OSM    H3G 9802   3.867   2.021  21.427  0.2430  2.1829 -0.7433
   98OSM    C4F 9803   3.722   2.164  21.402  0.3645 -0.0871 -0.0537
   98OSM    H4F 9804   3.773   2.198  21.310 -0.5879  1.9998  0.1206
   98OSM    H4G 9805   3.754   2.233  21.484  1.3991 -0.0764 -0.4529
   98OSM    C5F 9806   3.564   2.191  21.378 -0.0227  0.5218 -0.0988
   98OSM    H5F 9807   3.564   2.297  21.345  0.9447  0.7544  0.5829
   98OSM    H5G 9808   3.493   2.178  21.462 -2.4087  0.2421 -2.0799
   98OSM    C6F 9809   3.510   2.109  21.262  0.3464  0.3126 -0.3265
   98OSM    H6F 9810   3.532   2.001  21.279  2.0354  0.8020  0.7396
   98OSM    H6G 9811   3.566   2.130  21.169  2.7389 -2.8759  0.2017
   98OSM    C7F 9812   3.367   2.140  21.234  0.7516  0.5734 -0.5130
   98OSM    H7F 9813   3.356   2.246  21.201 -1.7396  0.6724  0.4966
   98OSM    H7G 9814   3.323   2.140  21.335  0.2890  0.0375 -0.7142
   98OSM    C8F 9815   3.295   2.041  21.134  0.6385 -1.0405  0.7558
   98OSM    H8F 9816   3.189   2.037  21.167 -0.0008  0.2653 -1.0404
   98OSM    H8G 9817   3.350   1.947  21.158  0.4925 -1.0222  1.1799
   98OSM    C9F 9818   3.309   2.083  20.994  0.4244 -0.0377 -0.5509
   98OSM    H9F 9819   3.390   2.147  20.957  0.3180  0.6180  0.3341
   98OSM   C10F 9820   3.217   2.051  20.899  0.6228  0.0719  0.0631
   98OSM   H10F 9821   3.242   2.081  20.796  0.6263  2.6229  0.7617
   98OSM   C11F 9822   3.096   1.964  20.908 -0.0063 -0.1321 -0.1185
   98OSM   H11F 9823   3.011   2.018  20.861 -0.2333 -2.4441 -2.5307
   98OSM   H11G 9824   3.065   1.944  21.013  3.0509 -0.7939  0.7283
   98OSM   C12F 9825   3.111   1.835  20.829 -0.1228  0.2228  1.3795
   98OSM   H12F 9826   3.159   1.843  20.729 -1.3350 -2.7635  0.4078
   98OSM   H12G 9827   3.007   1.801  20.806  0.0284 -0.3466  1.5328
   98OSM   C13F 9828   3.202   1.732  20.898 -0.2230  0.4314 -0.8879
   98OSM   H13F 9829   3.145   1.692  20.986  1.0328 -1.6833 -0.9757
   98OSM   H13G 9830   3.292   1.780  20.941 -0.7788 -0.8228  1.9665
   98OSM   C14F 9831   3.231   1.615  20.807 -0.4298  0.5826  0.2163
   98OSM   H14F 9832   3.279   1.639  20.710  2.1722 -1.1292  0.9761
   98OSM   H14G 9833   3.133   1.568  20.782 -0.2180  0.5707 -0.6158
   98OSM   C15F 9834   3.322   1.495  20.871  0.2677 -0.3598 -0.5558
   98OSM   H15F 9835   3.265   1.461  20.960 -0.6968 -1.3457 -1.5161
   98OSM   H15G 9836   3.417   1.540  20.907  0.8880 -2.0555  0.0217
   98OSM   C16F 9837   3.352   1.389  20.764 -0.8283  1.0825 -0.1593
   98OSM   H16F 9838   3.428   1.327  20.815  0.9045  3.6536  0.5937
   98OSM   H16G 9839   3.405   1.454  20.690  3.3818  2.7337  3.8480
   98OSM   C17F 9840   3.230   1.319  20.700  0.3390 -0.0648 -0.1307
   98OSM   H17F 9841   3.193   1.400  20.634 -1.6376 -0.1892  0.7439
   98OSM   H17G 9842   3.157   1.304  20.783  0.1459 -0.7836 -0.4259
   98OSM   C18F 9843   3.249   1.179  20.631  0.0536 -0.2945 -0.0015
   98OSM   H18F 9844   3.265   1.099  20.707 -1.0364  0.1579  0.7229
   98OSM   H18G 9845   3.332   1.181  20.557  1.0589 -0.6876  1.0720
   98OSM   H18H 9846   3.160   1.165  20.566  0.6296  0.0414 -0.8791
   99OSM      N 9847   0.978   1.995  22.468 -0.7343 -0.2339  0.7102
   99OSM    C15 9848   1.121   1.957  22.486 -0.2385  0.2382  0.4706
   99OSM   H15A 9849   1.174   1.921  22.399 -0.5333  0.0228  0.3777
   99OSM   H15B 9850   1.119   1.874  22.556  1.2051  0.6020  0.9761
   99OSM   H15C 9851   1.178   2.040  22.525 -0.3190 -0.4618  2.1838
   99OSM    C14 9852   0.979   2.124  22.395 -0.2898  0.1173 -0.3343
   99OSM   H14A 9853   1.024   2.202  22.455 -0.9208  2.3262 -2.5722
   99OSM   H14B 9854   0.878   2.159  22.377 -0.0111  2.0519  1.4757
   99OSM   H14C 9855   1.030   2.122  22.300  0.0075 -3.0397 -0.2088
   99OSM    C13 9856   0.921   1.896  22.378  0.7784 -0.2059  0.4964
   99OSM   H13A 9857   0.905   1.802  22.429 -1.9483 -1.0441 -1.6788
   99OSM   H13B 9858   0.983   1.873  22.293 -2.0730 -1.4085 -1.3825
   99OSM   H13C 9859   0.824   1.917  22.337  0.1049 -0.2819  1.9798
   99OSM    C12 9860   0.911   2.003  22.602  0.6253 -0.1945  0.3229
   99OSM   H12A 9861   0.811   2.032  22.574  0.2961 -1.0171  0.6000
   99OSM   H12B 9862   0.962   2.080  22.659 -0.1923 -0.9109  2.1091
   99OSM    C11 9863   0.912   1.876  22.696 -0.9614 -0.2543 -0.6878
   99OSM   H11A 9864   0.847   1.900  22.782  0.1845 -0.2451  0.1960
   99OSM   H11B 9865   1.018   1.872  22.728 -1.0019 -1.5674 -0.6615
   99OSM      P 9866   0.745   1.685  22.658  0.2671  0.0642 -0.1157
   99OSM    O13 9867   0.704   1.699  22.796  0.2203  0.1458 -0.1214
   99OSM    O14 9868   0.644   1.731  22.559  0.3258  0.3589 -0.1527
   99OSM    O11 9869   0.789   1.540  22.628  0.7592 -0.0995  0.8153
   99OSM    O12 9870   0.878   1.760  22.621  0.3622 -0.0313 -0.4236
   99OSM    C1S 9871   0.859   1.505  22.511 -0.0174  0.3831 -0.3633
   99OSM    H1S 9872   0.901   1.593  22.457 -1.3246  0.0371 -2.0507
   99OSM    H1T 9873   0.805   1.453  22.429  1.6943  1.4745 -2.2899
   99OSM     NF 9874   1.049   1.386  22.418 -0.3346 -0.4113 -0.1715
   99OSM    HNF 9875   1.021   1.301  22.373 -2.2678  0.7643 -1.3759
   99OSM    C2S 9876   0.978   1.413  22.543 -0.2783  0.1794  0.4663
   99OSM    H2S 9877   1.048   1.481  22.596 -0.5851  0.5024  0.4598
   99OSM    C3S 9878   0.939   1.306  22.646  0.2752 -0.4291 -0.6191
   99OSM    H3S 9879   0.877   1.232  22.590 -0.4330 -1.4541  1.4373
   99OSM     O3 9880   0.862   1.335  22.769  0.2433  0.2889  0.8120
   99OSM    HO3 9881   0.834   1.425  22.755  2.5028  0.7958 -0.9581
   99OSM    C4S 9882   1.066   1.233  22.687  0.0567  0.0208 -0.9138
   99OSM    H4S 9883   1.096   1.151  22.620  1.5556 -0.5774  0.4130
   99OSM    C5S 9884   1.131   1.248  22.805 -0.3882  0.1069  0.0464
   99OSM    H5S 9885   1.090   1.312  22.885  1.5113  0.3495  0.8772
   99OSM    C6S 9886   1.233   1.158  22.853 -0.6170 -0.3703 -0.5713
   99OSM    H6S 9887   1.220   1.051  22.825  0.7764 -0.2110 -1.9135
   99OSM    H6T 9888   1.227   1.159  22.964 -1.0124  2.8452 -0.5345
   99OSM    C7S 9889   1.377   1.215  22.824 -0.2483  0.0999 -0.3045
   99OSM    H7S 9890   1.369   1.316  22.869  0.7818 -0.7253  1.8752
   99OSM    H7T 9891   1.383   1.230  22.714 -0.6110  1.4212 -0.1582
   99OSM    C8S 9892   1.496   1.140  22.880  0.2941 -0.9036  0.0900
   99OSM    H8S 9893   1.491   1.029  22.882 -1.2194 -0.8367  1.1790
   99OSM    H8T 9894   1.519   1.164  22.986  0.2128 -1.7504  0.3074
   99OSM    C9S 9895   1.621   1.180  22.800 -0.2655 -0.6739 -0.3579
   99OSM    H9S 9896   1.623   1.290  22.786  0.0866 -0.7955 -1.3865
   99OSM    H9T 9897   1.607   1.140  22.697 -0.7654 -0.2166 -0.4749
   99OSM   C10S 9898   1.753   1.121  22.851  0.0259  0.8504  0.1737
   99OSM   H10S 9899   1.734   1.082  22.953 -2.9202 -2.1605 -1.3045
   99OSM   H10T 9900   1.834   1.195  22.835  0.7067 -0.2788 -2.2793
   99OSM   C11S 9901   1.795   0.998  22.768  0.0956  0.0679  0.0170
   99OSM   H11S 9902   1.786   1.028  22.661 -1.0826 -0.7805 -0.1402
   99OSM   H11T 9903   1.736   0.907  22.792  0.8154 -0.1370  1.0632
   99OSM   C12S 9904   1.939   0.965  22.793 -0.4004 -0.5778  0.2828
   99OSM   H12S 9905   1.978   0.894  22.717 -3.3926  0.5257 -2.5173
   99OSM   H12T 9906   2.008   1.048  22.771 -0.1045 -1.2434 -1.4494
   99OSM   C13S 9907   1.977   0.946  22.943  0.7063  0.3597  0.0062
   99OSM   H13S 9908   1.923   0.858  22.985  0.9969  0.1869  0.0218
   99OSM   H13T 9909   1.929   1.029  22.999  0.3564 -0.1423  0.4613
   99OSM   C14S 9910   2.123   0.928  22.966  0.2633 -0.4867  0.4750
   99OSM   H14S 9911   2.157   0.864  22.882 -2.0257  1.5833 -2.2595
   99OSM   H14T 9912   2.150   0.891  23.067 -1.2188  1.2456  1.5646
   99OSM   C15S 9913   2.204   1.065  22.954 -0.6406  0.1867  0.2431
   99OSM   H15S 9914   2.172   1.132  23.037 -1.1909 -0.1406  0.2980
   99OSM   H15T 9915   2.184   1.124  22.862 -1.7044  0.7751  0.8259
   99OSM   C16S 9916   2.361   1.052  22.942  0.7257 -0.0010 -0.4321
   99OSM   H16S 9917   2.409   1.152  22.935  0.6426  0.0473 -0.3174
   99OSM   H16T 9918   2.370   0.982  22.856  1.0101 -1.1844  0.5499
   99OSM   C17S 9919   2.416   1.000  23.080 -0.7126  0.3159  0.9062
   99OSM   H17S 9920   2.374   0.900  23.104  2.3180 -2.8048 -4.6024
   99OSM   H17T 9921   2.381   1.076  23.153  1.0335  2.1328 -0.0590
   99OSM   C18S 9922   2.568   0.957  23.072  0.3213  0.2569 -0.0512
   99OSM   H18S 9923   2.588   0.868  23.009  2.9143 -1.5454  2.9931
   99OSM   H18T 9924   2.615   0.940  23.171 -0.6783 -0.0828  0.3794
   99OSM   H18U 9925   2.628   1.039  23.026  0.4947  0.0297 -0.2336
   99OSM    C1F 9926   1.105   1.482  22.335 -0.0146  0.1188 -0.5921
   99OSM     OF 9927   1.115   1.604  22.364 -0.4786  0.3841 -0.3571
   99OSM    C2F 9928   1.145   1.433  22.202  0.0688 -0.3822 -0.2631
   99OSM    H2F 9929   1.089   1.340  22.176  0.4156 -0.9555  0.9458
   99OSM    H2G 9930   1.249   1.394  22.208 -0.0615 -0.8385 -0.9040
   99OSM    C3F 9931   1.138   1.552  22.104  0.2473  0.3422  0.4972
   99OSM    H3F 9932   1.037   1.598  22.108  0.3277  0.4131  2.0306
   99OSM    H3G 9933   1.216   1.629  22.121  0.0402  0.9337 -1.0277
   99OSM    C4F 9934   1.168   1.499  21.959 -0.3166 -0.2042 -0.0156
   99OSM    H4F 9935   1.181   1.584  21.889 -2.5805 -0.1645 -0.4350
   99OSM    H4G 9936   1.087   1.441  21.910 -1.3855 -0.0456  1.4840
   99OSM    C5F 9937   1.309   1.433  21.951 -0.2852  0.9271 -0.1235
   99OSM    H5F 9938   1.309   1.332  21.998  1.5525  1.0532  0.2470
   99OSM    H5G 9939   1.375   1.505  22.004  0.7265 -0.0666  0.0171
   99OSM    C6F 9940   1.353   1.394  21.806  0.0899  0.7355  0.1551
   99OSM    H6F 9941   1.395   1.483  21.753 -0.5953  1.5441  0.9341
   99OSM    H6G 9942   1.265   1.370  21.743  0.8561  0.2093 -0.7356
   99OSM    C7F 9943   1.444   1.269  21.806 -0.3296  0.0985 -0.0665
   99OSM    H7F 9944   1.394   1.173  21.830  0.5045 -0.2926  0.1557
   99OSM    H7G 9945   1.519   1.289  21.886 -0.6303 -1.7217  0.7230
   99OSM    C8F 9946   1.511   1.251  21.668  0.0000  0.0306 -0.3119
   99OSM    H8F 9947   1.586   1.169  21.677 -0.6203 -0.6799 -1.4155
   99OSM    H8G 9948   1.581   1.333  21.640  0.5328 -0.1033  0.5738
   99OSM    C9F 9949   1.414   1.217  21.561 -0.3776 -1.1999  0.4036
   99OSM    H9F 9950   1.330   1.159  21.603 -1.4246 -1.4039 -1.8245
   99OSM   C10F 9951   1.418   1.267  21.439 -1.0486  0.3054  0.3271
   99OSM   H10F 9952   1.351   1.231  21.359  0.8577 -1.3456 -0.6124
   99OSM   C11F 9953   1.530   1.347  21.379 -0.0602  0.3803  0.7100
   99OSM   H11F 9954   1.553   1.430  21.449 -2.7624  1.2376  0.7057
   99OSM   H11G 9955   1.502   1.392  21.281 -0.4314 -0.7769  0.2714
   99OSM   C12F 9956   1.659   1.270  21.342  0.0665  0.2845  0.6043
   99OSM   H12F 9957   1.637   1.183  21.276 -1.4165  0.1796  1.1900
   99OSM   H12G 9958   1.699   1.238  21.440 -1.5428 -1.4726  0.7419
   99OSM   C13F 9959   1.761   1.358  21.270  0.5882  0.3811  0.6741
   99OSM   H13F 9960   1.770   1.450  21.331 -0.3803  0.1947  1.1123
   99OSM   H13G 9961   1.707   1.389  21.178  2.7587 -1.4612 -1.3730
   99OSM   C14F 9962   1.905   1.301  21.236  0.5059  0.3641  0.3784
   99OSM   H14F 9963   1.966   1.366  21.170  0.0168 -0.1526 -0.6067
   99OSM   H14G 9964   1.890   1.208  21.176  2.3839 -1.1437  2.0962
   99OSM   C15F 9965   1.997   1.266  21.362 -0.1001 -0.4018 -0.1416
   99OSM   H15F 9966   1.958   1.175  21.412  1.9632 -1.6081 -0.6136
   99OSM   H15G 9967   1.993   1.354  21.430  0.4064  0.2237 -0.9040
   99OSM   C16F 9968   2.148   1.237  21.336 -0.0007 -0.2982  0.1945
   99OSM   H16F 9969   2.185   1.319  21.271 -0.5470 -2.8569 -3.6730
   99OSM   H16G 9970   2.152   1.135  21.291 -0.3955 -1.0092  1.7084
   99OSM   C17F 9971   2.238   1.231  21.454  0.3347  0.4647  0.5224
   99OSM   H17F 9972   2.201   1.142  21.509 -0.8651 -0.6248 -1.8983
   99OSM   H17G 9973   2.232   1.322  21.517  0.6452  2.0320 -1.6084
   99OSM   C18F 9974   2.384   1.228  21.412 -0.1268  0.2198  0.3092
   99OSM   H18F 9975   2.456   1.240  21.495  2.1990 -0.4831 -1.4894
   99OSM   H18G 9976   2.398   1.315  21.344 -0.5675  1.4492  1.7525
   99OSM   H18H 9977   2.399   1.136  21.351  3.3253 -0.2130  1.5875
  100OSM      N 9978   1.386   2.445  27.245  0.3647  0.9169 -0.5475
  100OSM    C15 9979   1.337   2.303  27.284  0.1269 -0.2494  0.1487
  100OSM   H15A 9980   1.244   2.289  27.335  0.9190 -2.4740  1.1049
  100OSM   H15B 9981   1.417   2.258  27.342 -0.3207 -0.9076  0.2599
  100OSM   H15C 9982   1.338   2.241  27.195  1.3889  0.9746 -0.7441
  100OSM    C14 9983   1.514   2.414  27.173 -0.3737 -0.2268 -0.2018
  100OSM   H14A 9984   1.517   2.337  27.099  3.8813 -0.7671  0.3141
  100OSM   H14B 9985   1.582   2.367  27.242 -0.2639  0.5531  0.2358
  100OSM   H14C 9986   1.555   2.507  27.136 -1.9032  0.6284  0.1168
  100OSM    C13 9987   1.296   2.498  27.137  0.0935  0.1382  0.4816
  100OSM   H13A 9988   1.194   2.513  27.170 -0.6392 -0.9895 -1.1415
  100OSM   H13B 9989   1.283   2.429  27.055  2.4214  0.7855 -0.5218
  100OSM   H13C 9990   1.326   2.597  27.107  0.9363 -0.0181  0.7924
  100OSM    C12 9991   1.391   2.524  27.369 -0.1965 -0.9724 -0.0157
  100OSM   H12A 9992   1.286   2.531  27.395 -0.1761 -2.8428  0.7229
  100OSM   H12B 9993   1.424   2.624  27.346 -0.4967 -0.8695 -0.0027
  100OSM    C11 9994   1.478   2.472  27.488  0.7598 -0.3996  0.0700
  100OSM   H11A 9995   1.431   2.386  27.542  0.6266  0.0392  0.6662
  100OSM   H11B 9996   1.477   2.551  27.566 -2.8308  0.9589 -1.1456
  100OSM      P 9997   1.707   2.583  27.434  0.2138  0.0957 -0.3726
  100OSM    O13 9998   1.621   2.702  27.405 -0.1636 -0.7807 -0.3356
  100OSM    O14 9999   1.791   2.583  27.559 -0.1080 -0.5113 -0.3328
  100OSM    O1110000   1.800   2.551  27.315 -0.0289  0.7430  0.1287
  100OSM    O1210001   1.619   2.453  27.442 -0.1407  0.2740  0.5505
  100OSM    C1S10002   1.860   2.431  27.272  0.0914  0.3223  0.2543
  100OSM    H1S10003   1.787   2.352  27.297 -1.7061  1.6694 -0.4645
  100OSM    H1T10004   1.953   2.403  27.326 -0.1613 -2.3151 -0.5507
  100OSM     NF10005   1.921   2.297  27.066  0.3066 -0.1051 -0.1372
  100OSM    HNF10006   2.015   2.287  27.034 -0.6908 -1.9896 -2.8124
  100OSM    C2S10007   1.884   2.428  27.120 -0.0048 -0.4469 -0.2101
  100OSM    H2S10008   1.788   2.460  27.075 -1.7384 -0.0596  3.4332
  100OSM    C3S10009   1.993   2.541  27.088  1.3969  0.1442  0.3313
  100OSM    H3S10010   2.086   2.494  27.127  1.4118 -2.3154 -2.3193
  100OSM     O310011   1.961   2.669  27.144  0.0368 -0.6929 -0.3493
  100OSM    HO310012   1.882   2.650  27.195  0.1471  0.0302  0.1114
  100OSM    C4S10013   2.014   2.549  26.937 -1.0127  0.1499 -0.4991
  100OSM    H4S10014   2.097   2.482  26.911  1.7325  2.6159  1.3260
  100OSM    C5S10015   1.953   2.639  26.847 -0.3285  0.4206 -0.6780
  100OSM    H5S10016   1.871   2.702  26.883 -1.4339 -1.9695  1.3399
  100OSM    C6S10017   1.989   2.662  26.702  0.4867  0.0884  0.1943
  100OSM    H6S10018   2.081   2.725  26.703 -0.1067  0.9804  1.0497
  100OSM    H6T10019   1.912   2.718  26.645  0.3637 -1.0423 -0.7965
  100OSM    C7S10020   1.994   2.523  26.632  0.5272  0.6800  0.3336
  100OSM    H7S10021   2.032   2.441  26.696  0.8316  0.2338 -0.4158
  100OSM    H7T10022   2.067   2.542  26.551 -0.7612  1.6723 -0.6469
  100OSM    C8S10023   1.859   2.475  26.574  0.4727  0.1023  0.6304
  100OSM    H8S10024   1.807   2.561  26.527 -0.0123 -1.3241 -1.5937
  100OSM    H8T10025   1.789   2.448  26.657 -1.0863  0.4213 -0.5382
  100OSM    C9S10026   1.883   2.370  26.470 -0.3091 -0.1410  1.1474
  100OSM    H9S10027   1.944   2.286  26.511  0.3061 -1.3366 -1.9103
  100OSM    H9T10028   1.940   2.421  26.389 -2.2012  0.6739  0.2821
  100OSM   C10S10029   1.758   2.313  26.407 -0.2987  0.1114  0.9665
  100OSM   H10S10030   1.686   2.389  26.370 -0.3519 -1.2283 -1.8739
  100OSM   H10T10031   1.702   2.258  26.486 -0.4808 -0.7349  0.2569
  100OSM   C11S10032   1.793   2.216  26.289  0.7279 -0.4732 -0.2063
  100OSM   H11S10033   1.885   2.160  26.316  0.4481 -0.1220  1.5753
  100OSM   H11T10034   1.820   2.281  26.203  1.8264  0.4808  0.8216
  100OSM   C12S10035   1.671   2.133  26.251  0.5243 -0.4758 -0.0780
  100OSM   H12S10036   1.596   2.210  26.223  2.1039  1.1349 -0.0630
  100OSM   H12T10037   1.646   2.074  26.342 -1.4566  0.0225 -0.2456
  100OSM   C13S10038   1.696   2.042  26.128 -0.0650 -0.5216 -0.0535
  100OSM   H13S10039   1.695   2.103  26.035 -1.0045 -1.9770 -1.0404
  100OSM   H13T10040   1.609   1.973  26.120  0.8155 -1.7316  0.5286
  100OSM   C14S10041   1.830   1.974  26.133 -0.0723  0.3789 -0.4224
  100OSM   H14S10042   1.825   1.922  26.231  1.0238 -0.5434 -0.8287
  100OSM   H14T10043   1.911   2.050  26.132 -1.3042  1.7376 -0.1345
  100OSM   C15S10044   1.842   1.868  26.017  0.7052 -0.2363  0.0201
  100OSM   H15S10045   1.759   1.796  26.033  0.1709  0.3034 -0.2799
  100OSM   H15T10046   1.941   1.818  26.028  0.3302 -0.8414  0.8158
  100OSM   C16S10047   1.830   1.939  25.883 -0.6150  0.0153  0.6072
  100OSM   H16S10048   1.878   2.038  25.901  0.4315 -0.4034  0.1781
  100OSM   H16T10049   1.727   1.962  25.847  0.4220 -0.4296 -3.0706
  100OSM   C17S10050   1.909   1.857  25.775 -0.1087 -0.7102 -0.5138
  100OSM   H17S10051   1.874   1.753  25.764 -1.7386  0.0337 -3.4091
  100OSM   H17T10052   2.014   1.863  25.811 -0.5505 -0.1971  0.7720
  100OSM   C18S10053   1.904   1.938  25.644  0.1371  0.6036  0.3908
  100OSM   H18S10054   1.966   1.889  25.565 -0.1291 -0.2338  0.6979
  100OSM   H18T10055   1.930   2.045  25.657  0.2286  0.8660 -1.5914
  100OSM   H18U10056   1.803   1.940  25.597  1.2731  0.3878 -2.2441
  100OSM    C1F10057   1.848   2.195  27.059  0.4222 -0.2058  0.8875
  100OSM     OF10058   1.727   2.215  27.066 -0.1009 -0.1347 -0.0464
  100OSM    C2F10059   1.915   2.061  27.041  0.2069  0.0523 -0.3163
  100OSM    H2F10060   1.899   2.017  27.141  2.6494  1.6986  0.9099
  100OSM    H2G10061   2.025   2.076  27.030  0.3531 -0.9298 -0.2138
  100OSM    C3F10062   1.855   1.954  26.943  0.8014  0.4391  0.2669
  100OSM    H3F10063   1.764   1.906  26.984  1.2399  0.6165  1.4925
  100OSM    H3G10064   1.934   1.878  26.922  0.1270 -0.1202 -0.2796
  100OSM    C4F10065   1.795   2.005  26.806 -0.3957  0.9084  0.0477
  100OSM    H4F10066   1.718   2.081  26.832 -0.1239  1.0123  0.5551
  100OSM    H4G10067   1.746   1.925  26.747  0.8124  0.4087 -0.3247
  100OSM    C5F10068   1.899   2.074  26.713  0.6931 -0.2232  0.2399
  100OSM    H5F10069   1.940   2.167  26.758 -0.6248  1.2503 -1.4265
  100OSM    H5G10070   1.835   2.108  26.628 -0.0105 -0.3637  0.7075
  100OSM    C6F10071   2.022   1.993  26.668 -0.5586 -0.0334 -0.3757
  100OSM    H6F10072   2.085   1.977  26.759  1.2687  3.0302 -0.9366
  100OSM    H6G10073   2.078   2.055  26.595  2.6901 -2.0277  0.1999
  100OSM    C7F10074   1.993   1.852  26.620  0.0714 -0.6165 -0.2302
  100OSM    H7F10075   1.959   1.790  26.705  0.3738 -2.6412 -1.5061
  100OSM    H7G10076   2.088   1.808  26.584  0.9878  2.3321 -1.7242
  100OSM    C8F10077   1.906   1.838  26.502 -0.3656 -0.1474 -1.0600
  100OSM    H8F10078   1.945   1.905  26.423 -0.0702  2.7394  1.3508
  100OSM    H8G10079   1.806   1.883  26.521 -0.6820 -1.4552  0.6703
  100OSM    C9F10080   1.889   1.705  26.434  0.3234 -0.3556 -0.5665
  100OSM    H9F10081   1.799   1.651  26.465  0.6119 -1.8486 -2.1806
  100OSM   C10F10082   1.981   1.647  26.351  0.4534  1.5354 -0.2892
  100OSM   H10F10083   1.947   1.554  26.303 -0.8377  0.6356  2.1521
  100OSM   C11F10084   2.105   1.714  26.303 -0.3343  0.0815 -0.1152
  100OSM   H11F10085   2.134   1.801  26.367  1.5443  0.9959 -2.0902
  100OSM   H11G10086   2.080   1.767  26.209 -2.4768 -2.4641 -1.0964
  100OSM   C12F10087   2.240   1.634  26.284  0.2074 -0.4418 -0.2666
  100OSM   H12F10088   2.259   1.599  26.388 -1.0902 -2.3425 -0.6307
  100OSM   H12G10089   2.328   1.689  26.243  1.1017 -1.3155  0.4500
  100OSM   C13F10090   2.216   1.517  26.180 -0.1905 -0.3651 -0.1717
  100OSM   H13F10091   2.121   1.468  26.211  0.0652 -0.4510  0.4986
  100OSM   H13G10092   2.300   1.444  26.188  1.3047  1.4138  1.3345
  100OSM   C14F10093   2.201   1.572  26.033  0.1456 -0.2872  0.7856
  100OSM   H14F10094   2.299   1.600  25.988  0.3175 -2.0122  0.0050
  100OSM   H14G10095   2.139   1.664  26.024 -0.3725 -0.8008 -1.5153
  100OSM   C15F10096   2.132   1.460  25.944 -0.2722  0.5174 -0.3203
  100OSM   H15F10097   2.046   1.428  26.007  0.1993  3.8468  2.3014
  100OSM   H15G10098   2.206   1.379  25.930 -0.4242  0.3864 -0.3660
  100OSM   C16F10099   2.079   1.519  25.815 -0.7949 -0.0696 -0.1312
  100OSM   H16F10100   1.986   1.575  25.841 -1.3513 -0.1799 -1.7758
  100OSM   H16G10101   2.057   1.439  25.742  2.5300 -2.6671  1.4471
  100OSM   C17F10102   2.183   1.595  25.733  0.2331 -0.2822  0.2536
  100OSM   H17F10103   2.281   1.554  25.766  0.3256  0.5681  1.0757
  100OSM   H17G10104   2.181   1.699  25.772  0.2809  0.4905 -1.6909
  100OSM   C18F10105   2.160   1.597  25.582 -0.1648  0.8554 -0.2529
  100OSM   H18F10106   2.234   1.655  25.522 -2.4269  2.0019 -2.0793
  100OSM   H18G10107   2.061   1.645  25.570 -0.3694  0.8395  1.1817
  100OSM   H18H10108   2.170   1.492  25.545  0.5107 -0.4020  3.1465
  101OSM      N10109   0.305   0.032  21.278 -0.3489  0.3441 -0.0382
  101OSM    C1510110   0.344  -0.022  21.408 -0.1277 -0.4004 -0.1200
  101OSM   H15A10111   0.322   0.045  21.490 -0.4463  0.0201 -0.5408
  101OSM   H15B10112   0.446  -0.056  21.406 -0.2072 -0.7002  0.5757
  101OSM   H15C10113   0.288  -0.107  21.444 -0.1951  0.0112  0.7906
  101OSM    C1410114   0.406   0.130  21.228 -0.5027 -0.0399 -1.1828
  101OSM   H14A10115   0.435   0.200  21.304 -0.3603 -1.6291  0.2932
  101OSM   H14B10116   0.370   0.179  21.139 -1.6200  0.2793 -0.5844
  101OSM   H14C10117   0.495   0.079  21.193 -0.8439 -0.3537 -1.6098
  101OSM    C1310118   0.303  -0.087  21.185  0.1950  0.0221  1.4640
  101OSM   H13A10119   0.397  -0.141  21.189 -0.2956 -0.8000  2.6706
  101OSM   H13B10120   0.290  -0.051  21.084  3.0193 -0.1655  0.9333
  101OSM   H13C10121   0.228  -0.159  21.213  1.1056 -2.3670 -1.5898
  101OSM    C1210122   0.167   0.094  21.289 -0.1005 -0.3749  0.4062
  101OSM   H12A10123   0.173   0.172  21.364 -0.8929  0.1268 -0.0432
  101OSM   H12B10124   0.099   0.022  21.331 -1.1850 -1.0953 -2.3706
  101OSM    C1110125   0.108   0.142  21.150  0.4323 -0.2964 -0.7260
  101OSM   H11A10126   0.000   0.156  21.175  0.7696  2.1911 -0.3782
  101OSM   H11B10127   0.125   0.052  21.088  0.9260 -2.7358  2.6897
  101OSM      P10128   0.134   0.394  21.169 -0.0856 -0.1337 -0.0489
  101OSM    O1310129   0.124   0.374  21.318  0.5010 -0.2130  0.0040
  101OSM    O1410130   0.226   0.499  21.122 -0.8255 -0.3041  0.0688
  101OSM    O1110131  -0.008   0.411  21.110 -0.0897  0.2961  0.2170
  101OSM    O1210132   0.171   0.256  21.096 -0.9682 -0.0560  0.4022
  101OSM    C1S10133  -0.025   0.431  20.969 -0.4295  0.3658  0.1980
  101OSM    H1S10134   0.057   0.385  20.911 -0.8242 -0.0206 -0.0604
  101OSM    H1T10135  -0.032   0.538  20.940 -2.4082 -0.4018 -2.5340
  101OSM     NF10136  -0.180   0.395  20.780 -0.0381 -0.4636  0.7688
  101OSM    HNF10137  -0.246   0.464  20.754 -0.3331 -0.0831  2.4475
  101OSM    C2S10138  -0.165   0.387  20.924 -0.2457  0.2219 -0.5830
  101OSM    H2S10139  -0.178   0.279  20.948  1.9563  0.2242  0.9161
  101OSM    C3S10140  -0.273   0.463  21.012 -0.3157 -0.2381  0.3196
  101OSM    H3S10141  -0.252   0.572  21.005 -0.4137 -0.2670 -0.4926
  101OSM     O310142  -0.264   0.435  21.154  0.1531 -0.1190 -0.1793
  101OSM    HO310143  -0.183   0.383  21.158  0.6016  0.1505 -3.2530
  101OSM    C4S10144  -0.407   0.437  20.959 -0.0169  0.2978 -0.4387
  101OSM    H4S10145  -0.439   0.520  20.895  2.3085  1.4180 -0.2764
  101OSM    C5S10146  -0.486   0.339  20.997 -0.0557 -0.7918 -0.2392
  101OSM    H5S10147  -0.452   0.269  21.075  1.4823 -0.0560 -0.2129
  101OSM    C6S10148  -0.626   0.334  20.944  0.0519  0.0639 -0.3931
  101OSM    H6S10149  -0.695   0.302  21.025 -2.6096  0.1476 -2.4909
  101OSM    H6T10150  -0.640   0.258  20.865 -0.9867 -0.8880  0.6639
  101OSM    C7S10151  -0.679   0.464  20.887 -0.9548  0.2120  0.0414
  101OSM    H7S10152  -0.620   0.495  20.798 -1.2560  3.1048  0.7461
  101OSM    H7T10153  -0.680   0.540  20.968 -0.6425  0.7365 -0.4379
  101OSM    C8S10154  -0.821   0.470  20.828 -0.1649  0.1801  0.5578
  101OSM    H8S10155  -0.897   0.436  20.903 -2.7540  0.7208 -1.6608
  101OSM    H8T10156  -0.826   0.397  20.744 -1.6286  1.1347 -0.2139
  101OSM    C9S10157  -0.870   0.610  20.802 -0.5935  0.1550  0.2783
  101OSM    H9S10158  -0.814   0.660  20.721  1.5362  1.0871  2.2173
  101OSM    H9T10159  -0.843   0.687  20.877  0.9560  0.9231 -1.0032
  101OSM   C10S10160  -1.011   0.601  20.745 -0.3899 -0.0782  0.1652
  101OSM   H10S10161  -1.079   0.547  20.814 -1.6509  1.8373  0.4925
  101OSM   H10T10162  -1.008   0.541  20.651 -0.6598  0.6142 -0.2960
  101OSM   C11S10163  -1.074   0.734  20.722  0.1105 -0.3727  0.5021
  101OSM   H11S10164  -1.033   0.802  20.645  1.9502  0.8673  2.4576
  101OSM   H11T10165  -1.062   0.803  20.809  0.4948  1.4253 -0.9032
  101OSM   C12S10166  -1.222   0.728  20.689  0.0979 -0.1277  0.2162
  101OSM   H12S10167  -1.259   0.831  20.671 -2.3969 -0.4611  2.7737
  101OSM   H12T10168  -1.278   0.699  20.780 -0.4822 -0.4938 -0.2481
  101OSM   C13S10169  -1.260   0.622  20.577 -0.4533 -0.3935  0.4579
  101OSM   H13S10170  -1.368   0.598  20.578 -0.4198 -0.6136 -0.7021
  101OSM   H13T10171  -1.204   0.529  20.601  1.2441  0.6811  0.8360
  101OSM   C14S10172  -1.233   0.681  20.439  0.7493 -0.1385 -0.5115
  101OSM   H14S10173  -1.136   0.734  20.438  0.2574  0.8478  0.8816
  101OSM   H14T10174  -1.300   0.766  20.415  0.5441 -0.2838 -0.4593
  101OSM   C15S10175  -1.231   0.564  20.333 -0.1572 -0.2951  0.1670
  101OSM   H15S10176  -1.318   0.494  20.332 -0.1564 -0.3579 -2.6604
  101OSM   H15T10177  -1.135   0.510  20.344  0.4591  0.8960  0.8867
  101OSM   C16S10178  -1.243   0.630  20.200 -0.1338  0.5698  0.5099
  101OSM   H16S10179  -1.189   0.726  20.190  0.6928 -0.0860 -2.4020
  101OSM   H16T10180  -1.343   0.658  20.161  1.1654  3.4610 -1.0328
  101OSM   C17S10181  -1.180   0.538  20.090  1.6270 -0.2339  0.0465
  101OSM   H17S10182  -1.231   0.440  20.089  1.4783 -0.1567  0.0290
  101OSM   H17T10183  -1.074   0.517  20.116  0.9401 -2.8761  0.9572
  101OSM   C18S10184  -1.183   0.604  19.956 -0.7601  0.1147  0.9184
  101OSM   H18S10185  -1.135   0.547  19.873 -1.1385  2.9157 -1.3891
  101OSM   H18T10186  -1.129   0.700  19.945  1.6011 -1.3700 -2.3985
  101OSM   H18U10187  -1.288   0.628  19.929 -0.6284  1.2421  1.3563
  101OSM    C1F10188  -0.110   0.322  20.687  0.2409  0.4846 -0.3074
  101OSM     OF10189  -0.038   0.228  20.724  0.3378 -0.4691 -0.2200
  101OSM    C2F10190  -0.136   0.354  20.537 -0.3379  0.8556 -0.0713
  101OSM    H2F10191  -0.245   0.353  20.520 -0.6599  1.5289  1.7943
  101OSM    H2G10192  -0.095   0.266  20.483  0.1979 -0.1231  1.8355
  101OSM    C3F10193  -0.083   0.486  20.498  0.1089 -0.2646  0.1298
  101OSM    H3F10194  -0.131   0.573  20.548 -0.9322 -0.4826 -0.4634
  101OSM    H3G10195  -0.119   0.502  20.395 -1.1047  1.1752  0.7362
  101OSM    C4F10196   0.074   0.499  20.502 -0.1019  0.6402  0.3422
  101OSM    H4F10197   0.110   0.481  20.606  0.2231 -0.5205  0.0493
  101OSM    H4G10198   0.093   0.605  20.474  0.1429  0.5896  0.3194
  101OSM    C5F10199   0.146   0.399  20.421  0.2553 -0.0212  0.4772
  101OSM    H5F10200   0.083   0.374  20.333 -1.1023  0.1752  1.3441
  101OSM    H5G10201   0.143   0.295  20.458 -1.5315 -0.9316 -1.9904
  101OSM    C6F10202   0.276   0.458  20.366 -0.4783 -0.0805 -0.3911
  101OSM    H6F10203   0.251   0.556  20.319 -2.5558 -0.5663 -0.3782
  101OSM    H6G10204   0.343   0.477  20.453 -0.1954  1.5374 -0.9194
  101OSM    C7F10205   0.359   0.366  20.266  0.2324  0.3212  0.2438
  101OSM    H7F10206   0.443   0.434  20.243 -0.8758  1.6524  0.0414
  101OSM    H7G10207   0.284   0.350  20.186  1.0321  0.9639 -0.6573
  101OSM    C8F10208   0.400   0.225  20.310 -0.3774  0.2753 -0.3880
  101OSM    H8F10209   0.440   0.172  20.221  1.0878 -0.5511  0.7290
  101OSM    H8G10210   0.309   0.170  20.342  1.5172 -2.3771  0.7064
  101OSM    C9F10211   0.511   0.228  20.415  0.5020 -0.8372  0.2681
  101OSM    H9F10212   0.506   0.318  20.477 -0.6246 -1.1974  0.7310
  101OSM   C10F10213   0.611   0.140  20.420  0.2523  0.4218 -0.4694
  101OSM   H10F10214   0.686   0.169  20.495 -0.6134  0.2702  0.4736
  101OSM   C11F10215   0.638   0.013  20.338 -0.4688 -0.2258 -0.3420
  101OSM   H11F10216   0.546  -0.013  20.281 -0.3566 -1.2066 -0.1043
  101OSM   H11G10217   0.659  -0.076  20.402 -0.2052 -1.5001 -2.1118
  101OSM   C12F10218   0.743   0.019  20.225  0.1940 -0.4595 -0.4360
  101OSM   H12F10219   0.819   0.087  20.269 -2.3700  2.7519 -0.5137
  101OSM   H12G10220   0.702   0.074  20.138 -0.8407  0.9478  0.8636
  101OSM   C13F10221   0.798  -0.114  20.199  0.1005  1.0202  0.0385
  101OSM   H13F10222   0.846  -0.166  20.284 -0.1325  1.5633  0.5007
  101OSM   H13G10223   0.876  -0.099  20.121  0.5052  1.4197  0.5122
  101OSM   C14F10224   0.697  -0.217  20.132  1.1593 -0.5277 -0.1437
  101OSM   H14F10225   0.667  -0.180  20.031  1.0706 -2.1854 -0.7522
  101OSM   H14G10226   0.602  -0.209  20.188 -1.5402  0.2205 -4.3205
  101OSM   C15F10227   0.745  -0.357  20.126 -0.3576 -0.0274 -0.1635
  101OSM   H15F10228   0.664  -0.424  20.090  0.3163 -0.9931  0.0899
  101OSM   H15G10229   0.797  -0.395  20.216 -0.1273 -0.2490 -0.3856
  101OSM   C16F10230   0.843  -0.362  20.008 -0.3012 -0.2781  0.1131
  101OSM   H16F10231   0.917  -0.279  20.012 -1.2436  0.5943 -0.2341
  101OSM   H16G10232   0.790  -0.356  19.911 -0.1103 -0.7153 -0.0224
  101OSM   C17F10233   0.917  -0.499  20.007  0.2616 -0.2142  0.2611
  101OSM   H17F10234   0.833  -0.571  20.000 -2.5469  2.6975  1.2629
  101OSM   H17G10235   0.957  -0.506  20.111  2.3427  1.0613 -0.4058
  101OSM   C18F10236   1.018  -0.507  19.901 -0.4880  0.0323  0.5961
  101OSM   H18F10237   0.984  -0.529  19.797  2.5385 -1.7529 -0.1267
  101OSM   H18G10238   1.088  -0.589  19.927  0.4796 -0.1338 -2.2238
  101OSM   H18H10239   1.079  -0.415  19.889  0.2677 -0.6293 -0.9294
  102OSM      N10240   0.270   0.178  26.173 -0.6155 -0.0300  0.3905
  102OSM    C1510241   0.135   0.208  26.118  0.5732  0.2345  0.0302
  102OSM   H15A10242   0.137   0.209  26.010 -2.3735  3.2851 -0.1336
  102OSM   H15B10243   0.108   0.308  26.149  0.9930  0.4282 -0.2128
  102OSM   H15C10244   0.054   0.146  26.153  1.3200 -0.5959  0.3262
  102OSM    C1410245   0.243   0.170  26.326 -0.4625 -0.3088 -0.8061
  102OSM   H14A10246   0.187   0.084  26.360 -1.6298 -0.0810 -2.0633
  102OSM   H14B10247   0.181   0.252  26.362 -1.2173 -1.4339  0.5809
  102OSM   H14C10248   0.334   0.159  26.383 -0.8561 -0.5837 -0.2132
  102OSM    C1310249   0.322   0.049  26.125 -0.3094  0.4834 -0.5032
  102OSM   H13A10250   0.248  -0.028  26.140  1.2343 -0.9844 -0.2460
  102OSM   H13B10251   0.415   0.022  26.172  0.4887  0.6721 -1.9454
  102OSM   H13C10252   0.337   0.049  26.019 -1.2567  0.1996 -0.6506
  102OSM    C1210253   0.362   0.297  26.148 -0.5298  0.5644 -0.7100
  102OSM   H12A10254   0.316   0.389  26.181 -0.7784  0.1569  0.1134
  102OSM   H12B10255   0.386   0.312  26.044  1.2949  3.0679 -0.0222
  102OSM    C1110256   0.494   0.289  26.226  0.3784  0.1959  0.5839
  102OSM   H11A10257   0.556   0.347  26.153 -0.7520  1.2615  0.4310
  102OSM   H11B10258   0.520   0.182  26.236 -0.4354 -0.0773 -0.0508
  102OSM      P10259   0.584   0.419  26.438  0.0045  0.0148 -0.2776
  102OSM    O1310260   0.529   0.477  26.560  0.4663 -0.2282  0.2574
  102OSM    O1410261   0.691   0.323  26.463  0.5681  0.4586  0.0411
  102OSM    O1110262   0.640   0.540  26.350  0.1633 -0.6129 -0.6056
  102OSM    O1210263   0.470   0.358  26.351  0.1352  0.2116  0.3315
  102OSM    C1S10264   0.774   0.576  26.350  0.0799 -0.1852  0.3273
  102OSM    H1S10265   0.841   0.488  26.361  1.2102  0.4712 -1.0008
  102OSM    H1T10266   0.794   0.638  26.440 -2.2781 -1.2938  1.7119
  102OSM     NF10267   0.958   0.681  26.212  0.7884 -0.0949 -0.1403
  102OSM    HNF10268   0.973   0.778  26.225  0.3985 -0.2653  2.0555
  102OSM    C2S10269   0.820   0.651  26.214  0.1247  0.3993 -0.2985
  102OSM    H2S10270   0.811   0.583  26.127 -0.3224  0.6900 -0.4816
  102OSM    C3S10271   0.719   0.767  26.180 -0.3752  0.5856 -0.4062
  102OSM    H3S10272   0.715   0.827  26.273 -0.1619 -1.2020  0.7909
  102OSM     O310273   0.585   0.720  26.161 -0.0572  0.3340 -0.5627
  102OSM    HO310274   0.576   0.631  26.195 -1.9677  0.0049 -1.7754
  102OSM    C4S10275   0.763   0.846  26.062 -0.2809 -0.5015  0.3223
  102OSM    H4S10276   0.773   0.788  25.969  0.1701  1.3853 -0.8836
  102OSM    C5S10277   0.794   0.977  26.054 -0.4324  0.4784  0.5024
  102OSM    H5S10278   0.774   1.040  26.142 -3.5802  2.0108 -1.1470
  102OSM    C6S10279   0.848   1.059  25.940  0.1805  0.0461 -0.3884
  102OSM    H6S10280   0.950   1.100  25.955  0.6619 -2.0433  3.2544
  102OSM    H6T10281   0.781   1.148  25.935  1.8801  1.4807  1.2674
  102OSM    C7S10282   0.862   0.977  25.803  0.0161 -1.6560  0.1147
  102OSM    H7S10283   0.776   0.914  25.772  1.8943 -3.5337 -1.5824
  102OSM    H7T10284   0.930   0.893  25.828  1.5306 -0.3849  0.3900
  102OSM    C8S10285   0.924   1.062  25.685  0.2169 -0.1024 -0.3171
  102OSM    H8S10286   1.011   1.117  25.725  2.1237 -2.6860 -0.6204
  102OSM    H8T10287   0.842   1.125  25.645 -0.7032 -1.3314 -0.4335
  102OSM    C9S10288   0.962   0.963  25.581 -0.3527 -0.2885 -0.5813
  102OSM    H9S10289   0.869   0.910  25.550 -0.9191  0.0088  0.5677
  102OSM    H9T10290   1.033   0.890  25.623 -0.2392  0.7856  1.1597
  102OSM   C10S10291   1.029   1.035  25.467 -0.2233  0.7651  0.6228
  102OSM   H10S10292   1.105   1.102  25.512  0.1163  0.4216  0.5718
  102OSM   H10T10293   0.951   1.103  25.428 -0.1541  3.0592  4.0317
  102OSM   C11S10294   1.082   0.949  25.355  0.7797 -0.1367 -0.3737
  102OSM   H11S10295   1.003   0.879  25.320  0.5865 -1.4029  2.3329
  102OSM   H11T10296   1.161   0.888  25.403  1.4831  1.0735  0.0564
  102OSM   C12S10297   1.151   1.024  25.238  0.5417  0.3495 -0.0120
  102OSM   H12S10298   1.249   1.068  25.268  0.5256  1.6987 -1.7773
  102OSM   H12T10299   1.077   1.103  25.210  0.7779  0.8473  0.7067
  102OSM   C13S10300   1.154   0.939  25.110  0.7971  0.0092 -0.6717
  102OSM   H13S10301   1.050   0.909  25.086  0.7189 -0.7493  0.5269
  102OSM   H13T10302   1.218   0.848  25.114 -1.9287 -2.0214 -0.7204
  102OSM   C14S10303   1.203   1.017  24.990 -0.1068 -0.4147  0.3371
  102OSM   H14S10304   1.306   1.057  25.002 -0.2925  0.2367 -0.1944
  102OSM   H14T10305   1.122   1.087  24.960  0.3333  0.3618  0.9024
  102OSM   C15S10306   1.230   0.922  24.874 -0.0927 -0.0802  0.2772
  102OSM   H15S10307   1.139   0.861  24.857 -1.9884  3.0451 -1.6418
  102OSM   H15T10308   1.310   0.848  24.899  1.1337  1.1742  0.2145
  102OSM   C16S10309   1.252   0.999  24.744 -0.2468  1.2295  0.6600
  102OSM   H16S10310   1.337   1.069  24.756 -0.0273  1.1986 -0.5654
  102OSM   H16T10311   1.156   1.052  24.724  0.7733  2.4942 -1.2440
  102OSM   C17S10312   1.276   0.897  24.628  0.5079 -0.6467 -0.0577
  102OSM   H17S10313   1.194   0.821  24.622  1.2355 -1.3730 -1.2697
  102OSM   H17T10314   1.370   0.841  24.646  2.2505  1.4098 -2.1628
  102OSM   C18S10315   1.291   0.956  24.491  0.2525  0.2566 -0.3305
  102OSM   H18S10316   1.304   0.876  24.415  2.8919  0.8251 -0.5511
  102OSM   H18T10317   1.386   1.013  24.482  0.5606 -0.2940 -0.5880
  102OSM   H18U10318   1.201   1.012  24.455  0.4998  0.3671 -0.7871
  102OSM    C1F10319   1.049   0.588  26.213  0.0982  0.0373  0.2822
  102OSM     OF10320   1.024   0.480  26.156  0.2040 -0.5212 -0.4571
  102OSM    C2F10321   1.186   0.618  26.272  0.4808  0.8739 -0.2869
  102OSM    H2F10322   1.168   0.597  26.379 -1.8629  0.4021 -0.7215
  102OSM    H2G10323   1.201   0.728  26.266  2.5187  0.9227  3.1360
  102OSM    C3F10324   1.297   0.535  26.210  0.2852 -0.0764 -0.1911
  102OSM    H3F10325   1.309   0.559  26.103 -0.3564 -0.0883 -0.2715
  102OSM    H3G10326   1.270   0.428  26.224  0.1662  0.1755  1.9795
  102OSM    C4F10327   1.429   0.560  26.283 -0.8707  0.5587  0.1257
  102OSM    H4F10328   1.511   0.514  26.224 -1.0725 -0.6997  0.7893
  102OSM    H4G10329   1.421   0.522  26.388 -1.6952 -0.9433 -0.4502
  102OSM    C5F10330   1.467   0.711  26.296 -0.2457  0.6836  1.3825
  102OSM    H5F10331   1.382   0.759  26.349 -1.9014 -2.1086  1.4514
  102OSM    H5G10332   1.480   0.752  26.194  1.8111 -1.8036  0.5601
  102OSM    C6F10333   1.596   0.743  26.384 -0.2379 -0.6262  0.5122
  102OSM    H6F10334   1.578   0.683  26.475 -2.4845 -0.6958  0.0683
  102OSM    H6G10335   1.582   0.850  26.413 -2.0800 -1.4563  3.0532
  102OSM    C7F10336   1.737   0.714  26.320  0.3032 -0.3251 -0.0400
  102OSM    H7F10337   1.729   0.748  26.215 -0.1788 -0.6439 -0.1114
  102OSM    H7G10338   1.768   0.607  26.310  0.3647 -0.3272  0.1675
  102OSM    C8F10339   1.848   0.792  26.393 -0.0170  0.5113  0.3659
  102OSM    H8F10340   1.812   0.897  26.387  0.2232  0.5505 -0.5406
  102OSM    H8G10341   1.938   0.790  26.328  0.5918 -0.9103  1.1879
  102OSM    C9F10342   1.881   0.762  26.537  0.3379  0.2786  0.1872
  102OSM    H9F10343   1.860   0.847  26.604  2.3160  1.3570 -0.4579
  102OSM   C10F10344   1.936   0.653  26.591 -0.3115 -0.0105  0.4649
  102OSM   H10F10345   1.953   0.646  26.699  1.2102 -1.2769  0.1677
  102OSM   C11F10346   1.970   0.520  26.527  0.1033 -0.7734 -0.1313
  102OSM   H11F10347   1.917   0.518  26.429  0.4558  1.1134 -0.3916
  102OSM   H11G10348   1.920   0.436  26.579  1.1612 -0.7627  0.9462
  102OSM   C12F10349   2.120   0.480  26.502  0.6204 -0.1834 -0.4315
  102OSM   H12F10350   2.167   0.474  26.602  0.9138  1.6189 -0.4193
  102OSM   H12G10351   2.177   0.555  26.443  1.1870  0.3028  0.6972
  102OSM   C13F10352   2.127   0.345  26.420  0.0172 -0.1256 -0.1107
  102OSM   H13F10353   2.065   0.351  26.328 -1.0348  2.2084  0.6576
  102OSM   H13G10354   2.087   0.253  26.467  0.3006 -1.7102 -2.7535
  102OSM   C14F10355   2.277   0.298  26.403 -0.4552 -0.2869 -1.3807
  102OSM   H14F10356   2.324   0.283  26.502 -0.7242  0.3685 -1.1465
  102OSM   H14G10357   2.325   0.388  26.360  1.1781  0.0296  0.9469
  102OSM   C15F10358   2.309   0.177  26.314 -0.0466  0.4622  0.1488
  102OSM   H15F10359   2.247   0.089  26.341  2.2174 -1.6034 -1.0830
  102OSM   H15G10360   2.416   0.157  26.334 -0.6066 -2.7856  0.4431
  102OSM   C16F10361   2.301   0.218  26.172 -0.4157  0.4815  0.3194
  102OSM   H16F10362   2.349   0.317  26.157  3.0484 -0.8180  1.7975
  102OSM   H16G10363   2.195   0.224  26.136 -0.0955 -0.5068 -0.8705
  102OSM   C17F10364   2.365   0.116  26.080  0.0622  0.5585  0.8273
  102OSM   H17F10365   2.295   0.030  26.086 -0.5158  0.9995  0.4722
  102OSM   H17G10366   2.466   0.084  26.115  0.0225 -1.1885 -0.5300
  102OSM   C18F10367   2.373   0.168  25.935  0.1983 -0.2854  0.1815
  102OSM   H18F10368   2.440   0.257  25.927 -1.5582  0.9663 -1.2289
  102OSM   H18G10369   2.267   0.191  25.911 -0.1851 -1.6215  0.5563
  102OSM   H18H10370   2.407   0.090  25.864  0.5754 -0.6800  0.7869
  103OSM      N10371   0.207   3.870  22.540  0.9123  1.0460  0.8245
  103OSM    C1510372   0.112   3.759  22.533 -0.0047  0.3406 -0.7701
  103OSM   H15A10373   0.137   3.685  22.458  2.3640 -2.9805  2.8392
  103OSM   H15B10374   0.013   3.791  22.507 -0.0195  0.3360 -0.7177
  103OSM   H15C10375   0.103   3.702  22.625 -0.0319  0.3882 -0.7417
  103OSM    C1410376   0.150   3.983  22.618  0.1018  0.2385  0.3318
  103OSM   H14A10377   0.068   4.023  22.561  0.4325 -0.3458 -0.5782
  103OSM   H14B10378   0.223   4.060  22.636 -0.8023  0.8621  1.5035
  103OSM   H14C10379   0.110   3.950  22.714 -1.6549 -0.6248 -0.6346
  103OSM    C1310380   0.327   3.832  22.606 -0.5031  0.7025  0.1686
  103OSM   H13A10381   0.393   3.761  22.559 -1.7529 -0.7588  0.5162
  103OSM   H13B10382   0.305   3.800  22.707 -1.4526  0.1278 -0.2012
  103OSM   H13C10383   0.383   3.921  22.627  0.0201  0.6887 -1.1004
  103OSM    C1210384   0.236   3.914  22.396  0.0313 -0.2478 -0.2384
  103OSM   H12A10385   0.283   3.830  22.347 -1.0887 -3.3801  3.5011
  103OSM   H12B10386   0.306   3.997  22.398 -0.4884  0.1902  1.5752
  103OSM    C1110387   0.119   3.974  22.310  0.0316  0.8760  0.9723
  103OSM   H11A10388   0.029   3.910  22.302 -1.3200  2.9622 -2.6006
  103OSM   H11B10389   0.162   3.980  22.208 -1.0087 -1.0691  0.3726
  103OSM      P10390   0.133   4.234  22.292  0.0990  0.0345  0.1658
  103OSM    O1310391   0.052   4.244  22.170 -0.6296  0.3691 -0.2555
  103OSM    O1410392   0.132   4.339  22.392 -0.5682 -0.4638  0.1747
  103OSM    O1110393   0.277   4.200  22.257 -0.1922 -0.2959  0.2705
  103OSM    O1210394   0.083   4.103  22.364  0.0783  0.3234  0.1605
  103OSM    C1S10395   0.392   4.260  22.310 -0.6974  0.2114 -0.0849
  103OSM    H1S10396   0.433   4.200  22.394 -1.5624 -0.9800 -0.4940
  103OSM    H1T10397   0.382   4.370  22.327 -1.4142  0.3515 -1.2985
  103OSM     NF10398   0.641   4.285  22.270 -0.3541  0.3444  0.3194
  103OSM    HNF10399   0.689   4.371  22.252  1.9488 -0.8653  0.3094
  103OSM    C2S10400   0.511   4.248  22.210 -0.2240 -1.2837  0.8983
  103OSM    H2S10401   0.513   4.140  22.184  0.2424 -1.0596 -0.0438
  103OSM    C3S10402   0.484   4.332  22.080 -0.4038 -0.0255  0.3316
  103OSM    H3S10403   0.495   4.439  22.107  2.3961 -0.6878  2.2597
  103OSM     O310404   0.356   4.308  22.025  0.4590 -0.2367 -0.4067
  103OSM    HO310405   0.313   4.266  22.101 -0.4291 -4.9263 -3.0950
  103OSM    C4S10406   0.593   4.312  21.975 -0.1880  0.1084 -0.5623
  103OSM    H4S10407   0.652   4.221  21.991 -0.0889  0.1145 -0.8922
  103OSM    C5S10408   0.626   4.393  21.869  0.2258  0.4279  0.7734
  103OSM    H5S10409   0.571   4.487  21.852 -1.2025 -0.0146  2.6647
  103OSM    C6S10410   0.746   4.375  21.774  0.4208  0.0086  0.5340
  103OSM    H6S10411   0.835   4.442  21.767  2.6433 -2.8657 -1.1040
  103OSM    H6T10412   0.718   4.354  21.669  0.2604 -1.8247  0.9087
  103OSM    C7S10413   0.814   4.241  21.807  0.0250 -1.1353  0.0802
  103OSM    H7S10414   0.740   4.159  21.796 -0.2759 -0.7528 -0.8261
  103OSM    H7T10415   0.849   4.253  21.911 -1.1272  2.4690  0.1871
  103OSM    C8S10416   0.936   4.230  21.715  0.2045  0.5022 -0.4122
  103OSM    H8S10417   0.984   4.330  21.730 -0.5242  0.4149  4.2016
  103OSM    H8T10418   0.916   4.215  21.607 -0.6526 -1.7645  0.0138
  103OSM    C9S10419   1.048   4.142  21.777  0.9678 -0.1459 -0.3547
  103OSM    H9S10420   1.002   4.044  21.802 -0.5314  1.0967  2.1715
  103OSM    H9T10421   1.075   4.170  21.881  0.3055  3.4995 -1.0452
  103OSM   C10S10422   1.176   4.143  21.696 -0.7169  0.1868 -0.2427
  103OSM   H10S10423   1.161   4.099  21.596  0.7233  2.0003 -1.3224
  103OSM   H10T10424   1.245   4.075  21.751 -0.6013  0.9638  0.6117
  103OSM   C11S10425   1.248   4.281  21.689 -0.3492  0.1775  0.0704
  103OSM   H11S10426   1.257   4.323  21.792  0.1419  2.2759 -0.7889
  103OSM   H11T10427   1.189   4.353  21.629 -0.2030  1.4463  1.3898
  103OSM   C12S10428   1.381   4.268  21.623 -0.3892 -0.1021  0.4242
  103OSM   H12S10429   1.350   4.254  21.517 -0.6528  2.4586  0.1078
  103OSM   H12T10430   1.437   4.182  21.666 -2.2978 -0.4125  2.4902
  103OSM   C13S10431   1.473   4.389  21.633 -0.2572 -0.6851 -0.4630
  103OSM   H13S10432   1.515   4.390  21.736 -0.6065  1.2734 -0.3176
  103OSM   H13T10433   1.420   4.482  21.607 -0.7561 -0.9703 -0.4761
  103OSM   C14S10434   1.608   4.371  21.557 -0.0087 -0.3438 -0.1026
  103OSM   H14S10435   1.659   4.275  21.583  1.4064 -0.4388 -2.8354
  103OSM   H14T10436   1.679   4.450  21.589 -0.1681 -0.6670  1.0893
  103OSM   C15S10437   1.599   4.377  21.399  0.2104  0.3940 -0.2804
  103OSM   H15S10438   1.585   4.483  21.371 -0.9807  0.6700  1.1836
  103OSM   H15T10439   1.521   4.317  21.349 -0.8328 -0.2095  1.9402
  103OSM   C16S10440   1.736   4.358  21.324  0.0473  0.0389 -0.2952
  103OSM   H16S10441   1.804   4.439  21.357  1.5954 -0.6084 -1.7447
  103OSM   H16T10442   1.719   4.379  21.216 -2.0525  1.5095  0.2535
  103OSM   C17S10443   1.790   4.227  21.355  0.2473  0.3139  0.8081
  103OSM   H17S10444   1.714   4.153  21.322  0.8359  0.0836 -0.0609
  103OSM   H17T10445   1.794   4.207  21.464  0.1185  2.0370  1.1515
  103OSM   C18S10446   1.917   4.187  21.287  0.3378 -0.5797 -0.3893
  103OSM   H18S10447   1.907   4.152  21.182 -0.0819  0.6662 -0.7785
  103OSM   H18T10448   1.959   4.101  21.343  1.5427 -1.6626 -2.7910
  103OSM   H18U10449   1.984   4.275  21.288 -0.3043 -0.0537  1.9557
  103OSM    C1F10450   0.704   4.207  22.358  0.1859  0.1349 -0.5383
  103OSM     OF10451   0.667   4.095  22.378  0.2772 -0.0085 -0.0308
  103OSM    C2F10452   0.808   4.277  22.451 -0.4715 -0.2383  0.3682
  103OSM    H2F10453   0.769   4.252  22.552  0.4132  0.0308  0.7863
  103OSM    H2G10454   0.799   4.386  22.432  0.3055 -0.4953 -1.6615
  103OSM    C3F10455   0.943   4.211  22.450  0.3152  0.3000  0.9630
  103OSM    H3F10456   1.004   4.266  22.376  1.6414 -0.5848  1.3570
  103OSM    H3G10457   0.948   4.108  22.409  1.0241  0.6553  0.1218
  103OSM    C4F10458   1.025   4.216  22.581  0.1502  0.2059  0.0655
  103OSM    H4F10459   0.977   4.159  22.663 -0.6278  0.9782  0.1739
  103OSM    H4G10460   1.008   4.322  22.612 -0.5966 -0.1726  1.0089
  103OSM    C5F10461   1.170   4.192  22.546  0.2804 -0.8296  0.2389
  103OSM    H5F10462   1.177   4.099  22.484 -2.2766 -1.8016  1.2558
  103OSM    H5G10463   1.230   4.178  22.638  1.5159 -2.5479 -0.7464
  103OSM    C6F10464   1.248   4.305  22.464  0.7953  0.4910  0.2515
  103OSM    H6F10465   1.232   4.402  22.515  1.5151  1.6258 -1.5988
  103OSM    H6G10466   1.201   4.301  22.363 -1.2706  0.2783  1.1764
  103OSM    C7F10467   1.393   4.271  22.450 -0.3194  0.5468 -0.5563
  103OSM    H7F10468   1.425   4.293  22.347 -0.1539  0.8907 -0.4324
  103OSM    H7G10469   1.403   4.162  22.470 -0.4693  0.8267  1.2228
  103OSM    C8F10470   1.477   4.354  22.547 -0.4899 -0.2491  0.1285
  103OSM    H8F10471   1.432   4.337  22.647 -0.8894  1.1801  0.2091
  103OSM    H8G10472   1.463   4.461  22.524 -0.4370  0.0006  1.2017
  103OSM    C9F10473   1.628   4.326  22.553  0.0873 -0.0089 -0.3030
  103OSM    H9F10474   1.660   4.253  22.629 -0.9197 -0.2400 -0.0929
  103OSM   C10F10475   1.728   4.359  22.465 -0.2831 -0.3870  0.2892
  103OSM   H10F10476   1.834   4.331  22.477  0.4965  0.8348 -2.8980
  103OSM   C11F10477   1.712   4.447  22.351 -0.3560  0.1510 -0.1572
  103OSM   H11F10478   1.620   4.508  22.360 -1.2133 -0.8901 -1.5165
  103OSM   H11G10479   1.718   4.399  22.251  0.5522 -0.0040 -0.0363
  103OSM   C12F10480   1.829   4.541  22.344 -0.0296 -0.5030  0.2257
  103OSM   H12F10481   1.805   4.610  22.260  2.0480  1.0504  0.8443
  103OSM   H12G10482   1.923   4.486  22.322 -0.7911 -2.0860  0.7791
  103OSM   C13F10483   1.853   4.635  22.465 -0.3268 -0.0006  0.4555
  103OSM   H13F10484   1.901   4.584  22.551  1.6665 -0.9896 -1.1580
  103OSM   H13G10485   1.755   4.662  22.509 -1.0257  0.2259 -1.1972
  103OSM   C14F10486   1.946   4.750  22.439  0.2808 -0.0522 -0.0277
  103OSM   H14F10487   1.899   4.789  22.346 -2.8027  1.0247  1.8516
  103OSM   H14G10488   2.049   4.711  22.422  0.8310  1.5510 -0.5512
  103OSM   C15F10489   1.928   4.867  22.547 -0.5311 -0.2864  0.0601
  103OSM   H15F10490   1.829   4.913  22.526 -0.6219 -0.9547 -1.0696
  103OSM   H15G10491   2.005   4.947  22.533 -1.0836  0.0480 -1.2485
  103OSM   C16F10492   1.950   4.822  22.694  0.2513  0.0994  0.5503
  103OSM   H16F10493   2.043   4.764  22.705  1.2101  1.6232  0.8007
  103OSM   H16G10494   1.862   4.767  22.733  1.1696  0.2102  2.9125
  103OSM   C17F10495   1.949   4.939  22.789  0.0491  0.2302 -0.2708
  103OSM   H17F10496   1.852   4.993  22.784 -0.7740 -1.3252 -2.0137
  103OSM   H17G10497   2.023   5.017  22.760 -3.3689  2.7858 -2.9125
  103OSM   C18F10498   1.981   4.899  22.933 -0.2758  0.4297  0.0299
  103OSM   H18F10499   1.979   4.984  23.005  0.7674  0.4512  0.0463
  103OSM   H18G10500   2.080   4.849  22.930 -1.5732 -2.3097  0.0574
  103OSM   H18H10501   1.921   4.815  22.972 -0.0587 -0.4561 -1.4873
  104OSM      N10502   0.107   0.209  21.997  0.0259 -0.2685  0.0220
  104OSM    C1510503   0.073   0.340  22.061  0.4388 -0.0127 -0.6637
  104OSM   H15A10504   0.161   0.402  22.050  2.0056 -1.8228  0.8398
  104OSM   H15B10505   0.040   0.325  22.163  0.5377 -0.2560 -0.6677
  104OSM   H15C10506  -0.017   0.381  22.017  0.5939 -0.9150 -1.8640
  104OSM    C1410507   0.009   0.108  22.048 -0.1640  0.0911  0.3822
  104OSM   H14A10508  -0.004   0.123  22.155  0.4353  0.5237  0.3949
  104OSM   H14B10509   0.026   0.004  22.025 -1.1604  0.1708 -0.8167
  104OSM   H14C10510  -0.087   0.138  22.008 -0.4296 -0.1185  0.8427
  104OSM    C1310511   0.110   0.217  21.849 -0.6960  0.4954 -0.6263
  104OSM   H13A10512   0.186   0.283  21.809 -1.5370  1.0425 -1.3705
  104OSM   H13B10513   0.015   0.260  21.820 -1.1252 -0.7626 -1.1387
  104OSM   H13C10514   0.121   0.122  21.800  0.4355  0.8348 -1.0784
  104OSM    C1210515   0.249   0.174  22.041  0.3496 -0.2851  0.7821
  104OSM   H12A10516   0.283   0.080  22.000 -1.9698 -0.3251 -1.2538
  104OSM   H12B10517   0.248   0.170  22.149 -0.9405 -1.2960  0.7522
  104OSM    C1110518   0.355   0.278  21.991  0.2416  0.3185 -0.0390
  104OSM   H11A10519   0.348   0.295  21.881  0.8656  0.4202 -0.0704
  104OSM   H11B10520   0.457   0.232  21.996  0.7213  1.4497  1.4878
  104OSM      P10521   0.407   0.395  22.220 -0.2897 -0.3352  0.4663
  104OSM    O1310522   0.395   0.536  22.257 -0.1578  0.0339 -0.3340
  104OSM    O1410523   0.334   0.301  22.304 -0.1321 -0.2263 -0.1105
  104OSM    O1110524   0.558   0.356  22.213  0.0772 -0.0965 -0.7538
  104OSM    O1210525   0.360   0.401  22.065  0.3430 -0.3031 -0.4921
  104OSM    C1S10526   0.642   0.419  22.120  0.5959  0.0080  0.3539
  104OSM    H1S10527   0.639   0.529  22.136 -1.8367  0.0249  0.0817
  104OSM    H1T10528   0.614   0.401  22.015 -0.4706 -0.3357  0.6858
  104OSM     NF10529   0.862   0.450  22.033  0.4906 -0.0761 -0.2217
  104OSM    HNF10530   0.904   0.392  21.963 -0.2860 -0.9257 -0.0163
  104OSM    C2S10531   0.788   0.376  22.135  0.3461 -0.0823  0.8914
  104OSM    H2S10532   0.819   0.415  22.235 -1.3848  0.9836  1.0492
  104OSM    C3S10533   0.809   0.220  22.140 -0.2181  0.0687 -0.6628
  104OSM    H3S10534   0.758   0.180  22.050  2.0551 -1.4381 -1.3842
  104OSM     O310535   0.738   0.162  22.249 -0.3443 -0.1612 -0.0644
  104OSM    HO310536   0.680   0.231  22.284 -1.2025 -0.3201 -1.1158
  104OSM    C4S10537   0.956   0.177  22.141  0.1644 -0.9663 -0.1719
  104OSM    H4S10538   1.011   0.204  22.232 -0.7295 -1.8523  0.6555
  104OSM    C5S10539   1.012   0.109  22.047 -1.0236  0.3153  0.7177
  104OSM    H5S10540   0.955   0.084  21.956  3.6782 -0.9024 -2.2387
  104OSM    C6S10541   1.160   0.077  22.035 -0.3892  0.0965  0.0234
  104OSM    H6S10542   1.192   0.119  21.938 -2.5716  2.4429  0.2048
  104OSM    H6T10543   1.176  -0.033  22.044 -1.3127 -0.1063 -0.6055
  104OSM    C7S10544   1.252   0.139  22.145 -0.2587  0.5043 -0.1165
  104OSM    H7S10545   1.230   0.085  22.239  2.2923  0.5442  0.5689
  104OSM    H7T10546   1.228   0.247  22.160 -2.0018  0.1356 -0.0146
  104OSM    C8S10547   1.403   0.115  22.130  0.0588  0.0351 -0.2755
  104OSM    H8S10548   1.408   0.005  22.113 -1.7845 -0.2432  0.6896
  104OSM    H8T10549   1.461   0.151  22.217  2.4723 -1.0049 -1.3651
  104OSM    C9S10550   1.456   0.189  22.000 -0.2915 -0.1451  0.4821
  104OSM    H9S10551   1.439   0.298  22.016 -1.0508 -0.2900  0.6778
  104OSM    H9T10552   1.402   0.160  21.907  0.1303 -0.5653  0.3647
  104OSM   C10S10553   1.610   0.160  21.986 -0.0427 -0.6664  0.3046
  104OSM   H10S10554   1.631   0.052  21.971 -0.0753 -1.0514  2.6605
  104OSM   H10T10555   1.655   0.192  22.082 -0.5963  4.0259 -0.7639
  104OSM   C11S10556   1.676   0.242  21.879  0.5874  0.0460  0.4740
  104OSM   H11S10557   1.660   0.345  21.916 -0.9649  0.3284 -0.8583
  104OSM   H11T10558   1.628   0.243  21.778 -2.0067  2.0848  1.6136
  104OSM   C12S10559   1.821   0.211  21.853  0.4921  0.5757 -0.0381
  104OSM   H12S10560   1.825   0.101  21.841 -1.8616  0.2363  1.7024
  104OSM   H12T10561   1.892   0.242  21.933  0.7894 -0.4484  0.1093
  104OSM   C13S10562   1.869   0.288  21.727 -0.6662 -0.7269  0.3189
  104OSM   H13S10563   1.848   0.397  21.740  0.0248 -0.5105 -0.3270
  104OSM   H13T10564   1.809   0.247  21.643  0.1322  0.8158 -1.0634
  104OSM   C14S10565   2.024   0.269  21.713 -0.0412 -0.7605 -0.2010
  104OSM   H14S10566   2.090   0.298  21.797  1.3012 -1.3279 -1.0386
  104OSM   H14T10567   2.053   0.317  21.617  0.4729 -2.4189 -0.9141
  104OSM   C15S10568   2.044   0.122  21.694  0.0491 -0.5758 -0.0847
  104OSM   H15S10569   1.967   0.078  21.628 -0.3208  1.5331 -1.1116
  104OSM   H15T10570   2.039   0.070  21.793 -2.1534  0.4038  0.3724
  104OSM   C16S10571   2.178   0.104  21.627 -0.1378  0.2156 -0.0026
  104OSM   H16S10572   2.259   0.154  21.685 -1.4190  0.0710  2.0179
  104OSM   H16T10573   2.169   0.153  21.528 -0.4924  1.6096  0.6789
  104OSM   C17S10574   2.218  -0.041  21.610  0.1755 -0.0785 -0.5885
  104OSM   H17S10575   2.191  -0.095  21.704 -1.7589 -3.3813 -2.8441
  104OSM   H17T10576   2.327  -0.050  21.590  0.3582  2.0461 -0.7782
  104OSM   C18S10577   2.149  -0.113  21.501  0.1421  0.1887  0.3782
  104OSM   H18S10578   2.039  -0.099  21.499 -0.6696 -3.5198  4.4020
  104OSM   H18T10579   2.159  -0.223  21.515  0.8268  0.1649 -0.2062
  104OSM   H18U10580   2.189  -0.094  21.399  1.7195 -1.6040  0.5841
  104OSM    C1F10581   0.879   0.584  22.036 -0.1388  0.4864 -0.8828
  104OSM     OF10582   0.865   0.644  22.144 -0.0428 -0.4331  0.0556
  104OSM    C2F10583   0.926   0.651  21.913 -0.0155  0.0782  0.4499
  104OSM    H2F10584   0.857   0.632  21.829  0.7397  1.7923 -0.6022
  104OSM    H2G10585   1.027   0.613  21.887 -0.0268  0.5924 -0.3510
  104OSM    C3F10586   0.931   0.801  21.931  0.8840 -0.2598  0.6764
  104OSM    H3F10587   1.004   0.846  22.002  1.3757  0.0750 -0.0255
  104OSM    H3G10588   0.836   0.846  21.966  1.2571  0.0515  1.3148
  104OSM    C4F10589   0.953   0.861  21.788 -0.5192 -0.5272  0.0276
  104OSM    H4F10590   0.882   0.823  21.712 -1.5766 -1.3733  1.3979
  104OSM    H4G10591   1.047   0.813  21.752 -1.2037 -1.0071 -1.1729
  104OSM    C5F10592   0.974   1.013  21.783  0.3795 -0.3590  0.6134
  104OSM    H5F10593   1.018   1.047  21.880 -0.3184 -1.8522  1.4977
  104OSM    H5G10594   0.874   1.062  21.786  1.7055  2.5205  2.1017
  104OSM    C6F10595   1.061   1.064  21.669 -0.2065  0.4723 -0.0757
  104OSM    H6F10596   1.164   1.026  21.686  0.5709  2.6095  0.2274
  104OSM    H6G10597   1.082   1.172  21.680  1.2036  0.1716  0.4549
  104OSM    C7F10598   1.020   1.009  21.529 -0.0133 -0.8861  0.1011
  104OSM    H7F10599   0.914   1.034  21.504  0.0007 -0.2607  0.6796
  104OSM    H7G10600   1.028   0.898  21.539 -1.3101 -1.0486 -0.4343
  104OSM    C8F10601   1.113   1.049  21.420 -0.7033  0.5456  0.0793
  104OSM    H8F10602   1.213   1.021  21.461  0.0090  0.4714 -1.5908
  104OSM    H8G10603   1.115   1.159  21.407 -1.4146  0.7658  1.6707
  104OSM    C9F10604   1.073   0.986  21.293 -0.3154 -0.0309  0.1508
  104OSM    H9F10605   0.971   0.948  21.280 -0.0648 -0.8317  0.4870
  104OSM   C10F10606   1.149   0.955  21.190 -0.8411 -0.1699  0.3026
  104OSM   H10F10607   1.110   0.903  21.101  2.8386 -0.3631 -1.3806
  104OSM   C11F10608   1.298   0.978  21.172  0.1056  0.1814 -0.0510
  104OSM   H11F10609   1.349   0.909  21.243  0.2708 -0.5083 -0.8246
  104OSM   H11G10610   1.322   1.084  21.197  0.5922 -0.2846  1.6524
  104OSM   C12F10611   1.331   0.947  21.026  1.4292 -0.1685 -0.6780
  104OSM   H12F10612   1.274   1.018  20.963 -0.4596  0.0276  1.1460
  104OSM   H12G10613   1.285   0.851  20.994 -0.1409 -0.1795  1.3941
  104OSM   C13F10614   1.476   0.951  20.987 -0.7184 -0.0665 -0.2007
  104OSM   H13F10615   1.470   0.917  20.882 -1.6239  0.8011 -0.4523
  104OSM   H13G10616   1.548   0.889  21.043 -1.2820 -2.7795 -2.2919
  104OSM   C14F10617   1.533   1.095  20.990 -0.2739 -0.1260 -0.3405
  104OSM   H14F10618   1.551   1.131  21.093 -0.4171 -0.7999 -0.0794
  104OSM   H14G10619   1.461   1.170  20.950 -0.9438 -0.2349  0.6328
  104OSM   C15F10620   1.659   1.116  20.895  0.1514  0.6861  0.5534
  104OSM   H15F10621   1.745   1.057  20.934  0.9834  0.0112 -2.1161
  104OSM   H15G10622   1.693   1.220  20.913 -0.2635  1.0400 -0.6243
  104OSM   C16F10623   1.637   1.101  20.745 -0.0904  0.5359  0.4403
  104OSM   H16F10624   1.547   1.160  20.719  0.3217 -0.1815 -3.0918
  104OSM   H16G10625   1.625   0.994  20.715 -1.1721 -0.1140  2.9382
  104OSM   C17F10626   1.756   1.157  20.666  0.1204 -0.4716  0.6361
  104OSM   H17F10627   1.786   1.247  20.722 -1.8110  0.4802  0.2419
  104OSM   H17G10628   1.713   1.187  20.568  1.0038 -0.6893  0.1764
  104OSM   C18F10629   1.870   1.054  20.669 -0.5887  0.1683 -0.2950
  104OSM   H18F10630   1.868   1.006  20.769 -0.9428  1.2523  0.2349
  104OSM   H18G10631   1.961   1.117  20.658 -0.8955  0.4871 -1.1274
  104OSM   H18H10632   1.861   0.962  20.608  0.4712 -1.0268  1.2646
  105OSM      N10633   4.313   0.153  24.777 -0.7135  0.1571 -0.2525
  105OSM    C1510634   4.264   0.251  24.677 -0.4875 -0.0580  0.4904
  105OSM   H15A10635   4.171   0.295  24.710 -0.3454 -0.2999  1.2424
  105OSM   H15B10636   4.242   0.207  24.581 -1.8549  2.4012 -0.3985
  105OSM   H15C10637   4.339   0.323  24.648 -0.6835 -0.7042 -1.7910
  105OSM    C1410638   4.433   0.080  24.728  0.0886  0.4822 -1.4487
  105OSM   H14A10639   4.399   0.010  24.653  1.5678 -0.0311 -1.6666
  105OSM   H14B10640   4.471   0.018  24.807  2.1403  1.1531 -1.8499
  105OSM   H14C10641   4.515   0.148  24.708 -0.2472  1.1018 -0.7793
  105OSM    C1310642   4.346   0.229  24.898  0.0677 -0.1442 -0.1967
  105OSM   H13A10643   4.386   0.168  24.977 -1.5734  1.8473  2.3137
  105OSM   H13B10644   4.254   0.267  24.939  1.6061  1.7253  1.7060
  105OSM   H13C10645   4.407   0.316  24.881 -2.7470  1.7077 -1.6599
  105OSM    C1210646   4.204   0.054  24.803 -0.4363 -0.4672  0.1904
  105OSM   H12A10647   4.184  -0.010  24.718  0.9060 -1.3719  0.5183
  105OSM   H12B10648   4.109   0.104  24.812  0.0177  0.0142  5.1592
  105OSM    C1110649   4.203  -0.041  24.927 -0.3484 -1.1634 -0.1039
  105OSM   H11A10650   4.287  -0.109  24.901 -0.3487 -0.5469 -1.8222
  105OSM   H11B10651   4.109  -0.099  24.912  0.5551 -1.8914 -3.9076
  105OSM      P10652   4.271  -0.058  25.170 -0.2313  0.0130 -0.1182
  105OSM    O1310653   4.411  -0.084  25.132 -0.5078 -0.0096 -0.5362
  105OSM    O1410654   4.241   0.007  25.301 -0.0236 -0.6441  0.4505
  105OSM    O1110655   4.194  -0.198  25.167  0.2104 -0.3123 -0.2650
  105OSM    O1210656   4.208   0.028  25.051  0.3798  0.0657 -0.2597
  105OSM    C1S10657   4.048  -0.196  25.194 -0.5755  0.1552  0.0188
  105OSM    H1S10658   3.990  -0.154  25.109 -1.0849 -0.9088 -0.1643
  105OSM    H1T10659   4.018  -0.149  25.290  1.3842 -2.1863  1.9328
  105OSM     NF10660   3.847  -0.311  25.232 -0.1948 -0.0187  0.0177
  105OSM    HNF10661   3.805  -0.307  25.322 -4.1348 -1.4340 -1.5174
  105OSM    C2S10662   3.991  -0.337  25.217 -0.2146  0.4319 -0.8064
  105OSM    H2S10663   4.017  -0.400  25.129  1.6763  0.0558 -0.0219
  105OSM    C3S10664   4.052  -0.401  25.347  0.1885 -0.3845 -0.1862
  105OSM    H3S10665   4.032  -0.333  25.433  0.8337 -1.4227  0.8011
  105OSM     O310666   4.192  -0.411  25.346  0.6739  0.3463 -0.0138
  105OSM    HO310667   4.216  -0.341  25.285  0.3577  0.4123 -0.0657
  105OSM    C4S10668   3.992  -0.538  25.363 -0.0899  0.1495 -0.4483
  105OSM    H4S10669   4.032  -0.620  25.301  2.2623  0.0020  1.1339
  105OSM    C5S10670   3.913  -0.579  25.463 -0.8242  0.4714  0.1630
  105OSM    H5S10671   3.876  -0.505  25.534 -0.5270  0.8561 -0.0753
  105OSM    C6S10672   3.875  -0.723  25.479 -0.0984 -0.0061 -0.0676
  105OSM    H6S10673   3.920  -0.761  25.574 -1.0570  1.1514  0.8800
  105OSM    H6T10674   3.895  -0.803  25.405 -1.6647 -2.1274  1.6469
  105OSM    C7S10675   3.719  -0.713  25.482  0.7619  0.0397  0.1729
  105OSM    H7S10676   3.684  -0.636  25.554  0.5909 -0.2635  0.4130
  105OSM    H7T10677   3.683  -0.809  25.523 -1.0258  0.3153 -0.6414
  105OSM    C8S10678   3.663  -0.680  25.349  1.6983  0.5361 -0.0014
  105OSM    H8S10679   3.697  -0.753  25.273  1.2921  0.4731 -0.1268
  105OSM    H8T10680   3.687  -0.578  25.310 -0.7882  0.5563 -1.7398
  105OSM    C9S10681   3.508  -0.676  25.353  0.4243 -0.3036  0.2243
  105OSM    H9S10682   3.470  -0.759  25.416  0.9187  1.3205  2.8284
  105OSM    H9T10683   3.481  -0.673  25.246  2.4820  0.4648 -0.3218
  105OSM   C10S10684   3.462  -0.544  25.417 -0.0491  0.7208  0.4285
  105OSM   H10S10685   3.473  -0.463  25.342  0.1328 -1.2544 -1.7731
  105OSM   H10T10686   3.510  -0.528  25.516 -2.0246 -2.5628  2.0950
  105OSM   C11S10687   3.321  -0.549  25.480 -0.5335 -0.1853 -0.2278
  105OSM   H11S10688   3.316  -0.444  25.518 -3.7624 -0.6763  0.9640
  105OSM   H11T10689   3.326  -0.622  25.564 -0.3943 -0.7839 -0.7498
  105OSM   C12S10690   3.204  -0.573  25.371  0.3281 -0.5626 -0.1750
  105OSM   H12S10691   3.230  -0.670  25.324  0.2474 -1.3059  1.2640
  105OSM   H12T10692   3.212  -0.489  25.298  1.0562  0.2549  0.8114
  105OSM   C13S10693   3.069  -0.591  25.431  0.1272 -0.5335 -0.1049
  105OSM   H13S10694   3.044  -0.499  25.488  1.9809 -0.7943  1.2379
  105OSM   H13T10695   3.078  -0.672  25.507 -0.8387 -0.6804 -0.1422
  105OSM   C14S10696   2.955  -0.626  25.333 -0.0830 -0.0680  0.4490
  105OSM   H14S10697   2.996  -0.718  25.287  2.0726  0.0404  2.0310
  105OSM   H14T10698   2.942  -0.537  25.267 -0.4494 -0.0905  0.4851
  105OSM   C15S10699   2.824  -0.658  25.407 -0.7654  0.3748  0.7183
  105OSM   H15S10700   2.787  -0.564  25.454 -3.5988 -1.8195  3.2917
  105OSM   H15T10701   2.842  -0.722  25.496 -0.9248 -1.2428 -0.3752
  105OSM   C16S10702   2.722  -0.723  25.313 -0.1094  0.7349 -0.3485
  105OSM   H16S10703   2.760  -0.823  25.282  0.6210  0.4132  1.4647
  105OSM   H16T10704   2.715  -0.649  25.230  3.3511  2.8655  1.0520
  105OSM   C17S10705   2.590  -0.729  25.383 -0.0892 -0.0245  0.2432
  105OSM   H17S10706   2.556  -0.630  25.421 -1.3980 -0.1387 -0.5822
  105OSM   H17T10707   2.596  -0.801  25.468 -0.5368  0.6258  0.8348
  105OSM   C18S10708   2.480  -0.768  25.289 -0.2443 -0.1496  0.2650
  105OSM   H18S10709   2.501  -0.857  25.226  0.3109 -0.3494  0.7245
  105OSM   H18T10710   2.459  -0.681  25.223 -0.4012 -1.9897 -2.2570
  105OSM   H18U10711   2.394  -0.796  25.353 -0.5886  0.5852  0.1353
  105OSM    C1F10712   3.775  -0.306  25.119  0.1530 -0.5455 -0.4509
  105OSM     OF10713   3.823  -0.318  25.009 -0.2073  0.2165 -0.0352
  105OSM    C2F10714   3.629  -0.278  25.146  0.0893  0.0105  0.2526
  105OSM    H2F10715   3.599  -0.181  25.101  0.3668 -0.6899 -1.5646
  105OSM    H2G10716   3.608  -0.273  25.255 -5.0530 -1.3618 -0.4296
  105OSM    C3F10717   3.537  -0.381  25.074 -0.1220 -0.3308  0.0357
  105OSM    H3F10718   3.563  -0.481  25.115  2.7092 -0.5225 -1.9440
  105OSM    H3G10719   3.556  -0.379  24.965 -1.2328  0.8678 -0.1617
  105OSM    C4F10720   3.389  -0.337  25.102 -0.0005 -0.8077  0.1802
  105OSM    H4F10721   3.375  -0.227  25.106  2.5043 -0.3571 -1.4661
  105OSM    H4G10722   3.349  -0.379  25.197 -1.4444  0.1877  0.0489
  105OSM    C5F10723   3.295  -0.406  24.995 -0.1658 -0.3295  0.4762
  105OSM    H5F10724   3.329  -0.511  24.989  0.4487 -0.0634 -1.9673
  105OSM    H5G10725   3.314  -0.370  24.891  0.4682  0.1133  0.7347
  105OSM    C6F10726   3.144  -0.417  25.016 -0.0958 -0.3073 -0.5188
  105OSM    H6F10727   3.105  -0.332  25.076 -0.8759  0.5951 -2.2419
  105OSM    H6G10728   3.130  -0.514  25.069  0.6967 -1.1403 -1.7940
  105OSM    C7F10729   3.062  -0.440  24.889  0.1096 -0.2528 -0.2031
  105OSM    H7F10730   3.120  -0.505  24.819  2.6546  1.5288  0.1240
  105OSM    H7G10731   3.029  -0.342  24.849 -1.5311  0.1288  1.9244
  105OSM    C8F10732   2.931  -0.511  24.922  0.0620 -0.8231  0.7117
  105OSM    H8F10733   2.871  -0.446  24.990 -1.2006 -0.8288 -0.3554
  105OSM    H8G10734   2.947  -0.603  24.982 -2.1638 -2.7625 -1.4231
  105OSM    C9F10735   2.846  -0.532  24.797 -0.4872  0.6342  0.2280
  105OSM    H9F10736   2.846  -0.449  24.725  2.9699  0.3515 -0.2470
  105OSM   C10F10737   2.756  -0.629  24.767 -0.8069 -0.1361 -0.3025
  105OSM   H10F10738   2.693  -0.614  24.678 -0.8119  1.9007 -0.0200
  105OSM   C11F10739   2.723  -0.745  24.857 -0.0098  0.2563  0.0427
  105OSM   H11F10740   2.790  -0.766  24.943 -0.5481 -0.3574  0.3220
  105OSM   H11G10741   2.734  -0.839  24.798  1.2579  0.2787  0.2185
  105OSM   C12F10742   2.576  -0.739  24.916 -0.2920 -0.5069 -0.2081
  105OSM   H12F10743   2.543  -0.640  24.954  0.9599  0.1955 -0.8912
  105OSM   H12G10744   2.567  -0.817  24.995  0.9116 -1.4971 -0.9958
  105OSM   C13F10745   2.457  -0.768  24.819  0.6682 -0.0019  0.6048
  105OSM   H13F10746   2.456  -0.869  24.773 -1.6589  1.2261 -2.3419
  105OSM   H13G10747   2.469  -0.695  24.736  0.2752 -0.5754  0.0408
  105OSM   C14F10748   2.315  -0.750  24.870 -0.3454  0.3235 -0.3540
  105OSM   H14F10749   2.307  -0.646  24.908 -2.1695  0.6505 -1.5222
  105OSM   H14G10750   2.307  -0.827  24.949  0.0543 -1.2101 -1.7569
  105OSM   C15F10751   2.213  -0.789  24.760  0.1946  0.4912 -0.0094
  105OSM   H15F10752   2.222  -0.894  24.725  0.2987  0.8130 -0.9534
  105OSM   H15G10753   2.253  -0.735  24.672 -0.4737  0.2542 -0.4657
  105OSM   C16F10754   2.067  -0.735  24.779 -0.7531  0.3334  0.5062
  105OSM   H16F10755   2.025  -0.724  24.677  2.2083 -0.6175 -0.9309
  105OSM   H16G10756   2.062  -0.631  24.816  0.8850  0.8148 -0.5441
  105OSM   C17F10757   1.990  -0.825  24.874 -0.3398 -0.4507 -0.3441
  105OSM   H17F10758   2.031  -0.831  24.976 -0.2183 -1.7584 -0.4501
  105OSM   H17G10759   1.974  -0.926  24.830  0.2500 -0.0678 -1.4880
  105OSM   C18F10760   1.842  -0.776  24.886 -0.3940 -0.1144  0.3648
  105OSM   H18F10761   1.793  -0.861  24.939 -0.0542 -0.9528 -0.6330
  105OSM   H18G10762   1.798  -0.774  24.784 -0.4234  3.3445  0.3421
  105OSM   H18H10763   1.821  -0.679  24.936 -0.0819 -0.9347  2.1915
  106OSM      N10764   4.064   3.950  23.755  0.7269  0.0392  0.1129
  106OSM    C1510765   4.020   3.832  23.685  0.1522 -0.0004  0.5772
  106OSM   H15A10766   3.926   3.790  23.718 -0.3025 -0.3062 -1.0373
  106OSM   H15B10767   4.100   3.760  23.691 -2.1703 -2.6596  2.5097
  106OSM   H15C10768   4.016   3.857  23.580  1.1062 -0.2514  0.4772
  106OSM    C1410769   4.196   3.993  23.691 -0.0138 -0.3975  0.2093
  106OSM   H14A10770   4.277   3.924  23.712  0.6057 -0.2791 -1.6193
  106OSM   H14B10771   4.224   4.093  23.721  2.1062 -0.8638 -0.0558
  106OSM   H14C10772   4.194   3.997  23.583  0.9835  0.1594  0.2063
  106OSM    C1310773   3.963   4.063  23.746  0.7988 -0.4637 -0.0208
  106OSM   H13A10774   3.878   4.027  23.802  1.8669 -1.2978  1.1182
  106OSM   H13B10775   3.934   4.067  23.642 -2.4163  0.6445  0.8186
  106OSM   H13C10776   4.001   4.156  23.786  1.9974 -1.8067  2.1854
  106OSM    C1210777   4.090   3.922  23.904 -0.0383  0.6978 -0.2269
  106OSM   H12A10778   4.133   4.009  23.952  0.5538 -0.4233  1.3461
  106OSM   H12B10779   4.158   3.840  23.894 -4.3198 -3.2086 -0.7311
  106OSM    C1110780   3.970   3.860  23.982  0.3544 -0.0572 -0.9436
  106OSM   H11A10781   4.007   3.826  24.081 -0.5272  0.0306 -0.5684
  106OSM   H11B10782   3.935   3.767  23.934  1.6441 -0.7500 -0.5740
  106OSM      P10783   3.879   4.077  24.080  0.1904  0.1771  0.0578
  106OSM    O1310784   4.022   4.101  24.096 -0.3826  1.0346  0.3225
  106OSM    O1410785   3.797   4.187  24.023 -0.3743 -0.0076  0.2316
  106OSM    O1110786   3.820   4.022  24.219 -0.2324  0.3213  0.1844
  106OSM    O1210787   3.860   3.954  23.985  0.3241  1.2378  0.2495
  106OSM    C1S10788   3.684   4.028  24.236  0.5633 -1.0923 -0.0242
  106OSM    H1S10789   3.637   4.122  24.201 -0.9866 -1.7994  0.0474
  106OSM    H1T10790   3.661   4.032  24.345 -1.1831  0.6909 -0.4015
  106OSM     NF10791   3.459   3.930  24.198 -0.3939  0.0124 -0.4202
  106OSM    HNF10792   3.409   3.887  24.273  0.9647  0.6293  0.8759
  106OSM    C2S10793   3.601   3.904  24.181 -0.4479  0.0843  0.1666
  106OSM    H2S10794   3.618   3.893  24.072  1.9420 -0.5149  0.5581
  106OSM    C3S10795   3.652   3.769  24.239 -0.4695 -0.1221 -0.7468
  106OSM    H3S10796   3.651   3.764  24.350 -0.0895 -1.0445 -0.7747
  106OSM     O310797   3.791   3.726  24.212 -0.1528 -0.1078 -0.0512
  106OSM    HO310798   3.835   3.793  24.159  1.1101 -1.0156 -0.1871
  106OSM    C4S10799   3.570   3.656  24.194 -0.3218  0.4570  0.7344
  106OSM    H4S10800   3.522   3.622  24.287 -2.7573  0.4465 -0.4500
  106OSM    C5S10801   3.557   3.601  24.074 -0.2918  0.1896 -0.4420
  106OSM    H5S10802   3.625   3.634  23.994 -0.0651  0.5187 -0.1141
  106OSM    C6S10803   3.468   3.480  24.049  0.3329  0.0511  0.4214
  106OSM    H6S10804   3.535   3.392  24.044 -1.1185 -1.0290 -0.9190
  106OSM    H6T10805   3.426   3.491  23.947 -0.5846 -0.3848  0.7388
  106OSM    C7S10806   3.347   3.456  24.141  0.1717 -0.3834  0.0970
  106OSM    H7S10807   3.291   3.550  24.156  0.8464 -0.0875  0.8439
  106OSM    H7T10808   3.387   3.434  24.242  2.4900 -0.3202 -0.7501
  106OSM    C8S10809   3.263   3.341  24.088  0.4420  0.6051 -0.3580
  106OSM    H8S10810   3.303   3.239  24.106 -2.1123 -0.9796 -2.9373
  106OSM    H8T10811   3.251   3.346  23.978 -0.2582  0.2741 -0.3019
  106OSM    C9S10812   3.118   3.354  24.138  0.3495  0.1030 -0.0785
  106OSM    H9S10813   3.086   3.456  24.110  1.1864  0.0836 -1.1850
  106OSM    H9T10814   3.117   3.349  24.249  0.2322  1.7076  0.0067
  106OSM   C10S10815   3.027   3.242  24.085 -0.3085 -0.0933 -0.2887
  106OSM   H10S10816   3.070   3.152  24.132 -0.8469 -0.5267 -0.6136
  106OSM   H10T10817   3.042   3.229  23.975 -0.4350  4.0105 -0.9552
  106OSM   C11S10818   2.880   3.255  24.119 -0.0811 -0.0834 -0.5349
  106OSM   H11S10819   2.830   3.337  24.064  1.6714  3.0226  2.1342
  106OSM   H11T10820   2.874   3.257  24.230 -0.5520 -0.0847 -0.5586
  106OSM   C12S10821   2.794   3.133  24.080  0.2729  0.4353 -0.3023
  106OSM   H12S10822   2.842   3.041  24.120 -1.8697  0.1714  1.9049
  106OSM   H12T10823   2.790   3.135  23.969  1.4320  0.2358 -0.3533
  106OSM   C13S10824   2.641   3.144  24.139 -0.2106  0.0010 -0.4666
  106OSM   H13S10825   2.603   3.237  24.091 -1.4831 -0.0858  0.3214
  106OSM   H13T10826   2.649   3.171  24.247  0.9294  0.4603 -0.6522
  106OSM   C14S10827   2.550   3.021  24.116  0.0042 -0.5002  0.1500
  106OSM   H14S10828   2.605   2.937  24.163  0.2910 -1.3567 -1.6219
  106OSM   H14T10829   2.544   3.001  24.007  0.3641  0.1747  0.0014
  106OSM   C15S10830   2.405   3.014  24.168 -0.0971 -0.6131 -0.2063
  106OSM   H15S10831   2.358   3.112  24.145  1.0978  0.5177  1.8692
  106OSM   H15T10832   2.413   3.005  24.278  0.8146 -2.9035 -0.4040
  106OSM   C16S10833   2.318   2.904  24.109  0.4641  0.3217  0.3746
  106OSM   H16S10834   2.314   2.921  24.000 -1.8162 -1.0437  0.1745
  106OSM   H16T10835   2.213   2.919  24.145  1.0899 -1.0166  3.0682
  106OSM   C17S10836   2.356   2.756  24.137  0.1800  0.1075 -0.2020
  106OSM   H17S10837   2.374   2.736  24.244  0.5121 -0.2126 -0.3161
  106OSM   H17T10838   2.447   2.729  24.079 -1.2532 -2.0248 -1.6066
  106OSM   C18S10839   2.245   2.660  24.091  0.0389  0.9423  0.0988
  106OSM   H18S10840   2.264   2.552  24.110  0.2918  0.6576 -1.6667
  106OSM   H18T10841   2.220   2.678  23.985 -2.5676  1.0801  0.6653
  106OSM   H18U10842   2.153   2.687  24.148 -1.2577 -2.3986 -0.1607
  106OSM    C1F10843   3.402   4.036  24.138  0.5001 -0.2810 -0.1347
  106OSM     OF10844   3.443   4.081  24.032  0.4118  0.9217 -0.3887
  106OSM    C2F10845   3.287   4.096  24.205  0.1348  0.6707 -0.3849
  106OSM    H2F10846   3.317   4.112  24.311  0.0160 -1.9488  0.1090
  106OSM    H2G10847   3.204   4.023  24.194  0.4293 -0.1948  2.3399
  106OSM    C3F10848   3.252   4.234  24.150 -0.0598  0.0520 -0.0763
  106OSM    H3F10849   3.238   4.236  24.040  1.8760 -3.3579 -0.5236
  106OSM    H3G10850   3.331   4.308  24.176  0.4272 -0.8196  1.0136
  106OSM    C4F10851   3.117   4.280  24.216  0.1783  0.0662  0.3992
  106OSM    H4F10852   3.111   4.238  24.319 -1.2999 -0.3007  0.1890
  106OSM    H4G10853   3.034   4.229  24.162 -1.0490  0.1201  2.1159
  106OSM    C5F10854   3.096   4.436  24.229  0.0065  0.7284 -0.4621
  106OSM    H5F10855   3.126   4.472  24.129 -1.3027 -1.2595 -1.6204
  106OSM    H5G10856   3.164   4.475  24.309 -0.8114 -0.6369  0.9593
  106OSM    C6F10857   2.960   4.474  24.271  0.2284 -0.6710 -0.0472
  106OSM    H6F10858   2.960   4.573  24.322  2.0814  0.7719 -2.6112
  106OSM    H6G10859   2.918   4.396  24.337 -1.0501  0.1594  0.1699
  106OSM    C7F10860   2.872   4.498  24.147 -0.3296  0.1272 -0.3714
  106OSM    H7F10861   2.903   4.418  24.077  1.6339  0.3278  0.2202
  106OSM    H7G10862   2.903   4.592  24.097 -0.0907  2.5411  3.8768
  106OSM    C8F10863   2.720   4.496  24.177  0.5372 -0.7731  0.0231
  106OSM    H8F10864   2.681   4.497  24.073 -2.5190  1.7056  1.0387
  106OSM    H8G10865   2.682   4.585  24.232  1.4846 -0.5731  0.3678
  106OSM    C9F10866   2.681   4.363  24.230  0.4081 -0.5049 -1.0954
  106OSM    H9F10867   2.762   4.291  24.249  1.5836  0.6317 -1.6588
  106OSM   C10F10868   2.552   4.327  24.245 -0.1697  1.0121 -0.8399
  106OSM   H10F10869   2.530   4.229  24.290  1.2687  2.1172  2.6259
  106OSM   C11F10870   2.433   4.412  24.217 -0.2123  0.4864 -0.4270
  106OSM   H11F10871   2.410   4.412  24.108  1.5085  0.3663 -0.8305
  106OSM   H11G10872   2.456   4.518  24.242 -0.0903  0.2232  0.5898
  106OSM   C12F10873   2.320   4.365  24.316  0.5876 -0.2555  0.2078
  106OSM   H12F10874   2.354   4.376  24.422 -1.6810  0.8989  0.8829
  106OSM   H12G10875   2.295   4.259  24.294 -0.6878  0.2595 -0.9706
  106OSM   C13F10876   2.183   4.425  24.298 -0.1835  0.2380 -0.4385
  106OSM   H13F10877   2.135   4.397  24.202 -0.6237 -0.7864  0.0612
  106OSM   H13G10878   2.205   4.534  24.293 -1.0029  0.3981 -0.7902
  106OSM   C14F10879   2.080   4.380  24.406 -0.6026 -0.1618  0.0709
  106OSM   H14F10880   2.119   4.398  24.508 -1.6791 -2.3577  0.9323
  106OSM   H14G10881   2.057   4.273  24.392 -2.8775  0.0009  1.9555
  106OSM   C15F10882   1.948   4.451  24.397 -0.3508 -0.3069 -0.1901
  106OSM   H15F10883   1.906   4.443  24.295  0.6725 -0.5742 -0.6011
  106OSM   H15G10884   1.950   4.561  24.415 -1.8753 -0.0715 -1.2702
  106OSM   C16F10885   1.838   4.392  24.490 -0.0634 -0.3132  0.0653
  106OSM   H16F10886   1.874   4.408  24.594  1.5538 -0.3846 -0.4541
  106OSM   H16G10887   1.825   4.282  24.487 -1.6822 -0.2897  2.7489
  106OSM   C17F10888   1.708   4.457  24.466  0.5192  0.1276  0.2248
  106OSM   H17F10889   1.636   4.424  24.544  1.6982 -2.1510  0.4040
  106OSM   H17G10890   1.675   4.431  24.363  1.4789 -0.7066  0.1125
  106OSM   C18F10891   1.701   4.611  24.475  0.0826 -0.5935 -0.2713
  106OSM   H18F10892   1.688   4.676  24.386 -3.1625 -0.1944  0.3816
  106OSM   H18G10893   1.794   4.648  24.523 -0.4968 -2.0308  2.0833
  106OSM   H18H10894   1.619   4.635  24.545 -0.4449 -2.0404 -0.3546
  107OSM      N10895   0.178   2.004  21.575  0.2761  0.5147 -0.0264
  107OSM    C1510896   0.323   2.030  21.540 -0.2933 -0.6346  0.3780
  107OSM   H15A10897   0.359   2.117  21.593  0.6369 -0.3050 -0.7547
  107OSM   H15B10898   0.327   2.052  21.434 -0.4071  1.8989  0.8437
  107OSM   H15C10899   0.395   1.949  21.539  0.4690  0.0342 -0.4433
  107OSM    C1410900   0.180   1.933  21.705  0.0097 -0.3667 -0.3216
  107OSM   H14A10901   0.261   1.862  21.700 -0.8790 -1.6799  1.8663
  107OSM   H14B10902   0.087   1.880  21.725 -0.0801 -0.4893 -1.0606
  107OSM   H14C10903   0.203   1.990  21.794  0.4274 -1.5213  0.3355
  107OSM    C1310904   0.101   2.138  21.581 -0.2615 -0.7510 -0.0270
  107OSM   H13A10905   0.129   2.190  21.671  3.1151 -3.2347  0.5492
  107OSM   H13B10906  -0.006   2.122  21.580 -0.8099  1.7040  3.3566
  107OSM   H13C10907   0.123   2.188  21.488 -0.9928 -1.6980 -0.7340
  107OSM    C1210908   0.108   1.922  21.463  0.2180 -0.6672  0.0792
  107OSM   H12A10909   0.005   1.909  21.494  0.3441 -1.7671  0.0886
  107OSM   H12B10910   0.159   1.827  21.469 -0.6855 -1.1031  1.7827
  107OSM    C1110911   0.121   1.980  21.319 -0.7267  0.0677 -0.1018
  107OSM   H11A10912   0.091   2.087  21.312  1.4463  0.7527  0.2610
  107OSM   H11B10913   0.057   1.914  21.258 -0.7290 -0.0853  0.0659
  107OSM      P10914   0.327   1.846  21.233  0.2895  0.3049  0.1205
  107OSM    O1310915   0.416   1.811  21.345  0.2173  0.1870 -0.1189
  107OSM    O1410916   0.221   1.742  21.208  0.2442  0.3021 -0.0830
  107OSM    O1110917   0.404   1.889  21.104 -0.2389 -0.0189  0.1465
  107OSM    O1210918   0.260   1.978  21.275  0.8439 -0.3963 -0.2962
  107OSM    C1S10919   0.332   1.933  20.984 -0.0069  0.2040 -0.3083
  107OSM    H1S10920   0.247   2.001  21.005 -0.6504 -0.5255 -0.4599
  107OSM    H1T10921   0.297   1.850  20.917 -1.0424 -0.0547  0.5284
  107OSM     NF10922   0.361   2.075  20.790  0.0300 -0.3081  0.4816
  107OSM    HNF10923   0.361   2.027  20.703  0.1516 -0.1270  0.3800
  107OSM    C2S10924   0.436   2.006  20.896 -0.9731  0.1812 -0.0174
  107OSM    H2S10925   0.474   2.078  20.971 -0.4954 -1.2722  1.1935
  107OSM    C3S10926   0.551   1.918  20.845  0.6874 -0.4460 -0.7196
  107OSM    H3S10927   0.493   1.846  20.783  1.1019  1.1871 -3.1424
  107OSM     O310928   0.628   1.859  20.948  0.2482 -0.3807 -0.0032
  107OSM    HO310929   0.575   1.881  21.026 -1.4028 -0.0767 -1.1532
  107OSM    C4S10930   0.649   1.986  20.746 -0.3243  0.0239 -1.7567
  107OSM    H4S10931   0.621   1.976  20.640  1.8474 -0.7069 -2.3078
  107OSM    C5S10932   0.761   2.050  20.776  0.5067 -0.2596  0.0849
  107OSM    H5S10933   0.783   2.067  20.882  0.6929 -2.1356  0.3707
  107OSM    C6S10934   0.857   2.122  20.686 -0.0821  0.2526 -0.0554
  107OSM    H6S10935   0.956   2.072  20.688 -0.3508 -0.3779 -1.3115
  107OSM    H6T10936   0.885   2.221  20.727 -0.2867  0.4206 -0.3179
  107OSM    C7S10937   0.817   2.137  20.538 -0.6222 -0.3733  0.4579
  107OSM    H7S10938   0.717   2.183  20.529  0.8770  3.3718  0.9957
  107OSM    H7T10939   0.817   2.041  20.482 -0.3746  1.0031 -2.0026
  107OSM    C8S10940   0.919   2.224  20.468  0.1504 -0.5004  0.6923
  107OSM    H8S10941   1.016   2.170  20.462  0.9061  0.7350  1.4406
  107OSM    H8T10942   0.934   2.322  20.518 -0.0486 -1.3936  2.5828
  107OSM    C9S10943   0.882   2.255  20.325 -0.1369 -0.0180  0.4431
  107OSM    H9S10944   0.794   2.323  20.320 -0.3007 -0.2563  0.0026
  107OSM    H9T10945   0.841   2.163  20.277  0.4074 -0.2541  0.4251
  107OSM   C10S10946   1.000   2.319  20.249 -0.4019 -0.0745 -0.1901
  107OSM   H10S10947   1.068   2.236  20.220 -0.0654  0.6784 -1.6467
  107OSM   H10T10948   1.045   2.388  20.323  0.3596  1.6329 -2.1687
  107OSM   C11S10949   0.958   2.390  20.121 -1.0420  0.8097 -0.4807
  107OSM   H11S10950   1.041   2.460  20.097  0.5107 -0.4942  0.8067
  107OSM   H11T10951   0.860   2.440  20.138 -0.1060  2.2255  1.0689
  107OSM   C12S10952   0.959   2.285  20.006  0.1209 -0.0095  0.8036
  107OSM   H12S10953   0.887   2.207  20.038 -1.0430  0.9110  0.5104
  107OSM   H12T10954   1.062   2.246  19.997 -0.8306 -2.3652 -0.9781
  107OSM   C13S10955   0.907   2.339  19.865  0.1973 -0.0470 -0.8165
  107OSM   H13S10956   0.985   2.410  19.830  1.0983 -1.4867 -1.8490
  107OSM   H13T10957   0.810   2.393  19.869 -0.0776 -0.5971  0.6046
  107OSM   C14S10958   0.882   2.224  19.771  0.7819  0.0511  0.3684
  107OSM   H14S10959   0.794   2.160  19.793  0.2592 -0.8607 -3.5552
  107OSM   H14T10960   0.974   2.163  19.759  1.4370  1.1395 -0.2666
  107OSM   C15S10961   0.847   2.283  19.634 -0.1545  0.4384  0.1312
  107OSM   H15S10962   0.778   2.370  19.643 -1.8423 -0.9136  0.6816
  107OSM   H15T10963   0.790   2.208  19.575  0.4026 -1.3983  1.8203
  107OSM   C16S10964   0.972   2.317  19.564 -0.3517 -0.1355  0.2619
  107OSM   H16S10965   1.022   2.220  19.546  0.4085  0.1768  0.6397
  107OSM   H16T10966   1.047   2.366  19.630 -1.1719 -0.6859  1.6506
  107OSM   C17S10967   0.952   2.401  19.442 -0.3989  0.0339  1.0714
  107OSM   H17S10968   0.914   2.491  19.496 -3.6698 -0.6609  0.1835
  107OSM   H17T10969   0.866   2.353  19.391  0.9467 -2.2274  0.7971
  107OSM   C18S10970   1.086   2.416  19.363  0.0157  0.1121 -0.3998
  107OSM   H18S10971   1.071   2.485  19.278 -1.5838  0.7906  0.3885
  107OSM   H18T10972   1.130   2.316  19.340  2.6178  1.0132  0.2761
  107OSM   H18U10973   1.164   2.461  19.428 -0.4742 -0.0270  0.3094
  107OSM    C1F10974   0.262   2.164  20.811 -0.0907  0.0136 -0.5773
  107OSM     OF10975   0.257   2.215  20.924 -0.5417 -0.0091  0.4545
  107OSM    C2F10976   0.163   2.196  20.701  0.1946  0.4617 -0.0748
  107OSM    H2F10977   0.066   2.212  20.753  0.3449  0.2440  0.2754
  107OSM    H2G10978   0.159   2.111  20.630  1.1845  0.3628 -0.0215
  107OSM    C3F10979   0.197   2.333  20.629 -0.3623  0.9741  0.1773
  107OSM    H3F10980   0.174   2.418  20.696  1.7977  1.5716  0.2529
  107OSM    H3G10981   0.143   2.344  20.533 -1.8957 -0.2368  0.8689
  107OSM    C4F10982   0.352   2.340  20.576 -0.8381 -0.1531 -0.1659
  107OSM    H4F10983   0.383   2.239  20.542  1.3143  0.6358 -0.6670
  107OSM    H4G10984   0.422   2.357  20.660 -1.4418  2.7186 -0.1314
  107OSM    C5F10985   0.392   2.438  20.464 -0.4244 -0.4494  0.6817
  107OSM    H5F10986   0.426   2.532  20.513  1.4160 -0.9212  0.4020
  107OSM    H5G10987   0.307   2.466  20.398  1.4976  1.6245 -1.1000
  107OSM    C6F10988   0.514   2.390  20.382 -0.2265 -0.3858 -0.3903
  107OSM    H6F10989   0.478   2.300  20.328 -0.0891 -0.0007 -1.1246
  107OSM    H6G10990   0.609   2.354  20.427  0.6703 -0.8716 -2.5745
  107OSM    C7F10991   0.556   2.497  20.279  0.0949  0.1396 -0.3045
  107OSM    H7F10992   0.647   2.555  20.308 -0.8123  0.5293  2.0232
  107OSM    H7G10993   0.479   2.576  20.283 -0.4511 -0.4066  0.4033
  107OSM    C8F10994   0.554   2.454  20.133  0.2957  0.6284  0.1679
  107OSM    H8F10995   0.458   2.406  20.108  0.6884  0.2684 -0.7092
  107OSM    H8G10996   0.624   2.369  20.120 -1.1714 -0.5318 -0.3548
  107OSM    C9F10997   0.558   2.574  20.046  0.2000 -0.0818 -0.6651
  107OSM    H9F10998   0.660   2.604  20.018 -0.2290  0.5498 -1.6258
  107OSM   C10F10999   0.448   2.645  20.009  0.1061 -0.0933  0.1552
  107OSM   H10F11000   0.468   2.736  19.951 -1.1965 -0.3182 -0.6957
  107OSM   C11F11001   0.299   2.623  20.048 -0.6743 -0.2638  0.5743
  107OSM   H11F11002   0.265   2.715  20.101  1.5152  0.0610  1.5574
  107OSM   H11G11003   0.293   2.546  20.127  1.0500  0.9910  2.0104
  107OSM   C12F11004   0.208   2.577  19.928  0.5376 -0.5098 -0.3398
  107OSM   H12F11005   0.244   2.476  19.897 -1.6350 -1.6205  0.5621
  107OSM   H12G11006   0.209   2.647  19.841 -2.2510  2.2723  1.6459
  107OSM   C13F11007   0.064   2.562  19.976 -0.2296  0.2772  0.3102
  107OSM   H13F11008   0.030   2.663  20.007  1.5424  1.3966 -1.2156
  107OSM   H13G11009   0.046   2.494  20.062 -2.3844  0.8690  0.3879
  107OSM   C14F11010  -0.034   2.504  19.868 -0.4816 -0.2346  0.4455
  107OSM   H14F11011   0.012   2.407  19.839  0.7142 -0.0990  1.7625
  107OSM   H14G11012  -0.037   2.572  19.780  1.1043  0.6596  1.0219
  107OSM   C15F11013  -0.173   2.478  19.921  0.3694 -0.0434 -0.8501
  107OSM   H15F11014  -0.246   2.462  19.838 -0.1559 -1.9617 -0.0865
  107OSM   H15G11015  -0.210   2.572  19.967  0.2586  0.2687 -1.5691
  107OSM   C16F11016  -0.182   2.364  20.028  0.5896 -0.2781 -0.1616
  107OSM   H16F11017  -0.149   2.405  20.126 -1.6334  0.9003  0.1726
  107OSM   H16G11018  -0.126   2.273  19.998  0.7626 -0.0377 -0.5701
  107OSM   C17F11019  -0.329   2.313  20.029  0.4930 -0.2651  0.0933
  107OSM   H17F11020  -0.368   2.277  19.931  0.4317 -0.9877  0.3778
  107OSM   H17G11021  -0.394   2.398  20.059 -0.3985 -1.1998  0.8858
  107OSM   C18F11022  -0.352   2.194  20.121 -0.1838 -0.7150 -0.3681
  107OSM   H18F11023  -0.460   2.166  20.126 -0.3209 -0.0820  0.3248
  107OSM   H18G11024  -0.324   2.214  20.226 -1.1605  1.8797 -0.5484
  107OSM   H18H11025  -0.302   2.105  20.077  0.1570  0.6498 -2.9152
  108OSM      N11026   4.399   3.056  25.670 -0.1071 -0.5837 -0.0716
  108OSM    C1511027   4.402   3.076  25.817  0.3029  0.0251  0.6943
  108OSM   H15A11028   4.405   3.181  25.842  0.4476  0.7820 -2.1454
  108OSM   H15B11029   4.477   3.013  25.861  0.0415 -1.1045 -0.4258
  108OSM   H15C11030   4.312   3.045  25.867  1.2354 -1.0970  1.7234
  108OSM    C1411031   4.537   3.070  25.619 -0.0908 -0.6106  0.6587
  108OSM   H14A11032   4.604   2.990  25.649  0.5864 -1.0542 -1.7675
  108OSM   H14B11033   4.583   3.159  25.658 -1.6326  0.8670 -0.7356
  108OSM   H14C11034   4.531   3.078  25.511 -1.2134 -5.2373  0.1687
  108OSM    C1311035   4.357   2.912  25.659  0.3610 -0.4428  0.0134
  108OSM   H13A11036   4.331   2.884  25.558  0.9111  1.0866 -0.5815
  108OSM   H13B11037   4.277   2.899  25.730  2.2020 -3.8336  1.7034
  108OSM   H13C11038   4.435   2.845  25.692  2.5111  1.9319  0.0683
  108OSM    C1211039   4.303   3.141  25.605  0.2311 -0.5011 -0.1803
  108OSM   H12A11040   4.286   3.110  25.503  0.0408  1.7134 -0.8732
  108OSM   H12B11041   4.361   3.231  25.590  2.4771 -1.9607 -0.7645
  108OSM    C1111042   4.171   3.175  25.676  0.6330 -0.4957 -0.5810
  108OSM   H11A11043   4.130   3.089  25.734  0.1575  1.1633  1.6740
  108OSM   H11B11044   4.098   3.203  25.597 -0.3844  0.3907  0.6473
  108OSM      P11045   4.153   3.430  25.746 -0.2034 -0.0369 -0.2272
  108OSM    O1311046   4.183   3.500  25.870  0.3890  0.1172  0.2440
  108OSM    O1411047   4.215   3.473  25.621  0.2358  0.0066  0.7601
  108OSM    O1111048   3.999   3.438  25.732  0.0184  0.1827 -0.0826
  108OSM    O1211049   4.190   3.283  25.772 -0.3320  0.2718  0.0858
  108OSM    C1S11050   3.926   3.348  25.816 -0.4766 -0.1001  0.7395
  108OSM    H1S11051   3.949   3.366  25.923 -1.1357  1.6797  0.6102
  108OSM    H1T11052   3.945   3.240  25.797 -3.9231 -0.8516  0.7292
  108OSM     NF11053   3.723   3.287  25.911  0.2954  0.2988 -0.1139
  108OSM    HNF11054   3.714   3.188  25.898  2.6662  0.0503 -0.3199
  108OSM    C2S11055   3.775   3.363  25.794 -0.2946  0.2484 -0.6689
  108OSM    H2S11056   3.752   3.472  25.804  4.5994  1.4290  0.3215
  108OSM    C3S11057   3.739   3.306  25.662  0.6887 -0.6106 -0.2203
  108OSM    H3S11058   3.782   3.204  25.661 -1.9575 -1.9026  2.9848
  108OSM     O311059   3.789   3.376  25.552 -0.2284  0.1208 -0.4503
  108OSM    HO311060   3.849   3.440  25.590  1.0498 -1.0108 -0.4776
  108OSM    C4S11061   3.587   3.282  25.650 -0.6494  0.6092 -0.1112
  108OSM    H4S11062   3.566   3.180  25.684  1.0195  0.2444 -0.0845
  108OSM    C5S11063   3.498   3.360  25.583  0.0513  0.2051 -0.6402
  108OSM    H5S11064   3.546   3.450  25.544 -2.9307  1.7100 -1.1110
  108OSM    C6S11065   3.353   3.332  25.550  0.4367  0.4068 -0.5603
  108OSM    H6S11066   3.316   3.236  25.592  0.5485  1.0274  1.0369
  108OSM    H6T11067   3.348   3.311  25.441 -2.6587  3.6664 -1.2208
  108OSM    C7S11068   3.262   3.454  25.576 -0.4908  0.1656  0.2504
  108OSM    H7S11069   3.292   3.528  25.499 -0.1002 -0.1100  0.1329
  108OSM    H7T11070   3.288   3.492  25.677 -1.0334 -0.0518  0.4775
  108OSM    C8S11071   3.109   3.433  25.561 -0.7620 -0.0159  0.0164
  108OSM    H8S11072   3.051   3.526  25.580  0.4953  1.1211 -1.4467
  108OSM    H8T11073   3.075   3.374  25.648 -0.9625  0.1539  0.0545
  108OSM    C9S11074   3.064   3.379  25.426 -0.1513  0.3663 -0.2162
  108OSM    H9S11075   3.101   3.282  25.388 -0.5703  1.0764 -2.5581
  108OSM    H9T11076   3.089   3.456  25.350  1.2283 -0.5528 -0.7334
  108OSM   C10S11077   2.913   3.352  25.418 -0.3237  0.1112  0.9512
  108OSM   H10S11078   2.882   3.325  25.315  0.3090 -0.9346  1.0229
  108OSM   H10T11079   2.862   3.448  25.442  0.8469  0.9979  0.0351
  108OSM   C11S11080   2.846   3.240  25.503 -0.0380  0.5372 -0.0574
  108OSM   H11S11081   2.857   3.260  25.612  0.0213  0.1165  0.0136
  108OSM   H11T11082   2.886   3.139  25.481 -0.5495  0.0347  1.2358
  108OSM   C12S11083   2.694   3.226  25.458  0.4368 -0.9385 -0.4018
  108OSM   H12S11084   2.649   3.327  25.462 -1.9605 -1.9221 -0.4889
  108OSM   H12T11085   2.638   3.164  25.533 -0.1374  1.2744  1.0877
  108OSM   C13S11086   2.669   3.156  25.325  0.3487 -0.4710  0.0568
  108OSM   H13S11087   2.724   3.059  25.322 -0.6677 -1.1102  1.3186
  108OSM   H13T11088   2.702   3.230  25.249 -0.1262 -0.9157 -0.5905
  108OSM   C14S11089   2.517   3.123  25.302  0.2052 -0.0778  0.3354
  108OSM   H14S11090   2.475   3.102  25.402 -0.6392 -0.3796 -0.0735
  108OSM   H14T11091   2.500   3.027  25.249  0.1302  0.2285 -0.2086
  108OSM   C15S11092   2.447   3.235  25.231  0.3958  0.6077 -0.9632
  108OSM   H15S11093   2.469   3.226  25.122  1.8840  1.5913 -0.7816
  108OSM   H15T11094   2.474   3.336  25.269  2.2435 -0.0081 -0.5650
  108OSM   C16S11095   2.290   3.221  25.242  0.1624 -0.1884  0.0125
  108OSM   H16S11096   2.238   3.317  25.224  0.9912 -0.0131 -1.6410
  108OSM   H16T11097   2.271   3.182  25.345 -0.9288 -0.5908 -0.3353
  108OSM   C17S11098   2.237   3.124  25.143 -0.7646  0.0945  0.4936
  108OSM   H17S11099   2.291   3.031  25.173 -0.0823  0.1766 -0.4329
  108OSM   H17T11100   2.271   3.150  25.040 -0.2639 -0.4454  0.5155
  108OSM   C18S11101   2.088   3.107  25.165 -0.3433  0.1246 -0.2877
  108OSM   H18S11102   2.028   3.199  25.174  1.2933  1.0291  2.3828
  108OSM   H18T11103   2.060   3.043  25.251 -1.3816  0.6292 -0.2374
  108OSM   H18U11104   2.051   3.051  25.076 -0.9595  0.4298 -0.2240
  108OSM    C1F11105   3.722   3.345  26.037 -0.3025  0.0784 -0.0987
  108OSM     OF11106   3.741   3.462  26.051 -0.0694  0.2604 -0.5651
  108OSM    C2F11107   3.687   3.256  26.150 -0.6240 -1.1009 -0.0777
  108OSM    H2F11108   3.774   3.192  26.175  1.0521  0.6814 -1.0626
  108OSM    H2G11109   3.603   3.186  26.128 -2.3104  0.4158  1.2553
  108OSM    C3F11110   3.648   3.344  26.269  0.0886  0.1070 -0.7862
  108OSM    H3F11111   3.554   3.397  26.245  0.5401  1.9471  1.1670
  108OSM    H3G11112   3.729   3.420  26.282  0.5352 -0.2589 -1.3458
  108OSM    C4F11113   3.628   3.268  26.404 -0.4247  0.8527  0.0793
  108OSM    H4F11114   3.620   3.345  26.484  0.4680  1.0992 -0.0603
  108OSM    H4G11115   3.718   3.209  26.431  0.3123  2.6965  1.8832
  108OSM    C5F11116   3.505   3.181  26.394  0.0546 -0.0759 -0.1883
  108OSM    H5F11117   3.522   3.099  26.321  0.7064 -0.4598  0.3866
  108OSM    H5G11118   3.422   3.244  26.355  0.3624  1.2582  1.2032
  108OSM    C6F11119   3.460   3.112  26.524  0.4030 -0.1851  0.5252
  108OSM    H6F11120   3.418   3.196  26.583  1.5523  2.1384 -1.7757
  108OSM    H6G11121   3.545   3.070  26.581 -1.4434 -1.2765  2.6608
  108OSM    C7F11122   3.343   3.012  26.507 -0.7155  0.1930 -0.2635
  108OSM    H7F11123   3.329   2.977  26.611  0.7258  2.4264  0.7562
  108OSM    H7G11124   3.389   2.937  26.439 -1.0386  1.9950 -2.5956
  108OSM    C8F11125   3.216   3.061  26.450  0.4678  0.0085 -0.1169
  108OSM    H8F11126   3.237   3.109  26.351 -0.1526  0.7127  0.0854
  108OSM    H8G11127   3.182   3.155  26.497 -0.0701  1.5390 -3.2660
  108OSM    C9F11128   3.110   2.952  26.459  0.5021  0.0504  0.5966
  108OSM    H9F11129   3.130   2.874  26.534  0.7143  1.1903  1.7817
  108OSM   C10F11130   2.996   2.957  26.396  0.0919  0.7031 -0.1160
  108OSM   H10F11131   2.921   2.877  26.399  0.1801  0.6572  1.4124
  108OSM   C11F11132   2.953   3.066  26.297  0.2968 -0.4337  0.7339
  108OSM   H11F11133   3.039   3.122  26.256 -1.0950  0.6132 -0.8752
  108OSM   H11G11134   2.877   3.129  26.348  0.0728 -0.8213  0.8857
  108OSM   C12F11135   2.876   2.997  26.184 -0.3231  0.1836 -0.2023
  108OSM   H12F11136   2.831   3.077  26.121 -1.3747 -0.1418  0.1249
  108OSM   H12G11137   2.791   2.932  26.213 -0.3037 -0.2895 -1.1763
  108OSM   C13F11138   2.968   2.907  26.092  0.4841  0.2461  0.9669
  108OSM   H13F11139   2.926   2.805  26.104  2.7401 -1.4217 -3.2747
  108OSM   H13G11140   3.071   2.898  26.132 -0.1907 -2.2211  2.4097
  108OSM   C14F11141   2.966   2.954  25.951 -0.3172  0.5935  0.8482
  108OSM   H14F11142   2.864   2.958  25.909  0.4670 -2.1857 -1.6431
  108OSM   H14G11143   3.015   2.884  25.880 -1.4951  1.3943 -0.8352
  108OSM   C15F11144   3.027   3.094  25.922  0.4691  0.0521  0.6537
  108OSM   H15F11145   2.966   3.174  25.969 -3.4852 -1.9359 -0.7046
  108OSM   H15G11146   3.017   3.134  25.818 -0.2775  0.3207  0.8193
  108OSM   C16F11147   3.169   3.114  25.986  0.7017  0.4027  0.9627
  108OSM   H16F11148   3.220   3.017  25.968 -3.5934 -1.6428 -1.8109
  108OSM   H16G11149   3.150   3.127  26.095 -1.8262  0.3451  0.5846
  108OSM   C17F11150   3.227   3.233  25.923 -0.5775  0.4357 -0.3069
  108OSM   H17F11151   3.179   3.328  25.953 -1.0234  0.6814 -1.7599
  108OSM   H17G11152   3.220   3.235  25.812 -1.7771  1.9321 -0.2292
  108OSM   C18F11153   3.373   3.259  25.966  0.2777 -0.2703 -0.2731
  108OSM   H18F11154   3.440   3.188  25.913  0.8195  0.6369 -0.8482
  108OSM   H18G11155   3.373   3.241  26.075  2.9024 -1.6626 -0.4130
  108OSM   H18H11156   3.414   3.360  25.941 -1.4008  0.4055 -0.3931
  109OSM      N11157   3.823   2.107  25.039 -0.1473  0.2621  0.2608
  109OSM    C1511158   3.858   2.256  25.029  0.3266 -0.8968  0.3825
  109OSM   H15A11159   3.867   2.274  24.923 -1.9937  1.3715  0.4619
  109OSM   H15B11160   3.949   2.275  25.085  0.6081 -0.4085 -0.2252
  109OSM   H15C11161   3.777   2.322  25.057  1.1152  0.9852 -1.4625
  109OSM    C1411162   3.934   2.035  24.978  0.6335 -0.6380 -0.3211
  109OSM   H14A11163   4.016   2.040  25.048  0.4585 -1.2161 -0.0728
  109OSM   H14B11164   3.953   2.089  24.886  0.5162  0.0185  0.0279
  109OSM   H14C11165   3.905   1.935  24.953  0.7855 -0.6415 -0.4779
  109OSM    C1311166   3.818   2.065  25.182  0.5068  0.2162  0.2290
  109OSM   H13A11167   3.914   2.070  25.229 -0.3418  2.7517  1.8792
  109OSM   H13B11168   3.774   1.966  25.189 -2.3273  1.2920 -0.5788
  109OSM   H13C11169   3.752   2.136  25.229  0.4344  1.1659 -1.2248
  109OSM    C1211170   3.689   2.080  24.968 -0.2048 -0.0040 -0.3504
  109OSM   H12A11171   3.602   2.121  25.017 -0.2221  1.5586 -1.6201
  109OSM   H12B11172   3.670   1.974  24.965  1.3176 -0.4109  1.8150
  109OSM    C1111173   3.675   2.137  24.819 -0.2251 -0.1179 -0.5011
  109OSM   H11A11174   3.674   2.248  24.819  0.8232 -0.0989 -1.3599
  109OSM   H11B11175   3.577   2.091  24.791 -0.2689 -0.2786 -0.1007
  109OSM      P11176   3.819   2.172  24.616  0.0690 -0.0315  0.2895
  109OSM    O1311177   3.866   2.304  24.667  0.4983 -0.2551 -0.1741
  109OSM    O1411178   3.902   2.096  24.518  0.6748  0.8034 -0.0607
  109OSM    O1111179   3.680   2.203  24.550 -0.6499 -0.2610 -0.5498
  109OSM    O1211180   3.772   2.083  24.730  0.7237 -0.2895  0.0009
  109OSM    C1S11181   3.595   2.102  24.496 -0.6248  0.0851 -0.2914
  109OSM    H1S11182   3.571   2.021  24.568 -1.2904 -0.2689 -0.9060
  109OSM    H1T11183   3.635   2.057  24.403 -0.7204 -0.7247  0.0516
  109OSM     NF11184   3.393   2.040  24.400  0.1690  0.2787  0.5940
  109OSM    HNF11185   3.410   2.021  24.304 -0.0807  0.3772  0.5290
  109OSM    C2S11186   3.460   2.159  24.449  0.3930 -0.2020 -0.6855
  109OSM    H2S11187   3.387   2.197  24.523 -3.0453 -3.1139 -2.2549
  109OSM    C3S11188   3.481   2.269  24.335 -0.3257  0.2582 -0.3269
  109OSM    H3S11189   3.537   2.225  24.249 -0.5514 -0.2151 -0.2324
  109OSM     O311190   3.576   2.372  24.368  0.3384 -0.3925  0.4998
  109OSM    HO311191   3.629   2.336  24.439  1.3734 -1.7922 -0.9118
  109OSM    C4S11192   3.354   2.330  24.286 -0.0205 -0.3645 -0.0307
  109OSM    H4S11193   3.312   2.410  24.349 -1.4991 -1.5165  0.5239
  109OSM    C5S11194   3.285   2.309  24.171  0.1266 -0.1820 -0.3088
  109OSM    H5S11195   3.320   2.234  24.098 -0.6436  0.7969 -1.7155
  109OSM    C6S11196   3.156   2.387  24.136 -0.0790  0.7497 -0.1664
  109OSM    H6S11197   3.162   2.450  24.045 -2.1500 -1.5856 -2.0647
  109OSM    H6T11198   3.139   2.459  24.218 -0.8514 -0.2402  0.5656
  109OSM    C7S11199   3.027   2.308  24.125  0.0715  0.1204 -0.1305
  109OSM    H7S11200   2.956   2.375  24.071 -2.7333 -1.7055  1.0861
  109OSM    H7T11201   2.979   2.284  24.222  1.3321 -0.2548  0.4267
  109OSM    C8S11202   3.046   2.180  24.034 -0.3524  0.6015 -0.8662
  109OSM    H8S11203   3.098   2.109  24.102  0.0714  0.7740 -1.0017
  109OSM    H8T11204   3.112   2.181  23.945  1.2387 -1.2869  0.2151
  109OSM    C9S11205   2.913   2.116  23.995  0.1027 -0.1225  0.4595
  109OSM    H9S11206   2.872   2.183  23.917  0.8963  1.4788  1.3620
  109OSM    H9T11207   2.848   2.103  24.084  0.4424 -2.0036  0.4689
  109OSM   C10S11208   2.939   1.974  23.946 -0.9434 -0.1785 -0.0154
  109OSM   H10S11209   2.995   1.917  24.024 -0.0063  1.0689  0.2649
  109OSM   H10T11210   3.004   1.986  23.857 -2.1995  1.3009 -0.7586
  109OSM   C11S11211   2.814   1.895  23.907 -0.1006 -0.8911  0.2168
  109OSM   H11S11212   2.740   1.887  23.990  0.7789 -0.9796  1.0082
  109OSM   H11T11213   2.837   1.788  23.891  2.0985 -0.8265  2.3413
  109OSM   C12S11214   2.755   1.947  23.775  0.2667 -0.4963  0.1762
  109OSM   H12S11215   2.831   1.950  23.694  1.5277  0.7706  1.3397
  109OSM   H12T11216   2.723   2.054  23.773  1.0014 -0.2734 -0.0532
  109OSM   C13S11217   2.622   1.881  23.734  0.0307  0.3059  0.1003
  109OSM   H13S11218   2.565   1.921  23.820 -0.7622  0.9545 -0.7019
  109OSM   H13T11219   2.620   1.771  23.722 -1.3354  0.2454  0.6457
  109OSM   C14S11220   2.564   1.937  23.599 -0.2257  0.2886 -0.1787
  109OSM   H14S11221   2.649   1.915  23.531  0.3487  0.3530  0.5013
  109OSM   H14T11222   2.553   2.048  23.605 -1.9185  0.1567 -0.4076
  109OSM   C15S11223   2.429   1.874  23.552 -0.2600  0.7829 -0.2286
  109OSM   H15S11224   2.345   1.902  23.619  0.4220  0.0418  0.9955
  109OSM   H15T11225   2.425   1.763  23.558  0.6816  0.7730  0.4858
  109OSM   C16S11226   2.405   1.906  23.409  0.1183 -0.0046 -0.0014
  109OSM   H16S11227   2.336   1.834  23.360 -0.3628  0.3133  0.1961
  109OSM   H16T11228   2.505   1.890  23.363  0.3764  0.9992  0.1920
  109OSM   C17S11229   2.354   2.048  23.365  0.2773 -0.2983  0.5203
  109OSM   H17S11230   2.357   2.031  23.255 -1.8359 -0.4516  0.4579
  109OSM   H17T11231   2.434   2.123  23.388 -0.1561 -0.3146  2.1785
  109OSM   C18S11232   2.219   2.086  23.416  0.2912  0.5452 -0.0055
  109OSM   H18S11233   2.186   2.189  23.391 -2.6835 -0.3067  0.0172
  109OSM   H18T11234   2.212   2.082  23.527 -1.1524 -0.9512 -0.1084
  109OSM   H18U11235   2.142   2.014  23.382 -0.2152  1.0578  0.0502
  109OSM    C1F11236   3.327   1.939  24.473 -0.2362 -0.0225  0.1156
  109OSM     OF11237   3.356   1.935  24.592  0.1258  0.2698 -0.5413
  109OSM    C2F11238   3.254   1.826  24.403 -0.1576 -0.1204 -0.6885
  109OSM    H2F11239   3.210   1.760  24.481  1.4118 -0.4284 -0.0343
  109OSM    H2G11240   3.331   1.766  24.351 -1.9033 -1.8651 -1.3508
  109OSM    C3F11241   3.141   1.882  24.304  0.2066 -0.2747 -0.7137
  109OSM    H3F11242   3.082   1.796  24.267  0.7525 -0.3116 -1.5355
  109OSM    H3G11243   3.196   1.918  24.213 -0.3022 -0.8618 -1.2650
  109OSM    C4F11244   3.046   1.977  24.380 -0.1952 -1.1027  0.1681
  109OSM    H4F11245   2.971   2.015  24.307  2.8263  2.1713 -1.5264
  109OSM    H4G11246   3.097   2.068  24.419 -1.2338 -0.7307  0.7049
  109OSM    C5F11247   2.975   1.909  24.493  0.7130  0.1297 -0.2279
  109OSM    H5F11248   3.036   1.887  24.584  0.5858  1.3802  0.1857
  109OSM    H5G11249   2.938   1.807  24.467  0.9873  0.1987 -0.8944
  109OSM    C6F11250   2.855   1.992  24.538  0.0891 -0.2684 -0.6093
  109OSM    H6F11251   2.800   2.050  24.461 -1.2461  1.7053  1.6816
  109OSM    H6G11252   2.901   2.080  24.587  2.2734 -0.1351 -2.7477
  109OSM    C7F11253   2.767   1.921  24.635  0.6670 -0.6822 -0.2785
  109OSM    H7F11254   2.839   1.893  24.716 -0.0991 -0.5613  0.4625
  109OSM    H7G11255   2.726   1.829  24.588 -1.8019 -0.1103  0.5978
  109OSM    C8F11256   2.659   2.021  24.681  0.4644 -0.3127 -0.3325
  109OSM    H8F11257   2.714   2.117  24.686  1.7631 -1.0634  0.2404
  109OSM    H8G11258   2.636   1.985  24.783  1.9183  0.0396  0.1369
  109OSM    C9F11259   2.531   2.042  24.600  0.1406 -0.6874  0.7432
  109OSM    H9F11260   2.552   2.048  24.492  0.1282  1.3808  0.8246
  109OSM   C10F11261   2.404   2.055  24.646  0.1283 -0.6202  0.6272
  109OSM   H10F11262   2.322   2.081  24.576  0.9893 -0.3707 -0.3111
  109OSM   C11F11263   2.371   2.054  24.791 -0.5802 -0.1617 -0.1771
  109OSM   H11F11264   2.457   2.080  24.855 -0.3240 -0.4801 -0.3912
  109OSM   H11G11265   2.335   1.954  24.823 -1.0290 -0.5336 -1.7578
  109OSM   C12F11266   2.264   2.164  24.823  0.9263  0.9620 -0.5285
  109OSM   H12F11267   2.297   2.261  24.780 -3.8618  2.2399 -1.9499
  109OSM   H12G11268   2.270   2.171  24.934 -0.1995 -0.1558 -0.3790
  109OSM   C13F11269   2.128   2.137  24.756 -0.3351  0.4384 -0.2334
  109OSM   H13F11270   2.092   2.038  24.791  1.0895  0.4182  1.3186
  109OSM   H13G11271   2.140   2.141  24.646  1.3216 -2.5411 -0.2367
  109OSM   C14F11272   2.012   2.233  24.807 -0.7599  0.7811  0.1004
  109OSM   H14F11273   2.041   2.339  24.792  2.1399  0.2444  1.1848
  109OSM   H14G11274   2.000   2.215  24.916  1.5429  0.9503  0.4238
  109OSM   C15F11275   1.885   2.202  24.719 -0.1010 -0.5382 -0.4511
  109OSM   H15F11276   1.903   2.099  24.682 -1.7690 -1.3873  0.9209
  109OSM   H15G11277   1.897   2.267  24.630  1.8186 -1.1780 -0.6987
  109OSM   C16F11278   1.765   2.226  24.807  0.0044 -0.1356  1.0587
  109OSM   H16F11279   1.769   2.327  24.853  2.4018  1.3875 -2.0917
  109OSM   H16G11280   1.761   2.149  24.887  0.6201 -0.8779  0.3994
  109OSM   C17F11281   1.635   2.226  24.726  0.1216  0.3953  0.5239
  109OSM   H17F11282   1.622   2.126  24.679  0.4652  0.2327  0.7708
  109OSM   H17G11283   1.648   2.308  24.652 -1.4945  1.6254  1.5379
  109OSM   C18F11284   1.514   2.254  24.814 -0.7655  0.0071 -0.1724
  109OSM   H18F11285   1.519   2.355  24.860 -3.3251 -1.3352  3.5370
  109OSM   H18G11286   1.497   2.182  24.898 -1.2004 -0.2773 -0.5032
  109OSM   H18H11287   1.422   2.251  24.753 -0.4223 -2.1582 -0.6669
  110OSM      N11288   4.172   1.846  23.051  0.2313 -0.4124 -0.0002
  110OSM    C1511289   4.242   1.908  22.940 -0.3225 -0.0024  0.3935
  110OSM   H15A11290   4.346   1.880  22.947 -0.2450  0.1954  0.0653
  110OSM   H15B11291   4.246   2.015  22.955  0.9846 -0.1815  1.4731
  110OSM   H15C11292   4.210   1.872  22.843 -1.5418  2.1947 -0.1058
  110OSM    C1411293   4.029   1.894  23.050  0.4226  0.2064  0.2160
  110OSM   H14A11294   4.026   2.001  23.069  1.3627  0.5257 -1.2524
  110OSM   H14B11295   3.992   1.851  23.142  1.7012  1.5603  1.4381
  110OSM   H14C11296   3.974   1.854  22.967  0.9855  0.4526 -0.2828
  110OSM    C1311297   4.174   1.703  23.023  0.0580 -0.2323  0.8546
  110OSM   H13A11298   4.126   1.659  23.109 -1.1624 -2.0754 -0.6798
  110OSM   H13B11299   4.275   1.664  23.019  0.3566  0.5623  0.4189
  110OSM   H13C11300   4.122   1.675  22.932  1.4930 -1.5217  0.3716
  110OSM    C1211301   4.243   1.878  23.185  0.2629 -0.3268  0.1022
  110OSM   H12A11302   4.240   1.982  23.211 -0.5866 -0.9224  2.6569
  110OSM   H12B11303   4.344   1.845  23.163 -0.7113 -2.2264 -1.9987
  110OSM    C1111304   4.200   1.807  23.315  0.1035  0.3571  0.1164
  110OSM   H11A11305   4.257   1.843  23.403 -1.0802 -0.1416  1.1034
  110OSM   H11B11306   4.211   1.697  23.303 -1.9058  0.0272  0.9844
  110OSM      P11307   4.014   1.965  23.413  0.0265 -0.0395 -0.2664
  110OSM    O1311308   4.031   1.957  23.559 -0.2744  0.4226  0.3401
  110OSM    O1411309   4.075   2.084  23.349 -0.2576  0.7774  0.0142
  110OSM    O1111310   3.864   1.965  23.378 -0.0237  0.5689  0.3689
  110OSM    O1211311   4.065   1.826  23.348 -0.1810 -0.9806  0.7166
  110OSM    C1S11312   3.791   1.842  23.377 -1.0898  0.4735  0.1814
  110OSM    H1S11313   3.786   1.789  23.475 -1.5846  0.4217  0.1268
  110OSM    H1T11314   3.833   1.770  23.303 -2.7298  0.6321 -0.9404
  110OSM     NF11315   3.593   1.707  23.334 -0.7557  0.2341 -0.8786
  110OSM    HNF11316   3.587   1.653  23.250 -2.0529  0.0044 -0.6585
  110OSM    C2S11317   3.641   1.841  23.336 -0.4116  0.1522  0.2128
  110OSM    H2S11318   3.585   1.903  23.409 -1.6612  0.3318 -0.8610
  110OSM    C3S11319   3.626   1.917  23.199  0.1690 -0.0263 -0.2231
  110OSM    H3S11320   3.645   1.836  23.126  3.4135 -2.7051  3.2161
  110OSM     O311321   3.722   2.015  23.160 -0.3014 -0.3324  0.1221
  110OSM    HO311322   3.789   2.027  23.228 -1.4618  0.6380  1.1565
  110OSM    C4S11323   3.476   1.950  23.168  0.8592 -0.9002 -0.3329
  110OSM    H4S11324   3.421   1.868  23.120  1.0046 -0.5893 -1.0477
  110OSM    C5S11325   3.418   2.069  23.192 -0.3849  0.0664  0.1483
  110OSM    H5S11326   3.467   2.155  23.240 -2.1429 -0.5037  3.2748
  110OSM    C6S11327   3.278   2.091  23.149 -0.4023  0.1781 -0.2373
  110OSM    H6S11328   3.259   2.028  23.059  1.3468 -0.0780 -0.4524
  110OSM    H6T11329   3.259   2.195  23.114  0.9434  0.3237 -0.5605
  110OSM    C7S11330   3.160   2.063  23.244  0.0705 -0.5293 -0.2041
  110OSM    H7S11331   3.160   2.104  23.347  1.0249  1.5598 -0.9789
  110OSM    H7T11332   3.150   1.954  23.261  0.6036 -0.4825  0.4941
  110OSM    C8S11333   3.021   2.105  23.184 -0.2391  0.1827 -0.5662
  110OSM    H8S11334   3.014   2.084  23.075 -1.1161  1.0308 -0.6888
  110OSM    H8T11335   3.018   2.216  23.189  1.3748  0.1726  2.2229
  110OSM    C9S11336   2.902   2.025  23.254  0.4441 -0.1777 -0.8831
  110OSM    H9S11337   2.910   2.034  23.364 -2.8963  1.6890 -0.6575
  110OSM    H9T11338   2.911   1.918  23.224  0.0828  0.2236 -2.5474
  110OSM   C10S11339   2.767   2.088  23.224 -0.5703 -0.0403  0.2478
  110OSM   H10S11340   2.756   2.191  23.265  0.8224  0.0809  0.3549
  110OSM   H10T11341   2.699   2.031  23.291 -1.0778 -0.4261 -0.5774
  110OSM   C11S11342   2.734   2.076  23.077 -0.4026  0.3520 -0.6139
  110OSM   H11S11343   2.807   2.133  23.016  1.2633 -1.2681 -0.2267
  110OSM   H11T11344   2.635   2.127  23.079  1.6646  4.8699  0.4903
  110OSM   C12S11345   2.711   1.938  23.014 -0.8558 -1.0986 -0.5658
  110OSM   H12S11346   2.639   1.881  23.076 -0.0662 -1.4708  0.0172
  110OSM   H12T11347   2.809   1.887  23.013  1.1713  2.4294  0.3383
  110OSM   C13S11348   2.666   1.943  22.866  0.2184  0.6570  0.0072
  110OSM   H13S11349   2.665   1.837  22.833  1.5829 -0.7147  3.8575
  110OSM   H13T11350   2.725   2.010  22.800 -1.1071  0.6277 -1.2605
  110OSM   C14S11351   2.517   1.990  22.857 -0.0438 -0.2117  0.4190
  110OSM   H14S11352   2.487   1.996  22.750 -2.4649  0.9146  1.0997
  110OSM   H14T11353   2.517   2.098  22.883 -2.3431 -0.0841  0.1004
  110OSM   C15S11354   2.408   1.900  22.928 -0.9384 -0.2246  0.5991
  110OSM   H15S11355   2.425   1.903  23.038  0.5043 -1.2268  0.4358
  110OSM   H15T11356   2.421   1.790  22.912 -0.6324  0.0757 -1.4127
  110OSM   C16S11357   2.264   1.944  22.897  0.3413 -0.7908 -0.0429
  110OSM   H16S11358   2.197   1.858  22.919 -0.1324  0.0679  2.1303
  110OSM   H16T11359   2.241   1.968  22.791  1.2662 -0.8365 -0.2631
  110OSM   C17S11360   2.205   2.062  22.982 -0.5598 -0.0584  0.4365
  110OSM   H17S11361   2.248   2.158  22.944  0.3319 -1.0086 -1.0739
  110OSM   H17T11362   2.243   2.054  23.086 -1.4895  0.1022  0.7973
  110OSM   C18S11363   2.052   2.060  22.995 -0.2563 -0.9234 -0.3372
  110OSM   H18S11364   2.010   2.163  22.990  1.0096 -0.3898 -0.3927
  110OSM   H18T11365   2.001   1.994  23.069 -0.5380 -0.8762 -0.4842
  110OSM   H18U11366   2.012   2.011  22.903 -0.7967 -0.4568 -0.3573
  110OSM    C1F11367   3.563   1.640  23.441 -0.0574  0.1827  0.3781
  110OSM     OF11368   3.602   1.673  23.549  0.0231 -0.0663 -0.0093
  110OSM    C2F11369   3.476   1.511  23.424  0.3696 -0.9004 -0.2815
  110OSM    H2F11370   3.536   1.440  23.364  1.4020  0.6371 -1.1537
  110OSM    H2G11371   3.387   1.550  23.369 -0.6071  0.1855  1.9187
  110OSM    C3F11372   3.431   1.450  23.560  0.3992 -0.6487 -0.4353
  110OSM    H3F11373   3.383   1.532  23.618  0.2683 -1.4817  0.6780
  110OSM    H3G11374   3.518   1.430  23.626  0.2442  1.7246  0.5997
  110OSM    C4F11375   3.345   1.319  23.535  0.1175 -0.2420 -0.1790
  110OSM    H4F11376   3.293   1.280  23.625  0.6090 -1.6640 -0.4795
  110OSM    H4G11377   3.409   1.234  23.503 -0.0548 -0.8375  0.9942
  110OSM    C5F11378   3.229   1.332  23.426 -0.8463  0.1889 -0.4095
  110OSM    H5F11379   3.270   1.335  23.323 -0.2496 -1.7661 -0.2616
  110OSM    H5G11380   3.184   1.431  23.449 -2.3846 -0.6814  0.4641
  110OSM    C6F11381   3.134   1.215  23.448 -0.0301 -0.0006 -0.1390
  110OSM    H6F11382   3.110   1.221  23.556  2.4748  2.2257  0.4021
  110OSM    H6G11383   3.191   1.121  23.435 -0.1607 -0.3607  1.6094
  110OSM    C7F11384   3.006   1.227  23.355 -0.2508  0.9806  0.5807
  110OSM    H7F11385   3.034   1.164  23.268  1.0523  1.1475  0.8607
  110OSM    H7G11386   2.980   1.331  23.329  1.5315  1.2737 -0.1634
  110OSM    C8F11387   2.891   1.167  23.434 -0.1494  0.0128  0.4992
  110OSM    H8F11388   2.864   1.212  23.532 -4.4849 -0.0084 -0.5157
  110OSM    H8G11389   2.917   1.060  23.453  1.8604  0.4147  0.2186
  110OSM    C9F11390   2.765   1.172  23.352  0.3290 -0.3733  0.2602
  110OSM    H9F11391   2.787   1.159  23.244  1.1408  0.0898  0.3602
  110OSM   C10F11392   2.641   1.186  23.393 -0.7954 -0.0395  0.6492
  110OSM   H10F11393   2.560   1.191  23.319 -0.7634 -1.8437  0.4434
  110OSM   C11F11394   2.599   1.194  23.538  0.3679 -0.0084 -0.2118
  110OSM   H11F11395   2.657   1.118  23.594 -2.0567 -2.2488 -0.5170
  110OSM   H11G11396   2.492   1.165  23.541 -0.5886  2.7562 -2.7525
  110OSM   C12F11397   2.617   1.330  23.604  1.0992 -0.4022  0.3216
  110OSM   H12F11398   2.535   1.391  23.560  1.3409  1.8811  2.7947
  110OSM   H12G11399   2.703   1.392  23.568 -0.4695  0.6520 -1.8544
  110OSM   C13F11400   2.602   1.325  23.759 -0.6167  0.3961  0.2347
  110OSM   H13F11401   2.673   1.248  23.794 -2.6532 -1.6681  0.1243
  110OSM   H13G11402   2.502   1.276  23.766  0.2559 -1.2756  1.5518
  110OSM   C14F11403   2.615   1.465  23.825 -0.3179  0.8039 -0.0147
  110OSM   H14F11404   2.548   1.544  23.783 -0.7038 -0.0469 -1.0526
  110OSM   H14G11405   2.716   1.503  23.798  0.4270 -0.1151  1.3874
  110OSM   C15F11406   2.596   1.468  23.975 -0.3754 -0.4434 -0.6400
  110OSM   H15F11407   2.654   1.386  24.024 -0.1299 -0.0079 -0.1998
  110OSM   H15G11408   2.487   1.456  23.997 -0.4566  1.2169 -0.0362
  110OSM   C16F11409   2.625   1.611  24.043  0.8375  0.1334 -0.4112
  110OSM   H16F11410   2.570   1.694  23.994  0.8792 -0.4346 -1.4511
  110OSM   H16G11411   2.732   1.639  24.034  0.5462  1.2730 -0.5054
  110OSM   C17F11412   2.592   1.615  24.195  0.1567 -0.0678  0.0245
  110OSM   H17F11413   2.682   1.628  24.259  1.1151 -3.3852 -0.4446
  110OSM   H17G11414   2.552   1.523  24.244 -1.2844  0.5124 -0.0027
  110OSM   C18F11415   2.494   1.731  24.232 -0.3071  0.1539 -0.0510
  110OSM   H18F11416   2.468   1.717  24.339 -2.7040  0.5587 -0.5418
  110OSM   H18G11417   2.407   1.735  24.163  0.2975 -1.1245 -0.9286
  110OSM   H18H11418   2.550   1.827  24.220 -1.4820  1.0106  1.0262
  111OSM      N11419   4.400   3.783  25.556 -0.2376 -0.7225 -0.7636
  111OSM    C1511420   4.457   3.917  25.597 -1.0346 -1.0495 -0.0698
  111OSM   H15A11421   4.398   3.999  25.559 -1.1154 -2.3688 -3.1094
  111OSM   H15B11422   4.559   3.938  25.570 -0.8596  2.0689  2.3774
  111OSM   H15C11423   4.458   3.926  25.704  1.9762  0.0589 -0.1104
  111OSM    C1411424   4.403   3.773  25.404 -0.0718  0.3543 -0.9019
  111OSM   H14A11425   4.505   3.789  25.372  0.3403 -1.0319 -0.3606
  111OSM   H14B11426   4.334   3.846  25.366 -1.8342 -0.7501  0.0334
  111OSM   H14C11427   4.363   3.676  25.377 -0.6105  0.7310 -1.4702
  111OSM    C1311428   4.464   3.669  25.623 -0.6216 -0.4278 -0.2233
  111OSM   H13A11429   4.564   3.652  25.584  1.3762 -1.3256  4.5071
  111OSM   H13B11430   4.409   3.581  25.593  2.3565 -2.0294 -1.4860
  111OSM   H13C11431   4.467   3.665  25.731 -1.5821 -1.0149 -0.2138
  111OSM    C1211432   4.255   3.786  25.599 -0.0337 -0.5806 -0.1230
  111OSM   H12A11433   4.226   3.682  25.587  2.9030 -1.4261 -0.5715
  111OSM   H12B11434   4.191   3.847  25.537 -1.4458 -1.3315  0.5202
  111OSM    C1111435   4.229   3.811  25.751 -0.7819  0.0209 -0.0346
  111OSM   H11A11436   4.290   3.738  25.807 -0.5873 -1.2435 -1.7948
  111OSM   H11B11437   4.124   3.777  25.765 -0.6978 -0.0915  0.3273
  111OSM      P11438   4.137   4.063  25.803  0.4193  0.6161  0.0741
  111OSM    O1311439   4.130   4.105  25.945  0.1708  0.3047 -0.0575
  111OSM    O1411440   4.162   4.169  25.707  0.3742  0.0372 -0.4425
  111OSM    O1111441   3.987   4.000  25.766  0.1481 -0.3438 -0.7208
  111OSM    O1211442   4.246   3.947  25.783 -0.0637  0.0671  0.0580
  111OSM    C1S11443   3.882   4.098  25.765  0.2544  0.3975  0.1152
  111OSM    H1S11444   3.888   4.165  25.677  0.7647 -0.7222 -0.7317
  111OSM    H1T11445   3.873   4.164  25.853 -0.7925  0.3631  0.0464
  111OSM     NF11446   3.641   4.117  25.710  0.0998 -0.3254  0.0495
  111OSM    HNF11447   3.579   4.157  25.778 -0.8652 -0.6524 -0.6086
  111OSM    C2S11448   3.745   4.022  25.757  0.6543 -0.2767  0.3954
  111OSM    H2S11449   3.746   3.942  25.680 -1.1017  0.7434 -0.7527
  111OSM    C3S11450   3.717   3.949  25.895  0.2314  0.6391  0.1357
  111OSM    H3S11451   3.694   4.032  25.966  0.6336  0.2425  0.7384
  111OSM     O311452   3.830   3.882  25.941 -0.1656  0.0813 -0.2737
  111OSM    HO311453   3.900   3.899  25.877  1.0889 -0.3278  0.9394
  111OSM    C4S11454   3.597   3.854  25.887 -0.2661 -0.2251  0.6475
  111OSM    H4S11455   3.504   3.908  25.911 -1.4718 -1.9331  0.0578
  111OSM    C5S11456   3.586   3.721  25.875 -0.3174 -0.2177  0.3399
  111OSM    H5S11457   3.677   3.660  25.863  0.3209  0.9981 -1.3224
  111OSM    C6S11458   3.460   3.644  25.892 -0.1484  0.8639  0.3507
  111OSM    H6S11459   3.460   3.596  25.992  2.9793  1.3722  0.6803
  111OSM    H6T11460   3.441   3.564  25.817  0.5859 -1.2390  2.2972
  111OSM    C7S11461   3.321   3.720  25.891  0.6917  0.3912 -0.3502
  111OSM    H7S11462   3.288   3.768  25.796  0.3299 -1.2836 -1.0977
  111OSM    H7T11463   3.333   3.805  25.961 -1.0231 -0.4733  1.0719
  111OSM    C8S11464   3.207   3.624  25.928 -0.1873  0.3293 -0.3224
  111OSM    H8S11465   3.205   3.610  26.039 -2.4665 -0.5338 -0.4240
  111OSM    H8T11466   3.218   3.529  25.871 -1.3984  0.3942 -0.6928
  111OSM    C9S11467   3.069   3.675  25.886 -0.1487 -0.6002  0.0257
  111OSM    H9S11468   3.075   3.701  25.779  1.5722 -1.4931 -0.1294
  111OSM    H9T11469   3.028   3.765  25.937  1.8012  0.8509 -0.8134
  111OSM   C10S11470   2.968   3.557  25.887  0.2893  0.0858  0.2537
  111OSM   H10S11471   2.960   3.513  25.989  2.7955 -0.5013  0.2593
  111OSM   H10T11472   3.006   3.478  25.818  0.3653 -1.1990  1.7162
  111OSM   C11S11473   2.830   3.605  25.841  0.4157  0.4563 -0.4301
  111OSM   H11S11474   2.841   3.700  25.784  1.0048  0.9475  0.4715
  111OSM   H11T11475   2.771   3.645  25.925 -1.2815 -0.1040 -1.3068
  111OSM   C12S11476   2.740   3.500  25.774 -1.2083 -0.6401  0.1964
  111OSM   H12S11477   2.761   3.399  25.817 -0.7429 -0.3786  0.5881
  111OSM   H12T11478   2.770   3.496  25.667  1.7863  0.1611  0.9346
  111OSM   C13S11479   2.594   3.546  25.782  0.4847  0.7331 -0.6882
  111OSM   H13S11480   2.586   3.648  25.738 -0.2910  0.5079 -1.0995
  111OSM   H13T11481   2.564   3.554  25.888  0.7614 -1.4885 -0.4038
  111OSM   C14S11482   2.484   3.459  25.713  0.6605 -0.1670  0.9116
  111OSM   H14S11483   2.464   3.372  25.779 -1.1566 -0.4464  0.0661
  111OSM   H14T11484   2.535   3.425  25.620 -1.0014 -0.0872 -0.0572
  111OSM   C15S11485   2.348   3.530  25.689 -0.2549  0.9168 -0.6896
  111OSM   H15S11486   2.378   3.626  25.642  0.9217  0.1962 -1.4673
  111OSM   H15T11487   2.292   3.548  25.783 -3.1858 -3.2447 -1.3803
  111OSM   C16S11488   2.237   3.461  25.614 -0.0320  0.2118  0.0630
  111OSM   H16S11489   2.248   3.475  25.504 -1.6082 -1.6234 -0.4017
  111OSM   H16T11490   2.145   3.512  25.650 -1.7091 -1.5397 -1.4976
  111OSM   C17S11491   2.220   3.314  25.646  0.6053 -0.0114 -0.1969
  111OSM   H17S11492   2.190   3.294  25.751  0.2061  1.0324 -0.0927
  111OSM   H17T11493   2.316   3.270  25.613 -0.5778 -0.6254 -3.0685
  111OSM   C18S11494   2.100   3.249  25.567 -0.3797 -0.7065 -0.3961
  111OSM   H18S11495   2.108   3.276  25.459 -0.3217 -0.2641 -0.2825
  111OSM   H18T11496   2.010   3.301  25.606  0.8141  1.3765 -0.2751
  111OSM   H18U11497   2.105   3.139  25.579 -2.6666 -0.8079 -0.0126
  111OSM    C1F11498   3.643   4.163  25.585  0.1155 -0.0236 -0.6736
  111OSM     OF11499   3.702   4.115  25.495 -0.3953  0.3690  0.2179
  111OSM    C2F11500   3.557   4.286  25.551  0.3998  0.1442 -0.2612
  111OSM    H2F11501   3.605   4.369  25.496 -0.9320  1.5746  0.6770
  111OSM    H2G11502   3.524   4.327  25.648  0.4793  0.7053 -0.4725
  111OSM    C3F11503   3.423   4.249  25.473 -0.5346 -0.2763  0.0357
  111OSM    H3F11504   3.355   4.174  25.520 -0.8270 -0.6120 -0.9018
  111OSM    H3G11505   3.455   4.207  25.375  1.7995 -0.3124  0.7562
  111OSM    C4F11506   3.348   4.378  25.446 -0.3542  0.4079 -0.3588
  111OSM    H4F11507   3.412   4.453  25.396  0.3767 -0.4458 -0.7399
  111OSM    H4G11508   3.314   4.431  25.537 -1.3540 -0.8075  0.0166
  111OSM    C5F11509   3.221   4.347  25.366  0.0785 -0.1435 -0.2947
  111OSM    H5F11510   3.146   4.291  25.427 -1.0846  0.6153 -0.9888
  111OSM    H5G11511   3.254   4.290  25.277  1.6479  0.5792 -0.2145
  111OSM    C6F11512   3.148   4.475  25.310  0.0527 -0.8157  0.1359
  111OSM    H6F11513   3.222   4.548  25.270 -0.7266 -0.1482 -0.1203
  111OSM    H6G11514   3.091   4.533  25.385 -1.4689  2.0264 -2.9363
  111OSM    C7F11515   3.052   4.465  25.199 -0.0343  0.4238 -0.2823
  111OSM    H7F11516   2.986   4.377  25.212  0.6478 -0.2381 -1.1587
  111OSM    H7G11517   3.111   4.424  25.114  1.2126  0.6744  0.4384
  111OSM    C8F11518   2.975   4.593  25.163  0.0019 -0.0487  0.0392
  111OSM    H8F11519   3.047   4.662  25.115  0.1043 -1.3647 -1.7817
  111OSM    H8G11520   2.918   4.632  25.251 -1.5346  1.3765 -1.5195
  111OSM    C9F11521   2.881   4.555  25.053  0.0622 -0.2069 -0.1264
  111OSM    H9F11522   2.933   4.494  24.978  2.7343  0.8207  0.7918
  111OSM   C10F11523   2.748   4.570  25.039  0.0754 -0.1688 -0.2358
  111OSM   H10F11524   2.698   4.532  24.948  0.3126  1.5527 -1.1187
  111OSM   C11F11525   2.658   4.655  25.139  0.1376 -0.4602  0.2107
  111OSM   H11F11526   2.718   4.720  25.207 -0.3415 -0.7397  0.9092
  111OSM   H11G11527   2.618   4.574  25.204 -0.7564 -0.2062 -0.0170
  111OSM   C12F11528   2.548   4.735  25.076 -0.1512 -0.8130  0.3816
  111OSM   H12F11529   2.492   4.684  24.994 -0.7724  1.6598 -0.8496
  111OSM   H12G11530   2.600   4.817  25.023 -1.1178 -0.6792 -0.4025
  111OSM   C13F11531   2.448   4.795  25.176  0.1428  0.8889 -0.3286
  111OSM   H13F11532   2.511   4.821  25.264  2.5766 -1.8702 -1.0856
  111OSM   H13G11533   2.378   4.718  25.213  1.3031  1.1257  2.6592
  111OSM   C14F11534   2.364   4.910  25.116 -0.5986  0.1828  0.4686
  111OSM   H14F11535   2.438   4.977  25.068 -0.0681 -0.9120 -0.2802
  111OSM   H14G11536   2.317   4.965  25.200  1.0293  0.8192  0.9952
  111OSM   C15F11537   2.272   4.871  25.004  0.1007  0.3606  0.8502
  111OSM   H15F11538   2.225   4.776  25.038  3.2265 -1.5206  0.2892
  111OSM   H15G11539   2.332   4.841  24.915 -0.8976 -2.0397  0.9136
  111OSM   C16F11540   2.168   4.975  24.971  0.8073 -0.3990 -0.2941
  111OSM   H16F11541   2.108   4.997  25.061  2.7572  0.4577  0.8756
  111OSM   H16G11542   2.100   4.927  24.898 -0.0198  0.5829 -0.1813
  111OSM   C17F11543   2.232   5.098  24.904 -0.9187  0.3638 -0.6157
  111OSM   H17F11544   2.285   5.058  24.815  0.1367  0.2061  0.0722
  111OSM   H17G11545   2.301   5.151  24.972 -2.6353  0.6769  0.9613
  111OSM   C18F11546   2.137   5.203  24.855  0.0165 -0.2230  0.2497
  111OSM   H18F11547   2.179   5.277  24.783 -1.0520 -0.8530 -1.0634
  111OSM   H18G11548   2.090   5.260  24.938 -2.6183 -1.1796 -0.4919
  111OSM   H18H11549   2.050   5.156  24.805 -2.4993  1.7235  2.4787
  112OSM      N11550   4.367   3.356  24.403  0.2202  1.1464 -0.2942
  112OSM    C1511551   4.415   3.218  24.368 -0.2204  0.3566  0.4923
  112OSM   H15A11552   4.375   3.185  24.273 -0.9157  0.2824  0.8080
  112OSM   H15B11553   4.381   3.137  24.430 -0.7904 -2.0347 -2.6933
  112OSM   H15C11554   4.522   3.216  24.354 -0.1865 -0.6328  0.8444
  112OSM    C1411555   4.408   3.447  24.290 -0.8085 -0.0796 -0.6466
  112OSM   H14A11556   4.513   3.462  24.310 -0.7324 -1.0003 -0.3266
  112OSM   H14B11557   4.346   3.536  24.289 -3.6442 -1.7704  2.5050
  112OSM   H14C11558   4.403   3.394  24.196  5.2690  1.2185 -2.1108
  112OSM    C1311559   4.216   3.351  24.416 -0.1600  0.3773 -0.0284
  112OSM   H13A11560   4.175   3.315  24.323 -0.7388  0.5360  0.1564
  112OSM   H13B11561   4.168   3.443  24.448 -0.5218  0.8015 -1.7151
  112OSM   H13C11562   4.188   3.272  24.484  0.0207  0.0126 -0.3767
  112OSM    C1211563   4.424   3.403  24.537 -0.5956  0.6882  0.0690
  112OSM   H12A11564   4.528   3.379  24.551 -0.5091  0.7335 -0.4565
  112OSM   H12B11565   4.371   3.349  24.615  0.7677  0.7625  1.0733
  112OSM    C1111566   4.395   3.552  24.564  0.8944  0.1721  0.0510
  112OSM   H11A11567   4.287   3.568  24.546  1.0155 -0.4516 -1.3506
  112OSM   H11B11568   4.442   3.621  24.490  0.1863  0.7509  0.1291
  112OSM      P11569   4.484   3.719  24.749  0.2000  0.0838 -0.3768
  112OSM    O1311570   4.366   3.805  24.757  0.5108  0.2312 -0.0353
  112OSM    O1411571   4.545   3.693  24.880 -0.5764 -0.5657  0.0427
  112OSM    O1111572   4.576   3.783  24.640 -0.4123 -0.7127  0.5917
  112OSM    O1211573   4.433   3.585  24.694 -0.0733  0.6178 -0.4484
  112OSM    C1S11574   4.713   3.807  24.674 -0.3459 -0.3197  0.0998
  112OSM    H1S11575   4.749   3.745  24.759 -0.5086  0.0200  0.4162
  112OSM    H1T11576   4.735   3.912  24.700 -1.6743  0.0554 -0.2046
  112OSM     NF11577   4.947   3.761  24.616  0.5539 -0.6265 -0.3637
  112OSM    HNF11578   5.005   3.840  24.601 -1.7932  0.8075 -2.6793
  112OSM    C2S11579   4.814   3.772  24.562 -0.4526 -0.7250 -0.2571
  112OSM    H2S11580   4.781   3.677  24.516 -1.1636 -0.2796 -0.6928
  112OSM    C3S11581   4.795   3.883  24.456  0.1212 -0.6228 -1.2326
  112OSM    H3S11582   4.793   3.978  24.513  1.1377 -1.3392  0.0486
  112OSM     O311583   4.665   3.875  24.398  0.3499 -0.3118  0.0534
  112OSM    HO311584   4.618   3.811  24.452  1.7150 -2.1943 -0.8494
  112OSM    C4S11585   4.897   3.895  24.348 -0.1905  0.1869  0.3209
  112OSM    H4S11586   4.976   3.967  24.374  1.7837 -1.3168 -1.2018
  112OSM    C5S11587   4.908   3.821  24.237 -0.7141  0.0100 -0.4228
  112OSM    H5S11588   4.840   3.735  24.224 -3.0372  1.6756  0.1343
  112OSM    C6S11589   5.018   3.838  24.140 -0.5037 -0.3482 -0.0069
  112OSM    H6S11590   5.061   3.739  24.113 -0.4138 -0.0403 -1.0300
  112OSM    H6T11591   5.102   3.896  24.184 -1.8602  0.7973  1.1992
  112OSM    C7S11592   4.970   3.904  24.007  0.2513 -0.7711  1.2948
  112OSM    H7S11593   4.931   4.002  24.041 -2.0384 -0.6824 -1.3212
  112OSM    H7T11594   4.877   3.855  23.972 -0.2823  1.7541 -1.1523
  112OSM    C8S11595   5.072   3.923  23.897 -0.3598  0.0121  0.3821
  112OSM    H8S11596   5.169   3.945  23.947 -0.4700 -0.8669  1.0119
  112OSM    H8T11597   5.046   4.019  23.847  1.2054  1.6167  2.4663
  112OSM    C9S11598   5.068   3.819  23.796  0.1858  0.3312  0.4066
  112OSM    H9S11599   4.963   3.813  23.758  0.4037 -1.7633  0.0288
  112OSM    H9T11600   5.083   3.718  23.839 -0.6402  0.2623  0.5438
  112OSM   C10S11601   5.162   3.839  23.673 -0.0232 -0.0186 -0.4091
  112OSM   H10S11602   5.238   3.918  23.688 -2.0283  1.8689  0.3673
  112OSM   H10T11603   5.097   3.866  23.587  0.1560  1.2364 -0.1659
  112OSM   C11S11604   5.220   3.699  23.643  0.9866  0.2448 -0.0683
  112OSM   H11S11605   5.269   3.703  23.543 -2.5862 -0.4195 -1.9884
  112OSM   H11T11606   5.138   3.626  23.631  1.3344 -0.0938 -0.4278
  112OSM   C12S11607   5.326   3.648  23.751  0.5404  0.4179 -0.0128
  112OSM   H12S11608   5.283   3.610  23.846  0.3757 -1.2129 -0.7147
  112OSM   H12T11609   5.403   3.721  23.784  1.8640 -0.9500 -0.0074
  112OSM   C13S11610   5.387   3.517  23.702 -0.6031 -0.6127 -0.3174
  112OSM   H13S11611   5.422   3.534  23.598  1.7547  0.9576  0.6545
  112OSM   H13T11612   5.307   3.440  23.691 -1.5529  0.3050  0.0731
  112OSM   C14S11613   5.494   3.451  23.799  0.0416 -0.5804 -0.6289
  112OSM   H14S11614   5.436   3.427  23.891 -0.1084  0.4699 -0.4401
  112OSM   H14T11615   5.567   3.527  23.835 -0.3414 -0.1864 -0.6897
  112OSM   C15S11616   5.560   3.328  23.741 -0.0693  0.1534  0.6444
  112OSM   H15S11617   5.642   3.368  23.678  0.2456 -0.5313  0.6208
  112OSM   H15T11618   5.476   3.285  23.682  0.5543 -0.1621 -0.0187
  112OSM   C16S11619   5.618   3.243  23.856  0.2295 -0.4491  0.8798
  112OSM   H16S11620   5.578   3.272  23.956  2.3538  3.8341  0.7257
  112OSM   H16T11621   5.724   3.273  23.870  0.3746  1.3680 -2.8660
  112OSM   C17S11622   5.623   3.095  23.835 -0.3290  0.2125  0.2613
  112OSM   H17S11623   5.668   3.050  23.925 -1.5114  0.2531  0.8969
  112OSM   H17T11624   5.686   3.073  23.746  1.1543 -0.2384  1.3923
  112OSM   C18S11625   5.485   3.028  23.823 -0.4230  0.2532 -0.6406
  112OSM   H18S11626   5.444   3.056  23.724  0.6503 -1.3682 -1.5915
  112OSM   H18T11627   5.422   3.054  23.910 -0.3127 -1.0795 -0.1343
  112OSM   H18U11628   5.498   2.918  23.816 -0.4169 -0.0117  2.1927
  112OSM    C1F11629   4.985   3.649  24.685 -0.1219  0.1369  0.1194
  112OSM     OF11630   4.907   3.553  24.695 -0.3382  0.0936  0.1076
  112OSM    C2F11631   5.132   3.646  24.731  0.1937 -0.6394  0.8041
  112OSM    H2F11632   5.147   3.746  24.777  0.7338  1.1582 -2.8899
  112OSM    H2G11633   5.187   3.633  24.635 -1.5850 -0.8647 -0.2115
  112OSM    C3F11634   5.152   3.527  24.829 -0.0694 -0.0687  0.0046
  112OSM    H3F11635   5.144   3.426  24.784  1.2563 -1.2641  2.2597
  112OSM    H3G11636   5.083   3.544  24.915  0.4472  1.6334  0.1223
  112OSM    C4F11637   5.295   3.537  24.895  0.4582 -0.3111 -0.0640
  112OSM    H4F11638   5.308   3.459  24.973  0.8723 -0.6757 -0.4933
  112OSM    H4G11639   5.297   3.635  24.947 -1.5599 -1.4094  2.2852
  112OSM    C5F11640   5.410   3.530  24.791  0.6234 -0.2491  0.1388
  112OSM    H5F11641   5.403   3.622  24.730 -0.0706  0.6470  1.5148
  112OSM    H5G11642   5.410   3.446  24.717  1.5912  0.4604 -0.6903
  112OSM    C6F11643   5.550   3.513  24.844  0.1141 -0.0541  0.2333
  112OSM    H6F11644   5.578   3.408  24.870 -2.3682 -0.8410 -0.0121
  112OSM    H6G11645   5.567   3.583  24.927  0.3123 -1.9015  1.8236
  112OSM    C7F11646   5.641   3.556  24.725 -0.8688 -0.5636 -0.1557
  112OSM    H7F11647   5.628   3.659  24.685  0.4123  0.3207  1.5858
  112OSM    H7G11648   5.628   3.491  24.636 -1.2845  0.7097 -1.0711
  112OSM    C8F11649   5.795   3.539  24.761 -0.6732 -0.2493  0.2207
  112OSM    H8F11650   5.815   3.613  24.842  1.3878  0.0664 -0.5161
  112OSM    H8G11651   5.853   3.587  24.680  0.3825  2.5548  2.4492
  112OSM    C9F11652   5.844   3.398  24.781 -0.4847 -0.5426 -0.2922
  112OSM    H9F11653   5.812   3.325  24.705  0.1542  0.3095 -1.4130
  112OSM   C10F11654   5.906   3.346  24.887  0.2457 -0.6192  0.6741
  112OSM   H10F11655   5.923   3.238  24.900 -1.0851 -0.8321  0.8398
  112OSM   C11F11656   5.956   3.421  25.009 -0.1407  0.0065  0.2796
  112OSM   H11F11657   5.976   3.524  24.974  0.0707 -1.2845 -3.9664
  112OSM   H11G11658   6.049   3.379  25.054 -0.2775 -0.8127 -0.1965
  112OSM   C12F11659   5.838   3.442  25.111  0.1571  0.0261 -0.5024
  112OSM   H12F11660   5.751   3.484  25.057  0.2409  1.4998  0.4601
  112OSM   H12G11661   5.869   3.515  25.189  0.1678 -0.0704 -0.4154
  112OSM   C13F11662   5.807   3.311  25.184  0.0582  0.2946  1.0767
  112OSM   H13F11663   5.905   3.269  25.217  0.4573 -1.4100 -1.9218
  112OSM   H13G11664   5.762   3.247  25.105 -0.0615  1.7218 -0.0562
  112OSM   C14F11665   5.708   3.320  25.299 -0.4595 -0.0369  0.2854
  112OSM   H14F11666   5.755   3.379  25.380  0.1881  0.2604 -0.2959
  112OSM   H14G11667   5.713   3.214  25.333  0.5673  0.3402  1.3435
  112OSM   C15F11668   5.566   3.374  25.256 -0.4046  0.0392  0.8207
  112OSM   H15F11669   5.526   3.305  25.179 -0.0588 -1.2474  1.7574
  112OSM   H15G11670   5.582   3.472  25.205 -0.6060  0.3432  1.3356
  112OSM   C16F11671   5.465   3.391  25.368 -0.5101 -0.0800  0.2092
  112OSM   H16F11672   5.364   3.403  25.323 -0.6509 -2.1651 -0.1017
  112OSM   H16G11673   5.489   3.482  25.427 -0.6636  0.6336 -0.7983
  112OSM   C17F11674   5.446   3.271  25.462 -0.1688  0.3163  0.7158
  112OSM   H17F11675   5.542   3.256  25.516  0.4080  2.1789  0.2947
  112OSM   H17G11676   5.422   3.194  25.385 -1.0957  0.5878  0.7238
  112OSM   C18F11677   5.318   3.268  25.546 -0.3934 -0.2291  0.0824
  112OSM   H18F11678   5.303   3.164  25.583 -0.1834 -0.6610 -1.0201
  112OSM   H18G11679   5.233   3.294  25.480 -0.5762  1.2555  0.8749
  112OSM   H18H11680   5.314   3.332  25.637  0.4634  0.5093 -0.3839
  113OSM      N11681   4.119   4.042  22.328 -0.5207 -0.5285 -0.1748
  113OSM    C1511682   4.144   4.145  22.223  0.0177 -0.4610  0.5331
  113OSM   H15A11683   4.237   4.130  22.170  0.8039 -0.9248  1.9917
  113OSM   H15B11684   4.151   4.246  22.261  1.7307 -0.3381 -0.0363
  113OSM   H15C11685   4.057   4.144  22.159  1.0664 -1.8149 -0.9398
  113OSM    C1411686   3.980   4.061  22.374  0.0137 -0.7524 -0.4928
  113OSM   H14A11687   3.937   3.983  22.436  1.9815 -0.3403  1.5212
  113OSM   H14B11688   3.910   4.087  22.295 -0.1229 -0.5829 -0.3183
  113OSM   H14C11689   3.974   4.139  22.449  0.9134 -1.1335 -0.0108
  113OSM    C1311690   4.138   3.902  22.272  1.1437 -0.1299 -0.3666
  113OSM   H13A11691   4.154   3.826  22.348  3.2594  0.2577 -0.3583
  113OSM   H13B11692   4.225   3.897  22.208 -0.5480  0.7657 -2.9153
  113OSM   H13C11693   4.053   3.877  22.210  2.5936 -4.0228 -1.0772
  113OSM    C1211694   4.207   4.057  22.449 -0.0878  0.5423 -0.1809
  113OSM   H12A11695   4.204   4.161  22.477 -2.3548  0.2410  0.9256
  113OSM   H12B11696   4.311   4.040  22.426  0.4204  0.3883  2.0106
  113OSM    C1111697   4.164   3.983  22.583 -0.3356  0.2452  0.1209
  113OSM   H11A11698   4.064   4.014  22.618 -0.8410  1.6680 -2.3232
  113OSM   H11B11699   4.229   4.044  22.650 -0.3527  0.3088  0.0805
  113OSM      P11700   4.081   3.733  22.615  0.1454 -0.2322 -0.3322
  113OSM    O1311701   4.135   3.612  22.552  0.2779  0.8621 -0.1469
  113OSM    O1411702   4.056   3.719  22.759  0.3235  0.4524  0.2453
  113OSM    O1111703   3.948   3.782  22.539  0.1853  0.4907  0.5990
  113OSM    O1211704   4.194   3.843  22.589 -0.1414  0.3084 -0.2204
  113OSM    C1S11705   3.887   3.689  22.446  0.5307  0.6464 -0.5958
  113OSM    H1S11706   3.907   3.583  22.470  0.5519  0.5259 -1.1404
  113OSM    H1T11707   3.914   3.709  22.340 -0.2312 -1.2624 -1.1906
  113OSM     NF11708   3.671   3.592  22.370 -0.2332  0.0438  0.0262
  113OSM    HNF11709   3.596   3.618  22.310  0.1191 -0.0560 -0.4628
  113OSM    C2S11710   3.733   3.694  22.452  0.8450 -0.3491 -0.4143
  113OSM    H2S11711   3.703   3.671  22.557 -1.6047 -0.8442 -1.1376
  113OSM    C3S11712   3.673   3.838  22.421  0.1548 -0.2310  0.3386
  113OSM    H3S11713   3.690   3.848  22.312  0.5964 -1.7071  0.2440
  113OSM     O311714   3.728   3.944  22.501 -1.1009 -0.2163  0.1048
  113OSM    HO311715   3.791   3.889  22.549  0.0593  2.0578  1.3640
  113OSM    C4S11716   3.526   3.824  22.431  0.6251  0.1215 -0.2079
  113OSM    H4S11717   3.475   3.823  22.334 -0.0430 -0.9721  0.1462
  113OSM    C5S11718   3.467   3.818  22.548 -0.6997  1.1767 -0.6508
  113OSM    H5S11719   3.529   3.815  22.639  0.7968 -2.8740 -1.5559
  113OSM    C6S11720   3.318   3.826  22.577 -0.4774 -0.1948  0.0394
  113OSM    H6S11721   3.260   3.801  22.485  0.0713 -1.1610 -0.0598
  113OSM    H6T11722   3.286   3.929  22.605 -4.1916  0.0195 -3.9092
  113OSM    C7S11723   3.283   3.729  22.687  0.7005  0.5548 -0.0492
  113OSM    H7S11724   3.354   3.735  22.772  1.7913 -0.4447 -0.8516
  113OSM    H7T11725   3.296   3.628  22.643  0.5131  0.3880  0.2792
  113OSM    C8S11726   3.129   3.738  22.713 -1.0920 -0.0359 -0.4423
  113OSM    H8S11727   3.074   3.715  22.619 -2.7859  2.2307 -0.0733
  113OSM    H8T11728   3.100   3.840  22.745  0.8267  1.1851 -2.3482
  113OSM    C9S11729   3.096   3.639  22.823 -0.1901  0.0889  0.3291
  113OSM    H9S11730   3.170   3.646  22.906 -1.6435  3.3506  1.5003
  113OSM    H9T11731   3.088   3.538  22.779  0.6219 -0.2363  0.8917
  113OSM   C10S11732   2.947   3.677  22.867 -0.7030  0.1956  0.3738
  113OSM   H10S11733   2.957   3.780  22.908 -0.5240  1.0268 -1.6353
  113OSM   H10T11734   2.915   3.615  22.953  0.8085 -1.0446  0.0733
  113OSM   C11S11735   2.844   3.677  22.753 -0.3087  0.1380  0.6691
  113OSM   H11S11736   2.859   3.761  22.683 -2.0722  0.5357  0.7032
  113OSM   H11T11737   2.743   3.691  22.798 -0.0763  0.1230  1.2084
  113OSM   C12S11738   2.846   3.552  22.665  0.4215  0.0069 -0.5471
  113OSM   H12S11739   2.849   3.464  22.733 -0.6084  0.1293 -0.3311
  113OSM   H12T11740   2.945   3.550  22.616  0.1032  0.9776 -1.2635
  113OSM   C13S11741   2.735   3.531  22.556  0.3077 -0.1894 -0.0432
  113OSM   H13S11742   2.746   3.603  22.472 -0.0972  0.0340  0.0935
  113OSM   H13T11743   2.634   3.555  22.597  0.7753  0.3558  0.7975
  113OSM   C14S11744   2.738   3.385  22.506 -0.3492 -0.2031  0.3889
  113OSM   H14S11745   2.742   3.316  22.593  2.5424  0.5481  0.9697
  113OSM   H14T11746   2.832   3.371  22.448 -0.2269 -0.2984  0.6095
  113OSM   C15S11747   2.623   3.354  22.414  0.0882  0.2237 -0.0780
  113OSM   H15S11748   2.650   3.255  22.373 -1.2557  0.5445 -1.8677
  113OSM   H15T11749   2.622   3.420  22.324 -2.9377  0.1604 -0.1839
  113OSM   C16S11750   2.483   3.356  22.482  0.3353 -0.2142  0.2314
  113OSM   H16S11751   2.433   3.455  22.486 -0.8475 -0.6339 -2.2255
  113OSM   H16T11752   2.509   3.330  22.587  2.7911 -2.1017 -0.7539
  113OSM   C17S11753   2.394   3.255  22.420 -0.3677 -0.1677  0.1102
  113OSM   H17S11754   2.456   3.164  22.406  2.2481  1.7900 -1.9733
  113OSM   H17T11755   2.372   3.287  22.316  0.2343  1.8582  0.5446
  113OSM   C18S11756   2.273   3.231  22.502 -0.1012 -0.4149  0.4239
  113OSM   H18S11757   2.189   3.300  22.477 -1.6110 -2.5591 -0.6572
  113OSM   H18T11758   2.304   3.255  22.606  1.3518 -0.2815 -0.0180
  113OSM   H18U11759   2.231   3.128  22.499 -0.0577 -0.5593  2.7728
  113OSM    C1F11760   3.683   3.460  22.384 -0.3551 -0.0953 -0.9532
  113OSM     OF11761   3.744   3.410  22.478 -0.5463  0.2912 -0.0767
  113OSM    C2F11762   3.626   3.369  22.286  1.3908 -0.4880 -0.3545
  113OSM    H2F11763   3.703   3.298  22.248  0.9944 -1.9287  1.3544
  113OSM    H2G11764   3.583   3.428  22.202  1.3337  0.8876  0.6152
  113OSM    C3F11765   3.505   3.285  22.345 -0.1359  0.1740  0.6987
  113OSM    H3F11766   3.426   3.353  22.384 -1.9920 -1.4549 -0.0260
  113OSM    H3G11767   3.538   3.218  22.427 -0.1636  0.6588  1.1083
  113OSM    C4F11768   3.429   3.203  22.241  0.1710 -0.3033  0.3771
  113OSM    H4F11769   3.498   3.152  22.171 -0.0356 -0.7593  0.5035
  113OSM    H4G11770   3.384   3.281  22.176  2.0811  0.6278  0.0841
  113OSM    C5F11771   3.319   3.106  22.295 -0.7733 -1.2142 -0.2269
  113OSM    H5F11772   3.256   3.160  22.369  0.0771 -0.1193 -0.2875
  113OSM    H5G11773   3.366   3.015  22.339 -1.9982 -2.6921 -1.8290
  113OSM    C6F11774   3.236   3.048  22.179 -0.4340 -0.0874  0.0953
  113OSM    H6F11775   3.179   2.961  22.220 -1.9031  0.6204 -0.3829
  113OSM    H6G11776   3.304   2.996  22.108 -0.9981 -3.8852  2.0623
  113OSM    C7F11777   3.146   3.146  22.107  0.5726 -0.3698  0.5144
  113OSM    H7F11778   3.115   3.099  22.011  1.6410 -2.1825  1.0096
  113OSM    H7G11779   3.189   3.248  22.091 -1.2118  0.3250 -0.2185
  113OSM    C8F11780   3.019   3.173  22.196  0.1677 -0.5376 -0.0676
  113OSM    H8F11781   3.051   3.219  22.292  1.4465 -0.9680 -0.2571
  113OSM    H8G11782   2.973   3.079  22.233  0.0419 -0.1422  0.7998
  113OSM    C9F11783   2.917   3.248  22.120  0.3725 -0.4561  0.3035
  113OSM    H9F11784   2.954   3.352  22.112  2.6848 -1.3360 -1.7973
  113OSM   C10F11785   2.808   3.210  22.048 -0.0326 -0.0046  0.1588
  113OSM   H10F11786   2.764   3.291  21.987  1.3045 -0.0456 -0.9054
  113OSM   C11F11787   2.747   3.078  22.028 -0.1901 -0.6327 -0.4373
  113OSM   H11F11788   2.796   3.003  22.094 -4.0238 -2.3155  0.7821
  113OSM   H11G11789   2.751   3.034  21.926  2.5621 -0.4257 -0.4851
  113OSM   C12F11790   2.594   3.081  22.072 -0.6171  0.0696 -0.3404
  113OSM   H12F11791   2.535   3.170  22.043 -0.4376  0.3556  0.1522
  113OSM   H12G11792   2.589   3.076  22.183 -2.9810  0.1469 -0.3929
  113OSM   C13F11793   2.513   2.959  22.026  0.4449  0.3031 -0.0679
  113OSM   H13F11794   2.553   2.864  22.067 -3.0648 -1.4308 -0.2575
  113OSM   H13G11795   2.509   2.961  21.915  0.0949 -0.2668 -0.0725
  113OSM   C14F11796   2.363   2.967  22.070 -0.0556 -0.4817  0.4527
  113OSM   H14F11797   2.318   2.895  21.998 -0.7409 -1.3995  1.7289
  113OSM   H14G11798   2.308   3.062  22.056 -0.0749 -0.3952  1.0677
  113OSM   C15F11799   2.330   2.899  22.205  0.6288 -0.3136 -0.3695
  113OSM   H15F11800   2.357   2.970  22.286 -0.7669 -0.9647  0.7179
  113OSM   H15G11801   2.379   2.801  22.223 -2.1614 -1.1878  4.0965
  113OSM   C16F11802   2.173   2.884  22.209 -0.2289 -0.1711 -0.3611
  113OSM   H16F11803   2.156   2.825  22.116  1.1101 -1.9309  0.4426
  113OSM   H16G11804   2.129   2.986  22.218  1.2725  0.5588 -0.8209
  113OSM   C17F11805   2.123   2.798  22.324  0.4747 -0.3952  0.4876
  113OSM   H17F11806   2.144   2.690  22.309  0.6380 -0.5779  1.9073
  113OSM   H17G11807   2.015   2.817  22.345  0.3879 -0.9551  0.5658
  113OSM   C18F11808   2.182   2.830  22.460 -0.0770 -0.7036 -0.3310
  113OSM   H18F11809   2.144   2.749  22.527  0.4330 -0.0321  0.7949
  113OSM   H18G11810   2.161   2.931  22.501 -1.0984 -1.9020  2.3667
  113OSM   H18H11811   2.292   2.811  22.453 -0.2510 -1.1012 -2.7549
  114OSM      N11812   0.130   4.368  23.333 -0.5107  0.3103 -0.3706
  114OSM    C1511813   0.213   4.423  23.441  0.1580 -0.0593  0.5484
  114OSM   H15A11814   0.315   4.387  23.438  0.2218  0.1502 -0.8547
  114OSM   H15B11815   0.167   4.401  23.536  0.1715 -1.1500  0.3178
  114OSM   H15C11816   0.222   4.530  23.431 -2.1008  0.0918 -0.5092
  114OSM    C1411817  -0.012   4.413  23.355  0.0837  0.2376  0.1315
  114OSM   H14A11818  -0.045   4.361  23.444 -0.6277  1.8527  0.8688
  114OSM   H14B11819  -0.068   4.393  23.265  0.0578  0.0690  0.1842
  114OSM   H14C11820  -0.022   4.519  23.373  0.1998  0.5781 -1.6557
  114OSM    C1311821   0.186   4.426  23.203  0.5925  0.1140 -0.3403
  114OSM   H13A11822   0.126   4.399  23.118  0.1266  0.5297 -0.1471
  114OSM   H13B11823   0.292   4.408  23.195  0.6799  0.8437 -0.8134
  114OSM   H13C11824   0.179   4.533  23.216  0.0091 -0.0487  0.8585
  114OSM    C1211825   0.147   4.221  23.306 -0.5388 -1.0204 -0.1186
  114OSM   H12A11826   0.251   4.197  23.289 -0.2107 -0.2888  0.7492
  114OSM   H12B11827   0.097   4.204  23.212  0.0603 -0.3853 -0.5589
  114OSM    C1111828   0.102   4.123  23.414  0.2441  0.1380 -0.7097
  114OSM   H11A11829   0.156   4.155  23.506 -1.4824 -0.6629  0.6559
  114OSM   H11B11830   0.148   4.024  23.397  1.2679  0.4122  0.3350
  114OSM      P11831  -0.115   4.058  23.313  0.0063 -0.4069 -0.2825
  114OSM    O1311832  -0.123   4.146  23.191 -0.5506 -0.1723 -0.9816
  114OSM    O1411833  -0.055   3.926  23.284 -0.9276  0.2656  0.1136
  114OSM    O1111834  -0.261   4.038  23.367 -0.3326 -0.2272 -0.2793
  114OSM    O1211835  -0.038   4.122  23.441  0.1055  0.0360 -0.1772
  114OSM    C1S11836  -0.360   4.144  23.375 -0.0109  0.5714 -1.2204
  114OSM    H1S11837  -0.332   4.243  23.332  0.9714  1.1255  0.5544
  114OSM    H1T11838  -0.377   4.169  23.482 -1.7349  4.6493 -2.2663
  114OSM     NF11839  -0.575   4.226  23.297 -0.4209  0.6797 -0.1346
  114OSM    HNF11840  -0.645   4.235  23.368 -0.0144  1.3060  0.1984
  114OSM    C2S11841  -0.490   4.108  23.296 -0.2726  0.5926 -0.2252
  114OSM    H2S11842  -0.455   4.083  23.193  0.7421  1.0091  0.0060
  114OSM    C3S11843  -0.549   3.973  23.348 -0.4269  0.1267  0.7750
  114OSM    H3S11844  -0.565   3.986  23.457 -1.3769  1.7066  0.4749
  114OSM     O311845  -0.464   3.856  23.348 -0.0604 -0.3918 -0.1777
  114OSM    HO311846  -0.376   3.893  23.337  0.4843 -1.9292 -1.5578
  114OSM    C4S11847  -0.679   3.937  23.282  0.1548  0.3740  0.5672
  114OSM    H4S11848  -0.769   3.968  23.338  0.3603  0.6858  0.7312
  114OSM    C5S11849  -0.698   3.861  23.175  0.5880 -0.3131 -0.6047
  114OSM    H5S11850  -0.606   3.834  23.120  0.4243 -3.0022  0.2957
  114OSM    C6S11851  -0.827   3.821  23.111 -0.0550  0.2008 -0.6259
  114OSM    H6S11852  -0.845   3.712  23.121 -1.3301  0.3230 -1.4230
  114OSM    H6T11853  -0.826   3.847  23.003 -3.4576 -1.7042 -1.2597
  114OSM    C7S11854  -0.954   3.885  23.173  0.3449  0.0628  0.1066
  114OSM    H7S11855  -0.948   3.995  23.161  3.2744 -0.0730 -0.4250
  114OSM    H7T11856  -0.951   3.885  23.284  1.5796  1.0776  0.0938
  114OSM    C8S11857  -1.080   3.826  23.115  0.8731 -0.6741  0.7199
  114OSM    H8S11858  -1.095   3.719  23.140 -2.1222 -0.2365  1.2494
  114OSM    H8T11859  -1.080   3.834  23.004 -0.2987  2.0513  0.8327
  114OSM    C9S11860  -1.215   3.901  23.159 -0.1814  0.2642  0.8705
  114OSM    H9S11861  -1.301   3.891  23.090 -0.1950  1.9100  0.6097
  114OSM    H9T11862  -1.198   4.010  23.147  0.0244 -0.0927 -3.3957
  114OSM   C10S11863  -1.252   3.871  23.305 -0.5002  0.1527 -0.1627
  114OSM   H10S11864  -1.166   3.899  23.369 -1.0087 -0.0922  0.6401
  114OSM   H10T11865  -1.264   3.760  23.312 -0.4054  0.1174 -0.5196
  114OSM   C11S11866  -1.383   3.933  23.359 -0.1809 -0.3888  0.2311
  114OSM   H11S11867  -1.364   4.041  23.376 -3.2108  0.1868  0.5512
  114OSM   H11T11868  -1.426   3.898  23.455 -1.4839  0.9022  0.1464
  114OSM   C12S11869  -1.491   3.946  23.249  0.5758 -0.4743  0.4733
  114OSM   H12S11870  -1.519   3.846  23.209  0.4002  0.6758 -2.6237
  114OSM   H12T11871  -1.455   4.007  23.163  0.9355  0.7702  1.4850
  114OSM   C13S11872  -1.607   4.009  23.312  0.0033  0.4555 -0.5246
  114OSM   H13S11873  -1.579   4.108  23.352  1.9647 -0.0909 -0.4105
  114OSM   H13T11874  -1.627   3.949  23.403 -2.2805  0.3409 -1.0548
  114OSM   C14S11875  -1.737   3.998  23.232 -0.3925  0.5098  1.0874
  114OSM   H14S11876  -1.747   3.901  23.181 -0.3537  0.9356  0.2635
  114OSM   H14T11877  -1.735   4.081  23.158  0.2563 -0.3391  0.1541
  114OSM   C15S11878  -1.858   4.015  23.311  0.1009  0.2222  1.2126
  114OSM   H15S11879  -1.853   4.114  23.363 -0.5964  0.0076  1.7040
  114OSM   H15T11880  -1.847   3.945  23.396 -0.1526 -0.0851  0.9958
  114OSM   C16S11881  -1.985   3.992  23.227 -0.2317  0.4859 -0.7794
  114OSM   H16S11882  -1.955   3.898  23.176  0.4860  0.8503 -1.0443
  114OSM   H16T11883  -1.997   4.065  23.144 -2.0145  0.8405 -0.2561
  114OSM   C17S11884  -2.119   3.994  23.304 -0.2219  0.9221  0.8963
  114OSM   H17S11885  -2.127   4.067  23.387 -1.6350 -1.8754  3.4137
  114OSM   H17T11886  -2.130   3.895  23.355  0.1300  0.1611 -0.4484
  114OSM   C18S11887  -2.246   4.014  23.224  0.2317  0.0637  0.4582
  114OSM   H18S11888  -2.247   4.112  23.171 -1.2470 -0.3356 -0.2936
  114OSM   H18T11889  -2.337   4.014  23.287 -1.5359  3.3710 -1.7817
  114OSM   H18U11890  -2.245   3.943  23.138  1.0009  0.4297  0.1559
  114OSM    C1F11891  -0.535   4.326  23.211  0.6330 -0.1330 -0.6203
  114OSM     OF11892  -0.447   4.316  23.129 -0.4875  0.1688  0.6520
  114OSM    C2F11893  -0.620   4.455  23.214 -0.5161  1.1392  0.2615
  114OSM    H2F11894  -0.640   4.485  23.319  2.0559 -0.6952  1.3692
  114OSM    H2G11895  -0.719   4.437  23.167  0.7252  1.8420 -2.8807
  114OSM    C3F11896  -0.552   4.584  23.146  0.6943  0.1746 -0.3354
  114OSM    H3F11897  -0.546   4.578  23.035  0.1885 -0.7168 -0.3292
  114OSM    H3G11898  -0.448   4.594  23.182 -0.0862 -2.1260  3.0315
  114OSM    C4F11899  -0.628   4.713  23.191  0.0141  0.5720 -0.2803
  114OSM    H4F11900  -0.562   4.801  23.180 -0.2327  1.1434  2.3401
  114OSM    H4G11901  -0.644   4.733  23.299 -2.0881  2.0069 -0.7857
  114OSM    C5F11902  -0.762   4.730  23.123  0.3729 -0.5036 -0.5110
  114OSM    H5F11903  -0.821   4.807  23.177 -1.8522 -1.5694 -1.2870
  114OSM    H5G11904  -0.818   4.633  23.126 -1.2993  0.4262 -0.4858
  114OSM    C6F11905  -0.757   4.775  22.975  0.5077 -0.0679 -0.6843
  114OSM    H6F11906  -0.723   4.687  22.917  0.4333 -0.9752  0.5911
  114OSM    H6G11907  -0.687   4.862  22.977 -1.5485  1.6711 -0.1741
  114OSM    C7F11908  -0.889   4.833  22.930  0.3140  1.5689 -0.2514
  114OSM    H7F11909  -0.891   4.865  22.824 -1.4799 -1.3996 -1.2593
  114OSM    H7G11910  -0.908   4.925  22.988 -0.4359 -0.0177  2.1604
  114OSM    C8F11911  -1.011   4.734  22.938 -0.5511  0.1488  0.2035
  114OSM    H8F11912  -1.102   4.780  22.893  0.8147  2.1544 -0.6691
  114OSM    H8G11913  -1.030   4.712  23.045  1.6782 -1.0911  0.4007
  114OSM    C9F11914  -0.993   4.594  22.889  0.0284  0.1955  0.1374
  114OSM    H9F11915  -0.956   4.524  22.966 -0.9277  1.9460  2.3235
  114OSM   C10F11916  -1.035   4.539  22.770 -0.3529 -0.0338 -0.2465
  114OSM   H10F11917  -1.022   4.431  22.750 -0.0627  0.1609 -1.1588
  114OSM   C11F11918  -1.103   4.615  22.645  0.2672  0.4107 -0.1551
  114OSM   H11F11919  -1.073   4.570  22.548  2.9989  1.2616  0.2178
  114OSM   H11G11920  -1.075   4.722  22.633  0.2943  0.4785  0.4607
  114OSM   C12F11921  -1.263   4.608  22.667 -0.4440 -0.2338  0.5780
  114OSM   H12F11922  -1.295   4.644  22.767  1.9454  1.1177  0.9436
  114OSM   H12G11923  -1.289   4.501  22.678  2.3184 -1.0412  0.2125
  114OSM   C13F11924  -1.337   4.680  22.556 -0.6849  0.0341  0.4929
  114OSM   H13F11925  -1.380   4.619  22.474  0.5989  2.1780 -1.9293
  114OSM   H13G11926  -1.274   4.757  22.505  1.8968 -1.1813  1.6524
  114OSM   C14F11927  -1.465   4.737  22.618 -0.4382 -0.3417  0.4556
  114OSM   H14F11928  -1.453   4.783  22.718  0.2369 -0.7719  0.5759
  114OSM   H14G11929  -1.545   4.664  22.643 -2.5811  1.8501  0.3864
  114OSM   C15F11930  -1.523   4.855  22.527  0.4166  0.3136 -0.5632
  114OSM   H15F11931  -1.564   4.807  22.436 -0.5629  1.2463 -0.6334
  114OSM   H15G11932  -1.439   4.923  22.501  0.8252  1.0729  2.4043
  114OSM   C16F11933  -1.638   4.932  22.575 -0.0925 -0.1576  0.2310
  114OSM   H16F11934  -1.606   4.991  22.663  1.0903  0.4635 -0.5800
  114OSM   H16G11935  -1.726   4.872  22.607 -2.2360  1.2796 -2.5908
  114OSM   C17F11936  -1.693   5.037  22.472 -0.1298  0.7813  0.6609
  114OSM   H17F11937  -1.753   4.983  22.396 -1.9145  3.0704  0.3262
  114OSM   H17G11938  -1.616   5.084  22.409  1.2108 -0.7951  1.0649
  114OSM   C18F11939  -1.787   5.140  22.535  0.1207 -0.0265 -0.1747
  114OSM   H18F11940  -1.843   5.185  22.452 -0.7560 -1.1213 -0.1941
  114OSM   H18G11941  -1.715   5.212  22.580  1.5739 -2.0939  1.0273
  114OSM   H18H11942  -1.850   5.089  22.611 -0.5236 -0.3641 -0.9250
  115OSM      N11943   1.086   3.453  18.088 -0.4068 -0.2775 -0.5201
  115OSM    C1511944   1.037   3.530  17.965 -0.4515  0.0893  0.0872
  115OSM   H15A11945   1.103   3.609  17.931  1.8991 -1.8216 -0.0412
  115OSM   H15B11946   0.934   3.549  17.991 -0.3212 -0.8825  1.4441
  115OSM   H15C11947   1.017   3.461  17.885 -1.8850  0.0953  0.4065
  115OSM    C1411948   1.091   3.557  18.197 -0.1330 -0.2558 -0.3960
  115OSM   H14A11949   1.119   3.652  18.154  1.2116 -0.6391 -0.4314
  115OSM   H14B11950   1.157   3.524  18.276 -0.4342  3.1622  1.4472
  115OSM   H14C11951   0.996   3.571  18.245  0.0047  0.2549 -0.2611
  115OSM    C1311952   0.985   3.355  18.131  0.6060  0.9664 -0.0678
  115OSM   H13A11953   1.008   3.259  18.087  1.3209 -0.1313  2.5148
  115OSM   H13B11954   0.884   3.393  18.118 -0.7203 -0.4002  4.4216
  115OSM   H13C11955   0.992   3.330  18.235  0.7680 -1.5297 -0.6298
  115OSM    C1211956   1.223   3.398  18.061  0.3457 -0.7038  0.0803
  115OSM   H12A11957   1.265   3.351  18.148  0.8241 -1.9661 -0.7925
  115OSM   H12B11958   1.284   3.484  18.040 -0.5144 -0.5682 -2.2248
  115OSM    C1111959   1.239   3.292  17.947  0.1703 -0.7845  0.4009
  115OSM   H11A11960   1.338   3.243  17.956 -0.8613 -3.7682 -2.4497
  115OSM   H11B11961   1.232   3.350  17.853  1.4054 -1.1429  0.0663
  115OSM      P11962   1.104   3.107  17.833 -0.1393 -0.2948  0.0358
  115OSM    O1311963   1.052   3.201  17.726  0.2144 -0.6360 -0.0433
  115OSM    O1411964   1.211   3.017  17.786  0.7590 -1.3367  0.2046
  115OSM    O1111965   0.979   3.016  17.882  0.1452  0.2831 -0.1447
  115OSM    O1211966   1.137   3.189  17.962  0.8971 -0.3542 -0.5207
  115OSM    C1S11967   0.893   3.067  17.986  0.4448 -0.3595 -0.7791
  115OSM    H1S11968   0.853   3.162  17.946  0.9801 -0.7507 -2.3407
  115OSM    H1T11969   0.952   3.091  18.077  1.9984  0.9477 -2.0854
  115OSM     NF11970   0.674   3.036  18.111 -0.4682  0.4347 -0.0123
  115OSM    HNF11971   0.663   2.994  18.201 -0.7351  0.8977  0.1803
  115OSM    C2S11972   0.765   2.976  18.017 -0.2193 -0.3568 -0.6884
  115OSM    H2S11973   0.708   2.981  17.921  0.9013 -0.4051 -1.3778
  115OSM    C3S11974   0.805   2.830  18.053 -0.4288 -0.5404  0.0761
  115OSM    H3S11975   0.858   2.846  18.149  0.3903 -0.5743 -0.3561
  115OSM     O311976   0.904   2.787  17.962  0.7673  0.6986  0.2710
  115OSM    HO311977   0.929   2.868  17.917 -0.8502 -0.1094 -2.2991
  115OSM    C4S11978   0.693   2.735  18.062 -0.3499  0.5362 -0.1650
  115OSM    H4S11979   0.634   2.735  18.154 -0.4944  0.7641 -0.2568
  115OSM    C5S11980   0.655   2.644  17.968 -0.0242  0.6415  0.6696
  115OSM    H5S11981   0.722   2.623  17.884 -1.2522 -0.2200 -0.1203
  115OSM    C6S11982   0.538   2.545  17.981  0.3329 -0.2541 -0.6684
  115OSM    H6S11983   0.586   2.446  17.965  3.4320  0.9234  0.5491
  115OSM    H6T11984   0.462   2.572  17.904  0.7238  1.3341 -0.5288
  115OSM    C7S11985   0.464   2.534  18.120  0.6946 -0.2316 -0.4432
  115OSM    H7S11986   0.431   2.633  18.158  0.4209 -0.2969 -0.5159
  115OSM    H7T11987   0.535   2.497  18.198  0.5153  2.1868  0.9734
  115OSM    C8S11988   0.354   2.432  18.115 -0.0523  0.9518  0.5580
  115OSM    H8S11989   0.403   2.334  18.096  1.1271  1.6735 -0.2430
  115OSM    H8T11990   0.281   2.456  18.035  0.3255 -0.5884 -0.2893
  115OSM    C9S11991   0.271   2.432  18.244  0.1721 -0.6144  0.1891
  115OSM    H9S11992   0.231   2.532  18.271 -2.4254 -1.5603  0.0736
  115OSM    H9T11993   0.332   2.401  18.332  0.0397  1.4833  1.0746
  115OSM   C10S11994   0.145   2.352  18.224 -0.0738  1.1337 -0.1807
  115OSM   H10S11995   0.164   2.244  18.208  1.9304  1.7119 -2.1883
  115OSM   H10T11996   0.093   2.376  18.129 -0.6322 -0.4209 -0.2938
  115OSM   C11S11997   0.061   2.354  18.350  0.6841 -0.2176  0.3949
  115OSM   H11S11998   0.028   2.458  18.372  0.1225 -0.8910  3.2589
  115OSM   H11T11999   0.134   2.328  18.429  0.1729 -3.0400  0.0385
  115OSM   C12S12000  -0.065   2.267  18.341 -0.8158 -0.0017  0.0195
  115OSM   H12S12001  -0.021   2.166  18.326  0.6051  0.1162  2.8213
  115OSM   H12T12002  -0.125   2.295  18.252 -1.4548 -0.9283  0.1383
  115OSM   C13S12003  -0.152   2.275  18.462 -0.6810 -0.4155 -0.0588
  115OSM   H13S12004  -0.185   2.382  18.465  2.2170  0.5404  2.0853
  115OSM   H13T12005  -0.098   2.248  18.555 -0.5296 -1.2934 -0.3982
  115OSM   C14S12006  -0.269   2.178  18.450 -0.9389  0.9608 -0.5374
  115OSM   H14S12007  -0.215   2.082  18.464 -0.9796  1.2350  1.8664
  115OSM   H14T12008  -0.308   2.175  18.346 -1.0565  0.5811 -0.4836
  115OSM   C15S12009  -0.383   2.178  18.555 -0.6722  0.4532  0.6469
  115OSM   H15S12010  -0.439   2.274  18.551 -3.3118 -0.9691  0.9661
  115OSM   H15T12011  -0.336   2.174  18.656 -1.4403 -1.6153  0.9564
  115OSM   C16S12012  -0.468   2.049  18.558 -0.0152  0.1865 -0.9780
  115OSM   H16S12013  -0.394   1.973  18.591  0.6309  0.9378 -0.6262
  115OSM   H16T12014  -0.508   2.028  18.457 -1.8073 -0.0803 -0.2414
  115OSM   C17S12015  -0.589   2.054  18.648 -0.4445 -0.3256  0.3745
  115OSM   H17S12016  -0.661   2.132  18.616  1.3145  1.3187  0.2535
  115OSM   H17T12017  -0.555   2.078  18.752  0.6171  0.7479 -0.1996
  115OSM   C18S12018  -0.657   1.919  18.640  0.5149  0.2923  0.6100
  115OSM   H18S12019  -0.586   1.838  18.666 -2.4749 -1.9350  2.5630
  115OSM   H18T12020  -0.711   1.916  18.543  0.4815 -3.9107  0.5811
  115OSM   H18U12021  -0.747   1.904  18.703 -1.0397 -0.3799 -1.6373
  115OSM    C1F12022   0.607   3.154  18.090 -0.6502  1.1938  0.5084
  115OSM     OF12023   0.621   3.218  17.984  0.1340  0.1866 -0.2554
  115OSM    C2F12024   0.527   3.197  18.209 -0.7553 -0.2580 -0.3426
  115OSM    H2F12025   0.592   3.235  18.290 -1.6346  1.0784 -0.2301
  115OSM    H2G12026   0.453   3.121  18.241 -0.0062 -1.2869 -1.0261
  115OSM    C3F12027   0.448   3.326  18.180 -0.3216 -0.1302  0.2141
  115OSM    H3F12028   0.386   3.315  18.089  0.3861 -1.4392 -0.1299
  115OSM    H3G12029   0.510   3.415  18.159 -2.0944  1.5461  1.7024
  115OSM    C4F12030   0.363   3.353  18.299 -0.7712 -0.4138 -0.9192
  115OSM    H4F12031   0.337   3.461  18.295  0.2026  0.1629  3.0623
  115OSM    H4G12032   0.415   3.357  18.397 -4.2160  1.5228  1.0245
  115OSM    C5F12033   0.230   3.285  18.321  0.0811 -0.3296 -0.3061
  115OSM    H5F12034   0.173   3.270  18.227 -0.7591  0.2174  0.1070
  115OSM    H5G12035   0.164   3.358  18.374 -0.6464  0.0009 -1.6265
  115OSM    C6F12036   0.225   3.162  18.409  0.3473 -0.3056 -0.0031
  115OSM    H6F12037   0.204   3.176  18.517  1.1877 -1.0684  0.2630
  115OSM    H6G12038   0.329   3.124  18.413  0.9017  1.1792  0.2489
  115OSM    C7F12039   0.122   3.059  18.362 -0.5447 -0.1035  0.7651
  115OSM    H7F12040   0.144   3.053  18.253  3.7974 -0.5140  1.4916
  115OSM    H7G12041   0.017   3.095  18.371 -0.8506 -1.2588  2.2470
  115OSM    C8F12042   0.132   2.927  18.433  0.3567 -0.5432  0.3169
  115OSM    H8F12043   0.094   2.934  18.537  0.1043  3.9630  0.1065
  115OSM    H8G12044   0.241   2.908  18.433  0.8124  1.1813 -3.7253
  115OSM    C9F12045   0.067   2.819  18.348 -0.4946 -0.3786  0.4306
  115OSM    H9F12046   0.137   2.766  18.281  0.4383 -1.0629  1.8935
  115OSM   C10F12047  -0.065   2.795  18.351  0.2558 -0.5707 -0.4757
  115OSM   H10F12048  -0.112   2.727  18.278  0.3207  0.2732 -1.3300
  115OSM   C11F12049  -0.169   2.872  18.428  0.0234  0.7814  0.7748
  115OSM   H11F12050  -0.217   2.952  18.367 -0.9416 -0.7232 -0.5063
  115OSM   H11G12051  -0.126   2.932  18.511  1.8130  1.3261 -0.4942
  115OSM   C12F12052  -0.284   2.781  18.481  0.5572 -0.2337 -0.1075
  115OSM   H12F12053  -0.328   2.725  18.396 -2.5007  0.4267  0.9279
  115OSM   H12G12054  -0.363   2.854  18.509  2.3578  1.2382  1.4231
  115OSM   C13F12055  -0.251   2.690  18.593  0.4561 -0.3733  0.1192
  115OSM   H13F12056  -0.178   2.742  18.658  2.9746 -1.8080 -1.4170
  115OSM   H13G12057  -0.192   2.609  18.546  3.3650  1.5133  0.2558
  115OSM   C14F12058  -0.369   2.629  18.662  0.0994  0.2671 -0.9121
  115OSM   H14F12059  -0.438   2.590  18.584 -0.6916 -0.5062  0.1434
  115OSM   H14G12060  -0.425   2.703  18.723  0.9154 -0.2479  0.5148
  115OSM   C15F12061  -0.325   2.507  18.748 -0.0018  0.3725 -0.0183
  115OSM   H15F12062  -0.259   2.446  18.683 -0.0271  1.0916 -0.7208
  115OSM   H15G12063  -0.416   2.446  18.770  0.3263  0.4156  1.5775
  115OSM   C16F12064  -0.255   2.545  18.877  0.4848 -0.7162  0.3411
  115OSM   H16F12065  -0.159   2.589  18.842  0.6287 -1.4304 -0.1850
  115OSM   H16G12066  -0.233   2.458  18.941  1.3859  1.0490  2.5649
  115OSM   C17F12067  -0.335   2.637  18.978  0.1926 -0.9331  0.1035
  115OSM   H17F12068  -0.438   2.596  18.983 -0.4172 -0.1050 -3.0740
  115OSM   H17G12069  -0.338   2.745  18.950  0.4742 -0.6862  1.0042
  115OSM   C18F12070  -0.268   2.641  19.114 -0.7038 -0.6374 -0.1844
  115OSM   H18F12071  -0.265   2.542  19.164 -0.9279 -0.0803  0.9564
  115OSM   H18G12072  -0.318   2.715  19.180 -1.8666  1.0505 -2.7971
  115OSM   H18H12073  -0.161   2.671  19.101 -0.6827 -0.7482 -0.2630
  116OSM      N12074   1.369   2.142  15.388 -0.0100  0.9389  0.0964
  116OSM    C1512075   1.499   2.091  15.430 -0.7457  0.5729 -0.8126
  116OSM   H15A12076   1.564   2.161  15.480 -1.5265  1.2949 -0.8011
  116OSM   H15B12077   1.553   2.052  15.344  0.7692 -1.4992  0.9587
  116OSM   H15C12078   1.485   2.011  15.501 -1.9859  0.3190 -1.3309
  116OSM    C1412079   1.318   2.057  15.273  0.3959  0.3016 -0.3692
  116OSM   H14A12080   1.318   1.950  15.290  0.4719 -0.1198 -2.7638
  116OSM   H14B12081   1.383   2.072  15.188 -1.5620  1.6185 -1.7127
  116OSM   H14C12082   1.224   2.087  15.229  0.4997  1.7070  0.3248
  116OSM    C1312083   1.273   2.128  15.504 -0.4577 -1.4685 -0.3767
  116OSM   H13A12084   1.315   2.181  15.588 -1.7412  1.5399 -1.4928
  116OSM   H13B12085   1.270   2.026  15.540  2.4999 -0.9344  1.7209
  116OSM   H13C12086   1.175   2.170  15.490  0.2342  0.8045  0.9808
  116OSM    C1212087   1.387   2.282  15.336  0.7030  0.5871  0.2431
  116OSM   H12A12088   1.461   2.283  15.257 -1.4864 -1.8897 -2.0433
  116OSM   H12B12089   1.432   2.346  15.410 -0.6373  0.2296  1.3859
  116OSM    C1112090   1.263   2.361  15.299 -0.0718 -0.0023 -0.0220
  116OSM   H11A12091   1.292   2.466  15.278 -1.6791  0.4359 -0.1668
  116OSM   H11B12092   1.181   2.361  15.373  1.5982 -0.1865  1.9275
  116OSM      P12093   1.269   2.345  15.045  0.1599 -0.0855 -0.6791
  116OSM    O1312094   1.409   2.384  15.061 -0.0595  0.6131 -0.8871
  116OSM    O1412095   1.239   2.252  14.938 -0.1418  0.5815  0.2614
  116OSM    O1112096   1.196   2.479  15.012  0.2890  0.5088 -0.1219
  116OSM    O1212097   1.201   2.302  15.183 -0.6816  0.2538 -0.4481
  116OSM    C1S12098   1.054   2.487  14.991 -0.0397  0.1556  1.4252
  116OSM    H1S12099   1.012   2.397  14.940 -0.5078  0.5991  1.0198
  116OSM    H1T12100   1.048   2.571  14.918  2.3893 -0.8608 -0.0867
  116OSM     NF12101   0.834   2.532  15.099  0.0337  0.0867 -0.0121
  116OSM    HNF12102   0.781   2.615  15.114  1.8920  1.6442 -1.4982
  116OSM    C2S12103   0.978   2.527  15.114 -0.5890 -0.6262 -0.5208
  116OSM    H2S12104   1.007   2.458  15.197  0.5653  1.9242  1.3441
  116OSM    C3S12105   1.022   2.674  15.159  0.1642  0.0619  0.7427
  116OSM    H3S12106   0.981   2.741  15.081 -2.2309 -3.4724 -1.3319
  116OSM     O312107   1.162   2.691  15.156  0.0664  0.2459  0.5738
  116OSM    HO312108   1.192   2.609  15.116 -1.9600  0.2578 -1.2030
  116OSM    C4S12109   0.971   2.725  15.290  0.3455  0.2839  0.3430
  116OSM    H4S12110   0.973   2.649  15.370  1.8107  0.5629  0.5955
  116OSM    C5S12111   0.937   2.852  15.318  0.2304  0.4465  0.1450
  116OSM    H5S12112   0.941   2.923  15.235 -1.2462  1.9851  1.3147
  116OSM    C6S12113   0.871   2.894  15.448  0.1310  0.5611  0.4095
  116OSM    H6S12114   0.809   2.985  15.433 -2.1589 -0.7510  1.5011
  116OSM    H6T12115   0.947   2.925  15.523  1.4074  0.6535 -0.8736
  116OSM    C7S12116   0.767   2.795  15.494  0.7015 -0.2345  0.1328
  116OSM    H7S12117   0.809   2.694  15.514 -2.6569 -1.5467  1.3810
  116OSM    H7T12118   0.680   2.777  15.427  0.1645  2.4127  0.0425
  116OSM    C8S12119   0.689   2.833  15.626 -0.0599  0.4707 -0.1918
  116OSM    H8S12120   0.765   2.876  15.694 -0.1775 -0.7678  0.7560
  116OSM    H8T12121   0.644   2.740  15.667  0.2789  0.0725 -0.6995
  116OSM    C9S12122   0.577   2.935  15.618 -0.1573  0.0947 -0.2461
  116OSM    H9S12123   0.494   2.912  15.548  0.7051 -1.4076 -0.8343
  116OSM    H9T12124   0.621   3.027  15.575  0.0133  0.7079  1.1810
  116OSM   C10S12125   0.531   2.963  15.766  0.1824 -0.4447  0.3724
  116OSM   H10S12126   0.618   3.013  15.815  1.5462 -1.9232 -0.4667
  116OSM   H10T12127   0.496   2.868  15.810 -0.5760 -0.3029  0.0807
  116OSM   C11S12128   0.405   3.055  15.770 -0.1751  0.3689  0.0413
  116OSM   H11S12129   0.323   3.016  15.707  0.2889  0.3309 -0.5545
  116OSM   H11T12130   0.435   3.150  15.719  1.6832 -0.3419 -0.2608
  116OSM   C12S12131   0.353   3.080  15.911 -0.1839 -0.3678  0.2251
  116OSM   H12S12132   0.431   3.125  15.976 -0.1800 -0.7344  0.4748
  116OSM   H12T12133   0.320   2.992  15.970 -1.1846  0.8717  1.5980
  116OSM   C13S12134   0.222   3.168  15.895  0.0546 -0.1064  0.7496
  116OSM   H13S12135   0.173   3.179  15.994 -2.4753 -0.9655 -0.2998
  116OSM   H13T12136   0.151   3.112  15.830  0.0260  0.2621  0.4601
  116OSM   C14S12137   0.231   3.303  15.827 -0.3958 -0.1326 -0.3344
  116OSM   H14S12138   0.281   3.283  15.730  1.3546 -0.1027  0.5268
  116OSM   H14T12139   0.304   3.369  15.879  1.7434  0.2618 -3.5657
  116OSM   C15S12140   0.103   3.384  15.814  0.5399 -0.6595 -0.3000
  116OSM   H15S12141   0.031   3.320  15.758  0.9708  0.2485 -1.9532
  116OSM   H15T12142   0.104   3.463  15.735  0.7014 -0.0801  0.2706
  116OSM   C16S12143   0.055   3.427  15.952 -0.3080  0.7691 -0.2404
  116OSM   H16S12144   0.135   3.476  16.012  1.4339 -1.3961 -0.6683
  116OSM   H16T12145   0.038   3.336  16.015  0.9954  0.8049  0.1841
  116OSM   C17S12146  -0.063   3.523  15.944 -0.3380 -0.0480  0.2896
  116OSM   H17S12147  -0.142   3.462  15.895  0.8090  0.6086 -2.5284
  116OSM   H17T12148  -0.043   3.602  15.869 -1.0433 -0.9361 -0.8687
  116OSM   C18S12149  -0.109   3.576  16.077  0.8389  0.0461 -0.1455
  116OSM   H18S12150  -0.036   3.617  16.150 -0.6023 -1.1139  2.0636
  116OSM   H18T12151  -0.149   3.487  16.130 -0.2860 -0.4086 -1.6992
  116OSM   H18U12152  -0.188   3.653  16.070 -0.8161 -1.5405  0.4143
  116OSM    C1F12153   0.773   2.420  15.068  0.7297 -0.1757 -0.5005
  116OSM     OF12154   0.833   2.318  15.065  0.4094  0.3657 -0.3070
  116OSM    C2F12155   0.629   2.428  15.023  0.2297 -0.0325 -0.0253
  116OSM    H2F12156   0.617   2.364  14.933 -0.9549  1.2098 -0.7868
  116OSM    H2G12157   0.600   2.530  14.991 -1.7152 -0.5385 -0.0323
  116OSM    C3F12158   0.533   2.388  15.132 -0.3946  0.0817 -0.3610
  116OSM    H3F12159   0.576   2.306  15.193 -0.7706  1.9616  2.6436
  116OSM    H3G12160   0.428   2.361  15.109  0.3304 -1.7426 -1.8475
  116OSM    C4F12161   0.524   2.510  15.241  0.1851 -0.1686  0.1652
  116OSM    H4F12162   0.475   2.594  15.188  0.6830  0.3823  0.5589
  116OSM    H4G12163   0.624   2.542  15.278 -0.4782  1.0207  1.0000
  116OSM    C5F12164   0.441   2.460  15.361  0.2514  0.1421  0.6810
  116OSM    H5F12165   0.498   2.381  15.414  1.6311  1.3846  1.0960
  116OSM    H5G12166   0.342   2.418  15.333 -0.1342  1.4259  0.0671
  116OSM    C6F12167   0.406   2.573  15.454 -0.0401 -0.9750  0.3526
  116OSM    H6F12168   0.349   2.649  15.396  1.1775 -1.7545 -1.9942
  116OSM    H6G12169   0.503   2.620  15.483 -0.3959  1.2909 -1.7833
  116OSM    C7F12170   0.329   2.543  15.580  0.6327  0.4395  0.0064
  116OSM    H7F12171   0.333   2.634  15.643 -0.6053  0.3730  0.1958
  116OSM    H7G12172   0.370   2.462  15.645  0.6483  1.4233  1.2623
  116OSM    C8F12173   0.181   2.521  15.558 -1.0847  0.4403 -0.2362
  116OSM    H8F12174   0.164   2.432  15.494 -3.2282  0.8077 -0.2424
  116OSM    H8G12175   0.155   2.613  15.502 -1.9929  0.7814  0.7260
  116OSM    C9F12176   0.101   2.509  15.679 -0.2664 -0.0297  0.1821
  116OSM    H9F12177   0.065   2.406  15.692 -1.8737  0.2201 -1.8045
  116OSM   C10F12178   0.061   2.610  15.767  0.6217 -0.3402  0.1743
  116OSM   H10F12179   0.000   2.587  15.855  1.0336 -0.7730  0.3523
  116OSM   C11F12180   0.110   2.754  15.759  0.5201 -0.6873  0.0727
  116OSM   H11F12181   0.173   2.770  15.670  1.5628  1.4950  1.1160
  116OSM   H11G12182   0.172   2.780  15.848  1.7076  0.6038 -1.0849
  116OSM   C12F12183  -0.016   2.846  15.747 -0.4858 -0.1255  0.4544
  116OSM   H12F12184  -0.078   2.808  15.664  0.8575  1.7945 -1.5252
  116OSM   H12G12185   0.026   2.941  15.709  2.1271 -1.4718 -0.3170
  116OSM   C13F12186  -0.099   2.848  15.873 -0.1380  0.0157  1.0465
  116OSM   H13F12187  -0.040   2.907  15.948  1.2823 -0.7790  0.5784
  116OSM   H13G12188  -0.115   2.745  15.912  1.6367 -1.2964 -1.4679
  116OSM   C14F12189  -0.226   2.920  15.843 -0.0747 -0.0752  0.0890
  116OSM   H14F12190  -0.265   2.890  15.744  0.9565  1.1138 -0.7055
  116OSM   H14G12191  -0.193   3.026  15.838 -1.4351  0.3428 -3.9347
  116OSM   C15F12192  -0.319   2.919  15.966 -0.5194 -0.2418 -0.2198
  116OSM   H15F12193  -0.388   3.003  15.949 -0.9707 -0.4971  0.3450
  116OSM   H15G12194  -0.260   2.935  16.059 -1.2890 -2.1609  0.6555
  116OSM   C16F12195  -0.395   2.785  15.985 -0.7668  0.0472 -0.3611
  116OSM   H16F12196  -0.439   2.787  16.087 -3.5594  0.8619 -1.4980
  116OSM   H16G12197  -0.319   2.704  15.985 -0.2389  0.5072  1.1474
  116OSM   C17F12198  -0.513   2.765  15.887 -0.7171 -0.2995  0.2540
  116OSM   H17F12199  -0.461   2.755  15.790 -0.0079  0.2043  0.5745
  116OSM   H17G12200  -0.565   2.863  15.890  0.7786  0.5804 -1.2546
  116OSM   C18F12201  -0.586   2.632  15.912  0.0901 -0.5342  0.2631
  116OSM   H18F12202  -0.643   2.633  16.007 -0.6026 -0.9233 -0.1402
  116OSM   H18G12203  -0.512   2.553  15.933 -0.0510 -0.7625 -0.0827
  116OSM   H18H12204  -0.665   2.611  15.836 -0.3223  0.0289  0.5304
  117OSM      N12205   1.837   1.861  17.248 -0.1519  0.3393 -0.0058
  117OSM    C1512206   1.852   1.981  17.152  0.0714 -0.3891 -0.1246
  117OSM   H15A12207   1.757   2.020  17.117 -0.4225  0.2790  1.8437
  117OSM   H15B12208   1.907   1.954  17.062 -0.7811  2.8656 -1.7724
  117OSM   H15C12209   1.895   2.066  17.203 -2.2219  1.4030 -0.9722
  117OSM    C1412210   1.968   1.836  17.311  0.1368 -0.7883  0.1940
  117OSM   H14A12211   2.002   1.924  17.363  0.2787 -1.1646  0.7412
  117OSM   H14B12212   2.044   1.822  17.235  0.4270 -1.4050  0.5954
  117OSM   H14C12213   1.972   1.751  17.377  1.5811 -0.6920  0.2648
  117OSM    C1312214   1.742   1.902  17.362  0.4770 -0.0950  0.2788
  117OSM   H13A12215   1.640   1.909  17.327  0.5841  5.6485  0.1596
  117OSM   H13B12216   1.769   1.993  17.412  0.2423 -0.4931  1.1432
  117OSM   H13C12217   1.745   1.818  17.430 -1.4378  0.2701  0.8639
  117OSM    C1212218   1.799   1.734  17.173 -0.1482 -0.4341 -0.3859
  117OSM   H12A12219   1.828   1.651  17.236 -3.9080 -0.8324  1.1033
  117OSM   H12B12220   1.849   1.724  17.078  1.1142 -1.1010  0.3283
  117OSM    C1112221   1.659   1.725  17.130  1.0174  0.1273 -0.2697
  117OSM   H11A12222   1.625   1.820  17.083 -0.1798 -0.9846 -1.7333
  117OSM   H11B12223   1.604   1.708  17.225 -0.8400 -0.9473 -1.4774
  117OSM      P12224   1.650   1.620  16.899  0.0364  0.4046  0.5198
  117OSM    O1312225   1.603   1.498  16.830  0.0655  0.0662 -0.2490
  117OSM    O1412226   1.587   1.746  16.862  0.0121  0.0875  0.5043
  117OSM    O1112227   1.806   1.641  16.882  0.0780  0.1355  0.4626
  117OSM    O1212228   1.641   1.607  17.054 -0.3856  0.4173 -0.5712
  117OSM    C1S12229   1.907   1.545  16.905 -0.4497  0.6060  0.8145
  117OSM    H1S12230   1.885   1.453  16.846  0.7273 -0.2471  1.6358
  117OSM    H1T12231   1.907   1.500  17.007 -0.2522 -1.3594 -0.0092
  117OSM     NF12232   2.144   1.495  16.940  0.1720 -0.4351  0.8481
  117OSM    HNF12233   2.204   1.528  17.012  0.1431 -1.5741  1.4178
  117OSM    C2S12234   2.048   1.590  16.871  0.2525  0.5777  0.6656
  117OSM    H2S12235   2.060   1.578  16.761 -0.0528 -0.7282  0.7611
  117OSM    C3S12236   2.076   1.740  16.898 -0.5721 -0.6693 -0.3531
  117OSM    H3S12237   2.063   1.756  17.007  2.2595  1.3351 -0.1924
  117OSM     O312238   1.989   1.832  16.835  0.5814 -0.6699  0.1289
  117OSM    HO312239   1.905   1.789  16.821 -1.2395  1.7026  2.7013
  117OSM    C4S12240   2.222   1.782  16.865 -0.2004 -0.1567 -0.2259
  117OSM    H4S12241   2.293   1.759  16.945  0.0233  0.9312 -0.1032
  117OSM    C5S12242   2.263   1.829  16.744  0.1620  0.0928 -0.0049
  117OSM    H5S12243   2.188   1.843  16.666  0.4535  0.8175 -0.1643
  117OSM    C6S12244   2.411   1.840  16.715 -0.7377 -0.0087 -0.4693
  117OSM    H6S12245   2.469   1.823  16.808 -0.0941 -0.3624 -0.9293
  117OSM    H6T12246   2.442   1.944  16.693 -0.7159  0.3140  1.0113
  117OSM    C7S12247   2.454   1.756  16.592 -0.3160 -1.0123 -0.0169
  117OSM    H7S12248   2.393   1.804  16.513 -1.2236  1.4230  2.0270
  117OSM    H7T12249   2.420   1.651  16.604  2.5796 -2.1057 -0.6229
  117OSM    C8S12250   2.602   1.770  16.582 -0.6277  0.0794 -0.3779
  117OSM    H8S12251   2.661   1.718  16.659 -1.0962  0.7499  0.4583
  117OSM    H8T12252   2.642   1.873  16.574  1.4997 -0.6950 -0.2228
  117OSM    C9S12253   2.639   1.712  16.443 -0.2315 -0.0169 -0.5433
  117OSM    H9S12254   2.608   1.780  16.361 -5.0643 -2.7948 -1.3351
  117OSM    H9T12255   2.590   1.614  16.427 -1.3224 -0.1485  2.8312
  117OSM   C10S12256   2.798   1.687  16.433  0.1805  0.3756  0.2123
  117OSM   H10S12257   2.831   1.642  16.529  2.3219  0.5188 -0.4164
  117OSM   H10T12258   2.842   1.789  16.425  0.1588  0.4706  1.1825
  117OSM   C11S12259   2.835   1.593  16.317  0.9446  0.8457 -0.3895
  117OSM   H11S12260   2.810   1.630  16.215  2.7041 -1.1699 -1.6390
  117OSM   H11T12261   2.780   1.498  16.330  2.8635 -0.0030  2.0394
  117OSM   C12S12262   2.984   1.554  16.311 -0.8307  0.0323 -0.9631
  117OSM   H12S12263   3.013   1.511  16.409 -1.7681  0.5210 -0.4545
  117OSM   H12T12264   3.042   1.648  16.302 -3.4337  1.8621  0.2555
  117OSM   C13S12265   3.012   1.449  16.199 -0.4060  0.4497 -0.3953
  117OSM   H13S12266   2.975   1.499  16.107 -0.6709 -0.0235 -0.5510
  117OSM   H13T12267   2.950   1.358  16.211  1.6268 -1.1475 -1.4460
  117OSM   C14S12268   3.152   1.420  16.166 -0.0388  0.0759  0.1106
  117OSM   H14S12269   3.189   1.360  16.252 -2.3424  0.0633  1.1724
  117OSM   H14T12270   3.206   1.516  16.154  0.8127 -0.1028  2.0398
  117OSM   C15S12271   3.179   1.324  16.050  0.0208 -0.6900 -0.7919
  117OSM   H15S12272   3.131   1.369  15.960  2.1562  3.4399 -0.1430
  117OSM   H15T12273   3.152   1.219  16.073 -0.7602 -0.0893  1.2384
  117OSM   C16S12274   3.328   1.323  16.016 -0.2453  0.8305  0.1639
  117OSM   H16S12275   3.388   1.302  16.107 -2.8535  0.8006  1.9916
  117OSM   H16T12276   3.367   1.424  15.993  1.3968  1.1444  3.7002
  117OSM   C17S12277   3.380   1.230  15.906  0.0621  0.3966  0.2229
  117OSM   H17S12278   3.344   1.128  15.932 -0.5094  0.6484  0.4310
  117OSM   H17T12279   3.491   1.230  15.913  0.3862 -3.8567 -1.7291
  117OSM   C18S12280   3.342   1.260  15.764 -0.0552 -0.4387  0.2403
  117OSM   H18S12281   3.241   1.306  15.769  1.0914  2.1275  3.1917
  117OSM   H18T12282   3.343   1.173  15.696  0.4876 -0.8009  0.6968
  117OSM   H18U12283   3.413   1.332  15.718  0.6108 -0.1717  1.6088
  117OSM    C1F12284   2.164   1.372  16.902  0.3824 -0.6405  0.5351
  117OSM     OF12285   2.100   1.315  16.816  0.4183  0.1780 -0.2195
  117OSM    C2F12286   2.280   1.308  16.975  0.1371  0.5822  0.0195
  117OSM    H2F12287   2.236   1.228  17.039 -1.6742  0.6130 -1.1246
  117OSM    H2G12288   2.336   1.392  17.022  0.9415  0.3240 -0.4653
  117OSM    C3F12289   2.387   1.243  16.879 -0.0644 -0.9044 -0.0514
  117OSM    H3F12290   2.332   1.176  16.810 -0.9612  0.1794 -0.4040
  117OSM    H3G12291   2.455   1.187  16.948 -2.2808 -3.7850 -0.0158
  117OSM    C4F12292   2.465   1.337  16.797 -0.3734  0.0793  0.4400
  117OSM    H4F12293   2.514   1.420  16.853 -0.1015  0.6058 -0.5426
  117OSM    H4G12294   2.391   1.377  16.723 -0.8185 -1.1243  0.2079
  117OSM    C5F12295   2.583   1.267  16.728 -0.4563  0.1040  0.6371
  117OSM    H5F12296   2.541   1.172  16.690  0.0118  0.5168 -0.9842
  117OSM    H5G12297   2.656   1.246  16.809 -2.0517 -0.6392  1.9292
  117OSM    C6F12298   2.639   1.341  16.607  0.0005  0.3255  0.7791
  117OSM    H6F12299   2.678   1.444  16.626 -0.2552  0.3738  1.0496
  117OSM    H6G12300   2.551   1.349  16.540 -0.9275  1.1148  2.0584
  117OSM    C7F12301   2.751   1.265  16.523  0.1589  0.3588 -0.8991
  117OSM    H7F12302   2.762   1.317  16.426 -0.1840 -0.2746 -1.2855
  117OSM    H7G12303   2.717   1.162  16.498 -1.5000  0.7910 -0.5095
  117OSM    C8F12304   2.884   1.287  16.595 -0.3509  0.0213 -0.6602
  117OSM    H8F12305   2.869   1.246  16.697  1.3088  1.9738  0.4199
  117OSM    H8G12306   2.919   1.390  16.613  0.7121 -0.3191 -0.7411
  117OSM    C9F12307   2.994   1.212  16.527 -0.0505  0.3083 -0.0508
  117OSM    H9F12308   3.028   1.250  16.429 -1.2550  2.1898  0.1969
  117OSM   C10F12309   3.035   1.088  16.557 -0.2616 -0.8061  0.0223
  117OSM   H10F12310   3.124   1.050  16.506 -0.3718  0.2181 -0.9812
  117OSM   C11F12311   2.974   0.991  16.662  0.0785 -0.0150  0.1642
  117OSM   H11F12312   2.953   0.894  16.612  0.5108  0.8036 -1.6559
  117OSM   H11G12313   2.876   1.028  16.698  0.2859  1.5573 -0.8146
  117OSM   C12F12314   3.069   0.997  16.786  0.0441 -0.0542 -0.4201
  117OSM   H12F12315   3.171   0.963  16.759  1.4312  0.6169  3.3387
  117OSM   H12G12316   3.032   0.933  16.869 -1.7950  1.7909  0.2955
  117OSM   C13F12317   3.097   1.138  16.844 -0.0989 -0.0716  0.1026
  117OSM   H13F12318   2.999   1.180  16.877 -0.5245 -1.9156  1.3808
  117OSM   H13G12319   3.139   1.211  16.772  0.2478 -0.8995 -0.5463
  117OSM   C14F12320   3.193   1.123  16.963 -0.8705 -0.1429 -0.3075
  117OSM   H14F12321   3.155   1.044  17.031 -0.0180  2.8947  4.2102
  117OSM   H14G12322   3.183   1.209  17.033 -0.1916 -1.7537  1.8947
  117OSM   C15F12323   3.345   1.100  16.931 -0.3190 -0.3400  0.5860
  117OSM   H15F12324   3.385   1.179  16.864 -1.4837 -0.8366 -0.7383
  117OSM   H15G12325   3.366   1.000  16.887  1.1071 -0.5479  1.6617
  117OSM   C16F12326   3.414   1.085  17.064 -0.3894  0.3611  0.1807
  117OSM   H16F12327   3.350   1.021  17.128  1.0254 -0.5042  0.7671
  117OSM   H16G12328   3.395   1.179  17.121 -1.5098 -0.5289  1.3312
  117OSM   C17F12329   3.563   1.041  17.053  0.2549  0.3634  0.3715
  117OSM   H17F12330   3.597   1.085  16.956  0.2218 -1.6462 -0.6038
  117OSM   H17G12331   3.628   1.079  17.134  1.5084  0.6943 -0.7391
  117OSM   C18F12332   3.588   0.886  17.039 -0.7088 -0.8140 -0.3285
  117OSM   H18F12333   3.694   0.852  17.040 -1.1640 -2.3020 -0.5228
  117OSM   H18G12334   3.537   0.859  16.944 -3.4943  1.9186  0.2178
  117OSM   H18H12335   3.522   0.838  17.114 -1.3827  0.1742 -0.2709
  118OSM      N12336   1.396   3.648  17.077 -0.6005  0.3054 -0.4380
  118OSM    C1512337   1.472   3.771  17.109 -0.8120 -0.1481 -0.5555
  118OSM   H15A12338   1.406   3.851  17.140  1.9274  2.9636 -2.0457
  118OSM   H15B12339   1.516   3.815  17.020 -0.2870 -1.2435 -0.8529
  118OSM   H15C12340   1.557   3.753  17.174 -1.2373 -0.8019 -0.1755
  118OSM    C1412341   1.292   3.698  16.977  0.0064  0.1864 -0.2025
  118OSM   H14A12342   1.232   3.616  16.942 -0.0164  0.5640 -1.0815
  118OSM   H14B12343   1.344   3.722  16.886  1.2228  1.4858  0.7777
  118OSM   H14C12344   1.218   3.767  17.013 -0.3592 -0.2362 -0.1376
  118OSM    C1312345   1.492   3.552  17.011  0.3676  0.0298  0.9468
  118OSM   H13A12346   1.544   3.597  16.927  0.3415  0.2907  1.0700
  118OSM   H13B12347   1.446   3.459  16.980 -1.5688  1.7913 -2.0311
  118OSM   H13C12348   1.570   3.524  17.081 -0.1847  0.8158  1.8921
  118OSM    C1212349   1.344   3.585  17.207 -0.2130 -0.0213 -0.2510
  118OSM   H12A12350   1.302   3.660  17.272  0.6940  0.0803  0.2366
  118OSM   H12B12351   1.431   3.553  17.262 -0.7978  0.7158  1.1635
  118OSM    C1112352   1.243   3.474  17.205 -0.5219 -0.2810  0.0435
  118OSM   H11A12353   1.147   3.508  17.160 -0.8494  0.7982  1.4886
  118OSM   H11B12354   1.227   3.438  17.308  0.8022 -0.9291  0.0428
  118OSM      P12355   1.208   3.253  17.065 -0.3336  0.2869 -0.6158
  118OSM    O1312356   1.082   3.313  17.013 -0.6261 -0.4998 -0.0532
  118OSM    O1412357   1.286   3.173  16.965  0.6286 -0.4219 -0.5422
  118OSM    O1112358   1.163   3.156  17.175 -0.2754 -0.4633 -0.2288
  118OSM    O1212359   1.298   3.354  17.135 -0.2715  0.4848  0.9257
  118OSM    C1S12360   1.076   3.208  17.284  0.5032 -0.1041  0.3390
  118OSM    H1S12361   1.004   3.284  17.245 -2.1048 -1.6083  1.9444
  118OSM    H1T12362   1.148   3.262  17.350 -1.2052  1.4320  1.0142
  118OSM     NF12363   0.929   3.147  17.472  0.6320  0.9508  0.0577
  118OSM    HNF12364   0.983   3.143  17.556  1.2481  0.8928 -0.3410
  118OSM    C2S12365   1.002   3.095  17.359  0.4463  0.7573 -0.4084
  118OSM    H2S12366   0.922   3.057  17.292 -0.9176  2.9207 -0.0815
  118OSM    C3S12367   1.089   2.967  17.392 -0.1878  0.0396  1.3035
  118OSM    H3S12368   1.151   3.000  17.478 -0.4178  1.9222  0.7997
  118OSM     O312369   1.184   2.926  17.296 -0.1066 -0.0675  0.1642
  118OSM    HO312370   1.187   3.001  17.236 -1.6686 -0.9721 -1.1158
  118OSM    C4S12371   0.999   2.847  17.435  0.4605 -0.5838  0.2655
  118OSM    H4S12372   0.932   2.808  17.358  0.6574  0.0331 -0.2364
  118OSM    C5S12373   0.999   2.787  17.549 -0.6142  0.3105  0.2839
  118OSM    H5S12374   1.066   2.829  17.626  0.9644  1.9982 -1.8712
  118OSM    C6S12375   0.916   2.668  17.589 -0.0213 -0.1087 -0.0621
  118OSM    H6S12376   0.830   2.713  17.644 -2.0718 -1.5529 -1.8997
  118OSM    H6T12377   0.976   2.614  17.664 -1.7130 -0.5634  1.0242
  118OSM    C7S12378   0.856   2.580  17.485 -0.5923  0.4750  0.2547
  118OSM    H7S12379   0.942   2.548  17.422 -0.3538  2.1216 -0.3049
  118OSM    H7T12380   0.792   2.631  17.411 -0.6699 -0.2417 -0.1826
  118OSM    C8S12381   0.792   2.462  17.556 -0.3309 -0.1102  0.9029
  118OSM    H8S12382   0.715   2.501  17.626  0.9409  0.9782  1.7198
  118OSM    H8T12383   0.864   2.399  17.612  0.0032  0.9190  1.6367
  118OSM    C9S12384   0.746   2.372  17.445  0.6071 -0.2377 -0.2622
  118OSM    H9S12385   0.838   2.342  17.390  1.1987 -0.0241  0.5816
  118OSM    H9T12386   0.687   2.433  17.374 -0.8600 -0.1425  0.9967
  118OSM   C10S12387   0.662   2.248  17.484  0.0049  0.5623 -0.0591
  118OSM   H10S12388   0.722   2.182  17.551  1.0527  1.1104 -0.4273
  118OSM   H10T12389   0.645   2.186  17.394  0.7815 -0.6647  0.6021
  118OSM   C11S12390   0.528   2.279  17.556 -0.1816 -0.2074 -0.1600
  118OSM   H11S12391   0.452   2.316  17.484 -0.2915  1.9087  0.9586
  118OSM   H11T12392   0.538   2.360  17.631 -0.1124 -0.8576  0.5484
  118OSM   C12S12393   0.455   2.161  17.619 -0.6187  0.5282  0.1472
  118OSM   H12S12394   0.522   2.110  17.691 -0.3846 -0.1257 -0.5230
  118OSM   H12T12395   0.437   2.081  17.543  3.3236 -0.9791  0.5768
  118OSM   C13S12396   0.328   2.209  17.693 -0.8006 -0.2087  0.3786
  118OSM   H13S12397   0.248   2.232  17.619  1.6871  0.8512 -2.1531
  118OSM   H13T12398   0.361   2.288  17.763 -0.2829 -1.3782  1.5118
  118OSM   C14S12399   0.258   2.105  17.792  0.1926  0.1101 -0.4316
  118OSM   H14S12400   0.333   2.069  17.866  1.4844  2.4074 -0.5378
  118OSM   H14T12401   0.238   2.014  17.731  2.0791 -1.2151  0.8315
  118OSM   C15S12402   0.134   2.158  17.855  0.5707  0.3568 -0.1293
  118OSM   H15S12403   0.075   2.204  17.773 -0.0044  1.4178  0.8392
  118OSM   H15T12404   0.162   2.247  17.915  0.9381  0.9448 -1.1497
  118OSM   C16S12405   0.058   2.057  17.939  0.0724 -0.1918 -0.8971
  118OSM   H16S12406   0.014   1.980  17.872  1.7570 -0.9163 -1.2217
  118OSM   H16T12407  -0.029   2.108  17.985  0.4053  1.3587 -1.9378
  118OSM   C17S12408   0.135   1.990  18.052 -0.4039 -0.3845 -0.5107
  118OSM   H17S12409   0.184   2.067  18.116 -2.5790 -0.1388  0.9306
  118OSM   H17T12410   0.216   1.925  18.012 -0.4960 -1.3620  0.8235
  118OSM   C18S12411   0.046   1.901  18.139 -0.4118  0.1547 -0.2736
  118OSM   H18S12412   0.102   1.861  18.227 -1.0923  2.5182  1.3160
  118OSM   H18T12413   0.013   1.814  18.079  1.2146  0.1996 -1.2923
  118OSM   H18U12414  -0.049   1.946  18.174 -0.9448  0.2778 -1.7970
  118OSM    C1F12415   0.815   3.215  17.468  0.4937  1.1243 -1.0628
  118OSM     OF12416   0.759   3.225  17.355 -0.1369 -0.2051 -0.3644
  118OSM    C2F12417   0.749   3.264  17.596 -0.2642 -0.3184 -1.2412
  118OSM    H2F12418   0.820   3.324  17.657 -0.9275  1.0738 -1.8094
  118OSM    H2G12419   0.706   3.184  17.661  0.1877  0.5011  0.0979
  118OSM    C3F12420   0.625   3.352  17.564 -0.5679  0.2745 -0.7212
  118OSM    H3F12421   0.573   3.311  17.474 -1.4706 -1.6358  0.6081
  118OSM    H3G12422   0.652   3.457  17.540 -1.8880  0.7955  0.0034
  118OSM    C4F12423   0.520   3.355  17.675 -0.5446  0.3022  0.8377
  118OSM    H4F12424   0.552   3.371  17.780  2.2139 -0.2936  0.1799
  118OSM    H4G12425   0.469   3.256  17.676 -0.6683  0.3246 -0.7158
  118OSM    C5F12426   0.423   3.466  17.633  0.1366 -0.2836  0.2112
  118OSM    H5F12427   0.401   3.452  17.525  0.2376 -2.4602  0.4331
  118OSM    H5G12428   0.459   3.571  17.636 -1.2770  0.2768 -0.8773
  118OSM    C6F12429   0.283   3.459  17.707 -0.4190  0.3799 -0.3878
  118OSM    H6F12430   0.245   3.354  17.701 -0.2061  0.3474 -1.3047
  118OSM    H6G12431   0.216   3.519  17.641 -1.0090  0.2761  0.1057
  118OSM    C7F12432   0.280   3.494  17.858  0.0795  0.1116 -0.4056
  118OSM    H7F12433   0.346   3.582  17.872  0.9368 -0.9517  3.2300
  118OSM    H7G12434   0.326   3.408  17.912  1.7542  1.0001 -0.3321
  118OSM    C8F12435   0.139   3.529  17.914  0.1983 -0.8467  0.0595
  118OSM    H8F12436   0.150   3.540  18.024  0.7777 -3.7344  0.3654
  118OSM    H8G12437   0.071   3.442  17.898  0.9145 -2.0656  2.9488
  118OSM    C9F12438   0.066   3.660  17.855 -0.0838  0.1885  0.0556
  118OSM    H9F12439   0.127   3.750  17.867  0.7033 -0.0530 -1.7913
  118OSM   C10F12440  -0.053   3.660  17.787  0.1650  0.5836  0.3941
  118OSM   H10F12441  -0.082   3.755  17.740 -0.5282 -0.3846 -1.2129
  118OSM   C11F12442  -0.150   3.551  17.750  0.2509  0.1703  0.9405
  118OSM   H11F12443  -0.164   3.470  17.825  2.5009 -0.5659  0.6238
  118OSM   H11G12444  -0.121   3.508  17.652 -2.0913  1.7247 -0.5532
  118OSM   C12F12445  -0.285   3.610  17.724  0.0911  0.6625 -0.1431
  118OSM   H12F12446  -0.288   3.664  17.628 -0.6364 -1.2409 -1.2438
  118OSM   H12G12447  -0.326   3.667  17.811  0.2729  0.0699  0.3409
  118OSM   C13F12448  -0.400   3.504  17.706 -0.4139 -0.6932 -0.9598
  118OSM   H13F12449  -0.398   3.446  17.801  3.3073 -1.1184 -1.1478
  118OSM   H13G12450  -0.375   3.420  17.638  0.3861 -2.5411  1.4532
  118OSM   C14F12451  -0.528   3.578  17.680 -0.1608 -0.3693 -0.6772
  118OSM   H14F12452  -0.519   3.626  17.580  0.4097  0.6903 -0.1364
  118OSM   H14G12453  -0.554   3.651  17.759  0.7570 -0.8907  0.1223
  118OSM   C15F12454  -0.653   3.481  17.684 -0.7180 -0.5353  0.4902
  118OSM   H15F12455  -0.660   3.440  17.787  1.9780  0.9676  1.3613
  118OSM   H15G12456  -0.635   3.387  17.627 -1.7977 -0.3071 -0.2780
  118OSM   C16F12457  -0.790   3.546  17.649 -0.2494  0.1211  0.7016
  118OSM   H16F12458  -0.799   3.591  17.547  2.2498 -1.6185 -0.3712
  118OSM   H16G12459  -0.792   3.637  17.713 -1.9729  0.7700 -0.2063
  118OSM   C17F12460  -0.913   3.461  17.686  0.3573  0.8515  0.0563
  118OSM   H17F12461  -0.999   3.529  17.700 -0.4514 -0.2446  0.5528
  118OSM   H17G12462  -0.890   3.414  17.784 -1.3584 -0.5299 -0.1471
  118OSM   C18F12463  -0.940   3.357  17.586  1.0907  0.4799 -0.5216
  118OSM   H18F12464  -0.848   3.296  17.575  2.2911  2.2961 -1.0692
  118OSM   H18G12465  -0.973   3.401  17.490 -0.4296  1.5706  0.4520
  118OSM   H18H12466  -1.024   3.292  17.619 -0.2472 -0.0386 -4.4479
  119OSM      N12467   1.076   3.286  16.555 -0.3395 -0.1201 -0.1254
  119OSM    C1512468   1.113   3.356  16.423  0.5387  0.2234 -1.0328
  119OSM   H15A12469   1.036   3.431  16.416  1.2216  1.3948  1.9523
  119OSM   H15B12470   1.111   3.294  16.335 -1.2796  0.6414 -1.3112
  119OSM   H15C12471   1.208   3.409  16.424  1.5810 -1.5253 -2.2434
  119OSM    C1412472   0.930   3.251  16.537  0.0230 -0.0216  0.2095
  119OSM   H14A12473   0.887   3.213  16.629 -0.4121  0.4709  0.2121
  119OSM   H14B12474   0.926   3.169  16.466  1.0616  0.3167 -0.2426
  119OSM   H14C12475   0.867   3.333  16.508 -0.2869 -0.9066 -1.7494
  119OSM    C1312476   1.156   3.161  16.563 -0.4115 -0.7244 -1.0595
  119OSM   H13A12477   1.256   3.190  16.588 -0.7587  1.0657 -1.6221
  119OSM   H13B12478   1.157   3.105  16.470 -0.8058  1.1005 -2.2061
  119OSM   H13C12479   1.127   3.096  16.645  0.4202 -2.8911 -2.3878
  119OSM    C1212480   1.083   3.378  16.680  0.2836  0.0051  0.2939
  119OSM   H12A12481   1.048   3.316  16.760 -0.9790  0.0891 -0.1699
  119OSM   H12B12482   1.014   3.457  16.655 -1.7697 -2.2354 -1.6276
  119OSM    C1112483   1.218   3.438  16.718 -0.2670 -0.1420  0.3920
  119OSM   H11A12484   1.289   3.353  16.706 -0.7810 -0.7619  1.5347
  119OSM   H11B12485   1.230   3.465  16.825 -0.1380 -1.5365  0.7444
  119OSM      P12486   1.192   3.686  16.627  0.1158 -0.2860  0.2264
  119OSM    O1312487   1.309   3.749  16.692  0.4625 -0.2284 -0.1050
  119OSM    O1412488   1.145   3.736  16.495 -0.1118  0.2541 -0.9124
  119OSM    O1112489   1.073   3.684  16.731 -0.0162  0.4818 -0.7309
  119OSM    O1212490   1.242   3.535  16.611  0.2920  0.9601  0.0218
  119OSM    C1S12491   0.935   3.671  16.697 -0.3090  0.2742 -0.6621
  119OSM    H1S12492   0.919   3.585  16.627 -2.4272  0.7804 -0.8724
  119OSM    H1T12493   0.914   3.758  16.632  3.1363  0.8422 -1.2177
  119OSM     NF12494   0.707   3.610  16.775  0.4970  0.0808 -0.0708
  119OSM    HNF12495   0.624   3.664  16.786  0.1258 -0.7368  1.5673
  119OSM    C2S12496   0.837   3.663  16.818 -0.0357 -0.3122 -0.5560
  119OSM    H2S12497   0.887   3.585  16.879 -1.4572 -0.9713 -0.1840
  119OSM    C3S12498   0.844   3.793  16.906  0.1399 -0.6305 -0.0441
  119OSM    H3S12499   0.811   3.875  16.838 -0.5485 -0.5406  0.3900
  119OSM     O312500   0.978   3.822  16.943  0.0410 -0.3718  0.0996
  119OSM    HO312501   1.028   3.765  16.883 -1.4751 -3.0470  1.1984
  119OSM    C4S12502   0.758   3.785  17.033  0.4773 -0.4777  0.4281
  119OSM    H4S12503   0.764   3.695  17.096 -2.4398  1.7359  4.3047
  119OSM    C5S12504   0.662   3.868  17.084  0.6210 -0.3460 -0.5146
  119OSM    H5S12505   0.645   3.958  17.023  0.6957 -0.2110 -0.3386
  119OSM    C6S12506   0.572   3.844  17.207 -0.0750 -0.7334 -0.0811
  119OSM    H6S12507   0.536   3.942  17.243  1.2483  0.5208 -1.9751
  119OSM    H6T12508   0.632   3.807  17.293 -1.8894  1.3633  2.2261
  119OSM    C7S12509   0.448   3.754  17.180  0.9041  0.1062  1.3671
  119OSM    H7S12510   0.487   3.665  17.127  2.6871  2.0740 -0.8235
  119OSM    H7T12511   0.371   3.802  17.115 -0.4633 -0.3891  2.5441
  119OSM    C8S12512   0.388   3.718  17.313 -0.4896 -0.4115  0.6265
  119OSM    H8S12513   0.344   3.807  17.362  1.0264  1.1323 -0.7027
  119OSM    H8T12514   0.462   3.671  17.381  1.5559  1.7567  0.0279
  119OSM    C9S12515   0.268   3.615  17.304  0.2571 -0.2500 -0.0228
  119OSM    H9S12516   0.182   3.658  17.248 -1.6066 -0.8535  2.2050
  119OSM    H9T12517   0.240   3.598  17.411  2.3196 -0.6130  0.5019
  119OSM   C10S12518   0.301   3.477  17.249 -0.0007  0.2001 -0.4038
  119OSM   H10S12519   0.392   3.444  17.302  0.2526  0.9386 -0.3628
  119OSM   H10T12520   0.337   3.493  17.145  1.8174 -0.4901  0.0851
  119OSM   C11S12521   0.200   3.360  17.253  0.0970 -0.1608  0.1832
  119OSM   H11S12522   0.248   3.263  17.228  0.9386  0.8292 -2.4502
  119OSM   H11T12523   0.127   3.381  17.171  1.0191 -1.0057 -0.8956
  119OSM   C12S12524   0.128   3.343  17.386  0.0801 -0.2289  0.0211
  119OSM   H12S12525   0.098   3.444  17.421  2.1573  0.1305  0.8610
  119OSM   H12T12526   0.207   3.315  17.459  0.2692  1.0213  0.3167
  119OSM   C13S12527   0.011   3.238  17.383  0.2059 -0.2903 -0.5071
  119OSM   H13S12528   0.048   3.153  17.322 -0.6286  0.0432 -1.5138
  119OSM   H13T12529  -0.075   3.290  17.334 -1.9767  0.7929  3.9153
  119OSM   C14S12530  -0.025   3.187  17.524 -0.2900  0.1801 -0.2274
  119OSM   H14S12531  -0.054   3.282  17.572  2.0090 -0.5803  2.9713
  119OSM   H14T12532   0.063   3.151  17.581 -0.6620  1.3837  1.1568
  119OSM   C15S12533  -0.136   3.088  17.513 -0.3272 -0.4212  0.1638
  119OSM   H15S12534  -0.097   2.998  17.460 -1.0619 -0.9438  0.4812
  119OSM   H15T12535  -0.219   3.130  17.453 -0.4006  2.0210  1.8300
  119OSM   C16S12536  -0.195   3.050  17.650 -0.3506  0.0076 -0.0258
  119OSM   H16S12537  -0.228   3.142  17.703 -1.6962 -0.8052  0.5961
  119OSM   H16T12538  -0.114   3.002  17.709 -2.9168 -1.3546  2.6607
  119OSM   C17S12539  -0.317   2.958  17.632  0.0332 -0.0361 -0.8451
  119OSM   H17S12540  -0.339   2.911  17.730 -0.3609  0.9218 -0.4652
  119OSM   H17T12541  -0.274   2.882  17.562  0.6825 -0.4106 -0.0593
  119OSM   C18S12542  -0.452   3.024  17.583 -0.3517 -0.6828  0.2253
  119OSM   H18S12543  -0.534   2.953  17.559 -1.7500  0.8841  0.1036
  119OSM   H18T12544  -0.432   3.082  17.490  0.2526 -1.2630 -0.0088
  119OSM   H18U12545  -0.483   3.102  17.656  1.6476 -0.8786  1.3325
  119OSM    C1F12546   0.687   3.485  16.730 -0.1438 -0.0184 -0.1925
  119OSM     OF12547   0.783   3.409  16.751  0.0709 -0.3116 -1.2157
  119OSM    C2F12548   0.563   3.451  16.660 -0.6357 -0.2809 -0.0258
  119OSM    H2F12549   0.588   3.432  16.553  1.3468  2.0105 -0.0384
  119OSM    H2G12550   0.487   3.532  16.664  0.0301  0.2963  1.7231
  119OSM    C3F12551   0.495   3.335  16.737 -0.2586 -0.4780 -0.0252
  119OSM    H3F12552   0.490   3.344  16.847  1.8151 -1.8521  0.2291
  119OSM    H3G12553   0.556   3.244  16.721  0.5423  0.2786 -1.5777
  119OSM    C4F12554   0.356   3.294  16.681  0.0175  0.1631 -0.1834
  119OSM    H4F12555   0.357   3.307  16.571 -0.3828  0.5362 -0.1459
  119OSM    H4G12556   0.295   3.379  16.719 -0.7822 -0.2333 -0.5736
  119OSM    C5F12557   0.300   3.167  16.742  0.0162  0.4329  0.3209
  119OSM    H5F12558   0.348   3.080  16.692 -0.6648 -0.0495  0.4887
  119OSM    H5G12559   0.194   3.137  16.726  0.5934 -0.6680 -1.8339
  119OSM    C6F12560   0.344   3.135  16.885  0.4768 -0.0628  0.3182
  119OSM    H6F12561   0.325   3.232  16.935 -0.2436 -0.1856  0.2929
  119OSM    H6G12562   0.453   3.117  16.891  0.3917 -0.5634  0.3764
  119OSM    C7F12563   0.259   3.032  16.958 -0.7615  0.3398 -0.7037
  119OSM    H7F12564   0.150   3.047  16.945 -0.9149  1.4978  1.4245
  119OSM    H7G12565   0.283   3.052  17.065  2.9098 -0.1694 -1.2835
  119OSM    C8F12566   0.296   2.883  16.939  0.2755  0.3264  0.0320
  119OSM    H8F12567   0.227   2.827  17.006  1.8472 -0.0731  1.3831
  119OSM    H8G12568   0.394   2.873  16.990 -0.5725  0.3604  1.7650
  119OSM    C9F12569   0.300   2.837  16.794  0.3539 -0.1764 -0.6722
  119OSM    H9F12570   0.402   2.855  16.757  0.7350 -2.4441 -0.8704
  119OSM   C10F12571   0.220   2.750  16.729  0.7193 -0.3499  0.2128
  119OSM   H10F12572   0.241   2.733  16.622  1.1855  0.0961  0.2268
  119OSM   C11F12573   0.084   2.690  16.764 -0.2981 -0.7324  0.2022
  119OSM   H11F12574   0.069   2.672  16.873  0.9868 -2.4220  0.1379
  119OSM   H11G12575   0.082   2.585  16.726  0.0688 -0.4000 -0.7462
  119OSM   C12F12576  -0.025   2.782  16.710 -0.4515 -0.8445  0.5371
  119OSM   H12F12577  -0.011   2.786  16.600  2.9705 -0.3389  0.8902
  119OSM   H12G12578  -0.016   2.884  16.751  0.7318 -0.7536  0.1109
  119OSM   C13F12579  -0.168   2.747  16.746  0.2332 -0.1369  0.2497
  119OSM   H13F12580  -0.178   2.732  16.855 -1.1047  0.2120  0.1952
  119OSM   H13G12581  -0.187   2.648  16.699  5.1041 -1.6977  1.0447
  119OSM   C14F12582  -0.262   2.868  16.718  0.9442 -0.2377 -0.0267
  119OSM   H14F12583  -0.235   2.945  16.793  0.8524  0.9665 -1.1944
  119OSM   H14G12584  -0.368   2.838  16.734  0.6169 -0.3543 -2.1960
  119OSM   C15F12585  -0.260   2.936  16.580 -0.0713 -1.1848 -0.2709
  119OSM   H15F12586  -0.293   2.857  16.509 -0.3901  0.3808 -1.9206
  119OSM   H15G12587  -0.156   2.968  16.559 -0.2353 -1.9694 -2.5555
  119OSM   C16F12588  -0.354   3.062  16.580  0.6785  0.6637 -0.1656
  119OSM   H16F12589  -0.309   3.126  16.660  3.0098 -0.3018 -0.6202
  119OSM   H16G12590  -0.459   3.041  16.607  1.3831 -1.6283  1.0825
  119OSM   C17F12591  -0.365   3.143  16.452 -0.1556  0.0711  0.5556
  119OSM   H17F12592  -0.269   3.193  16.426 -0.9852  1.4856  0.0961
  119OSM   H17G12593  -0.440   3.219  16.480 -0.9967 -1.4735  2.7950
  119OSM   C18F12594  -0.421   3.067  16.333  0.4529 -1.1911 -0.3153
  119OSM   H18F12595  -0.425   3.132  16.243 -0.4912 -1.3137 -0.3763
  119OSM   H18G12596  -0.522   3.025  16.352 -0.0143  0.2436  0.4618
  119OSM   H18H12597  -0.361   2.977  16.305  0.6960 -1.0863 -0.1286
  120OSM      N12598   1.203   1.652  16.918 -0.1494 -0.0812  0.2338
  120OSM    C1512599   1.286   1.557  16.838  0.1755  0.4271 -0.2075
  120OSM   H15A12600   1.366   1.604  16.784  0.2350  2.1984  1.3021
  120OSM   H15B12601   1.238   1.489  16.769  0.2545  2.2151 -2.1164
  120OSM   H15C12602   1.335   1.498  16.914 -0.9536 -0.6757 -0.2844
  120OSM    C1412603   1.087   1.580  16.982  0.4946 -0.5552  0.4690
  120OSM   H14A12604   1.118   1.501  17.049  1.6262 -1.2835 -0.8533
  120OSM   H14B12605   1.012   1.548  16.911 -0.1180  1.0647  0.3534
  120OSM   H14C12606   1.036   1.647  17.049  0.5110  0.0465 -0.1135
  120OSM    C1312607   1.287   1.703  17.033  0.0165 -0.2827 -0.8849
  120OSM   H13A12608   1.375   1.753  16.993  1.4228 -0.3226  1.9113
  120OSM   H13B12609   1.316   1.623  17.099 -2.5868 -0.4642  0.1485
  120OSM   H13C12610   1.233   1.767  17.100 -0.6694  1.7081 -3.1769
  120OSM    C1212611   1.149   1.771  16.831 -0.4513  0.2950 -0.7389
  120OSM   H12A12612   1.083   1.829  16.894 -1.3282 -0.8001 -0.6141
  120OSM   H12B12613   1.081   1.734  16.756  0.5000  1.3832 -2.2005
  120OSM    C1112614   1.255   1.856  16.754  0.4861  0.5696  0.0978
  120OSM   H11A12615   1.354   1.807  16.763 -0.3442 -1.0014  1.1697
  120OSM   H11B12616   1.261   1.952  16.809 -1.0859  1.1153 -0.6166
  120OSM      P12617   1.176   2.013  16.562 -0.0403 -0.1546  0.2840
  120OSM    O1312618   1.293   2.103  16.578 -0.4113 -0.3475 -0.1533
  120OSM    O1412619   1.124   1.992  16.426  0.2562  0.2282 -0.1846
  120OSM    O1112620   1.063   2.044  16.663 -0.0507 -0.3474  0.2776
  120OSM    O1212621   1.226   1.870  16.613  0.2292 -0.0442 -0.0554
  120OSM    C1S12622   0.991   2.165  16.665 -0.0422 -0.0877  0.3147
  120OSM    H1S12623   0.952   2.178  16.561  0.2586 -2.6592 -0.1953
  120OSM    H1T12624   1.055   2.252  16.691 -1.7021  1.2564  0.0813
  120OSM     NF12625   0.806   2.299  16.742  0.1624  0.1142 -0.0984
  120OSM    HNF12626   0.840   2.384  16.781  0.0310 -0.5034  1.4452
  120OSM    C2S12627   0.873   2.173  16.766 -1.2068 -0.5612  0.0668
  120OSM    H2S12628   0.806   2.087  16.748 -3.5742  1.5519 -1.8669
  120OSM    C3S12629   0.930   2.146  16.905 -0.5744  0.1237  0.1185
  120OSM    H3S12630   0.992   2.235  16.927 -2.0070  0.8399  1.5022
  120OSM     O312631   1.006   2.024  16.917 -0.9261 -1.1252 -0.2205
  120OSM    HO312632   1.038   2.011  16.828  0.4784  0.4317 -0.0077
  120OSM    C4S12633   0.820   2.158  17.003  0.0418  0.1010  0.1936
  120OSM    H4S12634   0.822   2.253  17.060  2.9931  1.2119 -1.4923
  120OSM    C5S12635   0.741   2.057  17.036  0.5071  0.2432  0.4121
  120OSM    H5S12636   0.737   1.963  16.980  0.5972  1.7572 -2.3025
  120OSM    C6S12637   0.642   2.070  17.145  0.2285 -0.1861 -0.5015
  120OSM    H6S12638   0.637   2.174  17.183  1.4105 -0.6315  0.9641
  120OSM    H6T12639   0.671   2.020  17.240 -0.3870  0.6550  0.1446
  120OSM    C7S12640   0.504   2.031  17.099  0.3442  0.3110 -0.2269
  120OSM    H7S12641   0.505   1.931  17.050  1.0431  0.3235 -0.2574
  120OSM    H7T12642   0.458   2.101  17.027 -1.9996 -0.5855  0.3189
  120OSM    C8S12643   0.416   2.024  17.224  0.0247 -0.3584  0.1243
  120OSM    H8S12644   0.399   2.130  17.253 -0.2023 -1.1225  3.0900
  120OSM    H8T12645   0.474   1.969  17.302 -0.2244  0.8896  1.2357
  120OSM    C9S12646   0.281   1.959  17.206  0.2596 -0.9107 -0.0370
  120OSM    H9S12647   0.242   1.990  17.107  0.5280 -1.5311 -0.3428
  120OSM    H9T12648   0.207   2.004  17.276  3.2408  0.5213  2.4353
  120OSM   C10S12649   0.291   1.803  17.224  0.3258 -0.3327 -0.2779
  120OSM   H10S12650   0.380   1.769  17.167  2.5748  2.9513  0.9401
  120OSM   H10T12651   0.200   1.763  17.175 -0.0672 -0.6662  0.7143
  120OSM   C11S12652   0.290   1.772  17.373  0.0192 -0.3402 -0.3874
  120OSM   H11S12653   0.185   1.781  17.408 -0.3523  2.7998 -1.9290
  120OSM   H11T12654   0.358   1.838  17.430 -0.4309 -2.3409  2.6732
  120OSM   C12S12655   0.341   1.624  17.386  0.8664 -0.5080 -0.2908
  120OSM   H12S12656   0.449   1.629  17.365  0.7021  2.2395 -0.7990
  120OSM   H12T12657   0.296   1.558  17.309  1.2667  0.7287 -1.6086
  120OSM   C13S12658   0.308   1.567  17.526 -0.6165 -0.2002 -0.0486
  120OSM   H13S12659   0.291   1.655  17.592  1.7035 -0.3067  0.7624
  120OSM   H13T12660   0.398   1.517  17.568 -1.8751 -1.3167  1.4644
  120OSM   C14S12661   0.194   1.466  17.516 -0.5378  0.0620 -0.0569
  120OSM   H14S12662   0.235   1.376  17.464 -0.7827 -1.3165  1.9906
  120OSM   H14T12663   0.121   1.515  17.449 -2.7536  0.4126  2.4507
  120OSM   C15S12664   0.130   1.431  17.650 -0.2421 -0.1654 -0.7709
  120OSM   H15S12665   0.207   1.397  17.723 -0.2682  0.7019 -0.3277
  120OSM   H15T12666   0.051   1.353  17.644 -1.2369  0.5960  1.2600
  120OSM   C16S12667   0.070   1.546  17.730 -0.2088  1.0259 -0.2956
  120OSM   H16S12668   0.133   1.636  17.749  0.4955  0.6209 -0.7107
  120OSM   H16T12669   0.058   1.503  17.832  1.6174  0.1385 -0.4226
  120OSM   C17S12670  -0.062   1.596  17.680 -0.3779 -0.2255 -0.5096
  120OSM   H17S12671  -0.118   1.504  17.651  0.3350 -2.2414  3.6332
  120OSM   H17T12672  -0.046   1.664  17.594  3.2922  0.2672  0.4212
  120OSM   C18S12673  -0.134   1.683  17.780 -0.1881 -0.1478 -0.1829
  120OSM   H18S12674  -0.068   1.761  17.823 -1.6108  0.0559  1.7922
  120OSM   H18T12675  -0.161   1.628  17.873  1.0156  0.8164  0.7790
  120OSM   H18U12676  -0.231   1.720  17.742  0.3703 -0.4158 -1.9541
  120OSM    C1F12677   0.709   2.309  16.645  0.2412  0.2392  0.5956
  120OSM     OF12678   0.669   2.207  16.581  0.3703 -0.0765 -0.4400
  120OSM    C2F12679   0.655   2.448  16.622  0.4051 -0.6570 -0.0584
  120OSM    H2F12680   0.577   2.435  16.543  1.7547  0.2934 -1.6151
  120OSM    H2G12681   0.726   2.515  16.569 -0.2748  0.3027  0.1990
  120OSM    C3F12682   0.598   2.518  16.745 -0.5984  0.4099 -0.0196
  120OSM    H3F12683   0.568   2.621  16.716  2.2119  0.8283 -1.8201
  120OSM    H3G12684   0.674   2.528  16.825 -0.7399 -1.5891  0.4124
  120OSM    C4F12685   0.486   2.443  16.809  0.4138 -0.1859 -0.0750
  120OSM    H4F12686   0.517   2.340  16.834  0.2329  0.2553  2.1738
  120OSM    H4G12687   0.404   2.437  16.734 -0.2286 -0.5586  0.6430
  120OSM    C5F12688   0.447   2.513  16.944 -0.4739 -0.2390 -0.5997
  120OSM    H5F12689   0.378   2.597  16.921 -2.7504 -1.4197  1.4189
  120OSM    H5G12690   0.541   2.539  16.997 -0.7012 -0.3957 -0.1117
  120OSM    C6F12691   0.393   2.412  17.043  0.5037  0.2047 -0.0035
  120OSM    H6F12692   0.475   2.377  17.110  1.2923  0.2586 -0.9257
  120OSM    H6G12693   0.345   2.323  16.997  0.9792  0.1343 -0.3708
  120OSM    C7F12694   0.283   2.489  17.115  0.1826  0.5088  0.3169
  120OSM    H7F12695   0.221   2.529  17.032 -0.8558 -0.1296  0.7690
  120OSM    H7G12696   0.314   2.576  17.176 -1.9759  1.1294  0.5890
  120OSM    C8F12697   0.207   2.401  17.222 -0.1204  0.3743  0.6210
  120OSM    H8F12698   0.130   2.461  17.274 -0.7638  0.1989 -0.1125
  120OSM    H8G12699   0.280   2.382  17.304  0.1475 -0.6521  0.1635
  120OSM    C9F12700   0.156   2.266  17.177  0.0277 -0.1617  0.4978
  120OSM    H9F12701   0.233   2.215  17.118  1.5323  1.5286  0.9164
  120OSM   C10F12702   0.036   2.207  17.196 -0.3189 -0.5124  0.0975
  120OSM   H10F12703   0.032   2.104  17.157  2.8096 -0.5903 -0.2840
  120OSM   C11F12704  -0.084   2.255  17.266  0.1715 -0.3462 -0.0364
  120OSM   H11F12705  -0.164   2.290  17.198  0.7811 -1.5186 -1.4371
  120OSM   H11G12706  -0.071   2.348  17.324 -0.5324  0.6705 -1.4706
  120OSM   C12F12707  -0.147   2.150  17.359 -0.1072  0.5169  0.3917
  120OSM   H12F12708  -0.151   2.049  17.314  1.3527  1.1371 -1.2744
  120OSM   H12G12709  -0.251   2.185  17.378 -0.1288  0.4583  0.3798
  120OSM   C13F12710  -0.069   2.136  17.487 -0.1605  0.6379 -0.2297
  120OSM   H13F12711  -0.051   2.236  17.531  2.3244 -0.5768  1.8097
  120OSM   H13G12712   0.032   2.092  17.469 -0.9114 -1.9544  1.3869
  120OSM   C14F12713  -0.136   2.053  17.595  0.0737  0.4325 -0.2344
  120OSM   H14F12714  -0.076   2.063  17.688  0.2868 -0.6903 -0.2362
  120OSM   H14G12715  -0.135   1.945  17.571  1.5164 -0.4317  3.1838
  120OSM   C15F12716  -0.277   2.091  17.631 -0.0576  0.6190 -0.1105
  120OSM   H15F12717  -0.348   2.082  17.546  1.3811 -1.4231 -1.1713
  120OSM   H15G12718  -0.270   2.201  17.646  1.2651  0.7842 -1.6371
  120OSM   C16F12719  -0.324   2.014  17.754  0.3802 -1.1907  0.4127
  120OSM   H16F12720  -0.249   2.024  17.836 -0.4507  1.5787  0.9650
  120OSM   H16G12721  -0.331   1.906  17.730  0.3788 -0.9403 -0.7523
  120OSM   C17F12722  -0.463   2.056  17.811  0.2867 -0.6598  0.4395
  120OSM   H17F12723  -0.550   2.027  17.747 -0.2854  1.6338  0.0667
  120OSM   H17G12724  -0.467   2.166  17.827 -0.2563 -0.2225 -2.1451
  120OSM   C18F12725  -0.485   1.986  17.947  0.2589 -0.2149 -0.1843
  120OSM   H18F12726  -0.594   1.964  17.956 -0.4539  2.6736 -0.5367
  120OSM   H18G12727  -0.465   2.058  18.030 -0.7268  1.9630 -1.7385
  120OSM   H18H12728  -0.425   1.895  17.967  1.4710  0.7689  0.9033
  121OSM      N12729   2.152   3.661  18.921 -0.1205  0.1608 -0.8648
  121OSM    C1512730   2.223   3.534  18.957  0.0072  0.3226  0.0575
  121OSM   H15A12731   2.279   3.547  19.049 -0.4162  0.5152  0.2920
  121OSM   H15B12732   2.287   3.516  18.873 -0.5601 -1.4017 -0.0420
  121OSM   H15C12733   2.151   3.454  18.966 -1.6844  1.9624  2.5670
  121OSM    C1412734   2.255   3.770  18.898  0.9345  0.3745  0.0574
  121OSM   H14A12735   2.205   3.857  18.858  2.9903 -0.1293 -4.1304
  121OSM   H14B12736   2.324   3.740  18.821  0.6552  2.5626 -1.1176
  121OSM   H14C12737   2.310   3.788  18.989  1.4197  0.2522 -0.2133
  121OSM    C1312738   2.082   3.638  18.794  0.4671 -0.7555  0.0040
  121OSM   H13A12739   2.052   3.734  18.755  1.0130 -1.2313 -1.6430
  121OSM   H13B12740   1.994   3.580  18.818 -0.4870  2.0803  4.6253
  121OSM   H13C12741   2.150   3.596  18.722 -1.2570 -0.9994 -1.5433
  121OSM    C1212742   2.050   3.694  19.029 -0.4631 -0.8869  0.1568
  121OSM   H12A12743   1.976   3.617  19.017  0.0707 -1.2680 -0.7719
  121OSM   H12B12744   2.002   3.790  19.014  0.1075 -0.2327  2.1734
  121OSM    C1112745   2.094   3.707  19.177  0.5946  0.7593 -0.6903
  121OSM   H11A12746   2.132   3.612  19.221 -2.1920  0.1866  0.6922
  121OSM   H11B12747   1.994   3.727  19.221 -0.6929  0.0984 -3.1106
  121OSM      P12748   2.186   3.935  19.287 -0.5002  0.4090  0.0255
  121OSM    O1312749   2.317   3.964  19.344 -0.3126 -0.2691 -0.3303
  121OSM    O1412750   2.135   4.037  19.200  0.5854 -0.0153  0.2537
  121OSM    O1112751   2.079   3.900  19.399 -0.2144  0.8035 -0.1419
  121OSM    O1212752   2.199   3.802  19.197 -0.4098 -0.3098 -0.1331
  121OSM    C1S12753   2.118   3.805  19.500 -0.9521 -0.4426  0.5147
  121OSM    H1S12754   2.204   3.840  19.561 -1.3243 -0.6102  1.1457
  121OSM    H1T12755   2.159   3.712  19.455 -0.3539 -1.2292  2.5717
  121OSM     NF12756   2.043   3.670  19.679 -0.1738  0.2915  0.6850
  121OSM    HNF12757   2.022   3.574  19.659  1.6425 -0.2719  1.2925
  121OSM    C2S12758   2.001   3.768  19.582 -0.6647  0.2529  0.0797
  121OSM    H2S12759   1.975   3.860  19.638 -2.5090 -0.3660  0.3220
  121OSM    C3S12760   1.875   3.730  19.500  0.0429  0.1462 -0.2228
  121OSM    H3S12761   1.892   3.640  19.437 -2.5334 -0.3145 -0.3657
  121OSM     O312762   1.829   3.820  19.404 -0.0866 -0.6261 -0.0961
  121OSM    HO312763   1.907   3.868  19.377  0.0498 -0.3470  0.7526
  121OSM    C4S12764   1.756   3.687  19.586 -0.1126 -0.3312  0.9472
  121OSM    H4S12765   1.731   3.579  19.584 -0.3139 -0.2731 -0.6802
  121OSM    C5S12766   1.661   3.761  19.645  0.0489  0.6716  0.1787
  121OSM    H5S12767   1.666   3.870  19.643 -0.5479  0.7075  0.5212
  121OSM    C6S12768   1.547   3.701  19.705  0.5531 -0.0302 -0.0375
  121OSM    H6S12769   1.561   3.674  19.812  0.1988  0.1011  0.0434
  121OSM    H6T12770   1.523   3.603  19.657  0.7195 -0.3765  0.5752
  121OSM    C7S12771   1.419   3.790  19.696  0.5005  0.1036  0.3151
  121OSM    H7S12772   1.427   3.884  19.755  0.8518  0.4590 -0.2856
  121OSM    H7T12773   1.333   3.734  19.739  0.6417 -0.7695 -0.5111
  121OSM    C8S12774   1.362   3.825  19.557 -0.5994  0.0127  0.8098
  121OSM    H8S12775   1.372   3.732  19.498 -0.5270  0.5937 -0.1039
  121OSM    H8T12776   1.420   3.908  19.513  0.9625 -2.3984 -2.0811
  121OSM    C9S12777   1.213   3.865  19.559 -0.3322 -0.1155 -0.5302
  121OSM    H9S12778   1.203   3.956  19.623 -0.9146 -0.3406 -0.2967
  121OSM    H9T12779   1.162   3.782  19.612 -1.0885  1.4697  1.3559
  121OSM   C10S12780   1.162   3.904  19.423  0.0486  0.3708 -0.6128
  121OSM   H10S12781   1.173   3.823  19.348 -0.6272 -2.2323  1.9354
  121OSM   H10T12782   1.228   3.982  19.380 -0.2191  0.1083 -1.5238
  121OSM   C11S12783   1.015   3.949  19.417 -0.3170 -0.1158 -0.7311
  121OSM   H11S12784   1.000   3.981  19.311  0.1860 -1.6788 -1.3001
  121OSM   H11T12785   1.004   4.045  19.472 -2.8040  0.3230 -1.8666
  121OSM   C12S12786   0.916   3.836  19.457 -0.2309  0.0514 -0.6395
  121OSM   H12S12787   0.925   3.812  19.565 -2.2957 -0.0409 -0.4460
  121OSM   H12T12788   0.930   3.744  19.397 -0.2078 -1.1708  1.1779
  121OSM   C13S12789   0.778   3.888  19.447 -0.0819 -0.4345  0.0438
  121OSM   H13S12790   0.746   3.878  19.342  0.7371  2.7875 -0.6264
  121OSM   H13T12791   0.775   3.996  19.475 -1.4216 -0.4661  0.1132
  121OSM   C14S12792   0.677   3.823  19.536 -0.3942 -0.3349 -0.4754
  121OSM   H14S12793   0.689   3.712  19.540  2.2198 -0.1171 -0.5770
  121OSM   H14T12794   0.577   3.856  19.503 -1.1929 -2.9119 -0.8512
  121OSM   C15S12795   0.685   3.879  19.683 -0.1530  0.5717 -0.6983
  121OSM   H15S12796   0.698   3.989  19.685  0.9886  0.4620 -1.2525
  121OSM   H15T12797   0.784   3.846  19.720 -0.5080  0.4521  0.1727
  121OSM   C16S12798   0.586   3.821  19.787  0.3392 -0.2860  0.1087
  121OSM   H16S12799   0.484   3.854  19.756  0.1080 -0.6110  0.5128
  121OSM   H16T12800   0.618   3.860  19.885  2.2101  0.3875 -0.7269
  121OSM   C17S12801   0.598   3.671  19.800  0.0079 -0.3243  0.6546
  121OSM   H17S12802   0.701   3.631  19.791 -0.1998 -0.6707 -0.3523
  121OSM   H17T12803   0.546   3.613  19.720 -1.9218 -1.1892  2.4255
  121OSM   C18S12804   0.530   3.622  19.927  0.2903  0.9075 -0.3411
  121OSM   H18S12805   0.420   3.639  19.924 -0.2339 -1.5978  1.6294
  121OSM   H18T12806   0.570   3.686  20.008  0.8184  0.2179 -0.0466
  121OSM   H18U12807   0.540   3.513  19.945 -1.8752  0.8419  0.7855
  121OSM    C1F12808   2.122   3.699  19.782  0.7304 -0.0400 -0.2568
  121OSM     OF12809   2.163   3.812  19.805  0.5881 -0.0353 -0.1005
  121OSM    C2F12810   2.158   3.591  19.881  0.2774 -0.3763  0.4723
  121OSM    H2F12811   2.110   3.497  19.846  2.2987 -2.2498  2.3947
  121OSM    H2G12812   2.116   3.613  19.982 -1.2586  1.4638 -0.5010
  121OSM    C3F12813   2.311   3.565  19.901 -0.0733 -0.4758  0.1134
  121OSM    H3F12814   2.366   3.659  19.926 -0.4320  0.1180 -1.2671
  121OSM    H3G12815   2.355   3.531  19.805  0.9669  0.1910  0.3390
  121OSM    C4F12816   2.340   3.457  20.004 -0.2846  0.1212 -0.4899
  121OSM    H4F12817   2.432   3.412  19.961 -0.8312 -1.4426 -0.0901
  121OSM    H4G12818   2.253   3.387  20.005 -0.6898  0.5723  1.6619
  121OSM    C5F12819   2.370   3.503  20.144  0.6269 -0.2207 -1.1600
  121OSM    H5F12820   2.286   3.564  20.183 -1.0882 -3.3381  0.4877
  121OSM    H5G12821   2.453   3.577  20.142 -0.8553  1.5042 -1.1071
  121OSM    C6F12822   2.382   3.393  20.250  0.1306  0.4580 -0.2362
  121OSM    H6F12823   2.302   3.317  20.242  0.0682  0.3818  0.9661
  121OSM    H6G12824   2.380   3.432  20.354 -0.5540 -0.4308  0.0981
  121OSM    C7F12825   2.506   3.307  20.234  0.0601 -0.1908  0.3810
  121OSM    H7F12826   2.591   3.377  20.255 -0.6207  1.4015 -1.7316
  121OSM    H7G12827   2.508   3.285  20.125 -0.5397 -3.0045  0.8723
  121OSM    C8F12828   2.526   3.178  20.301 -0.2244  0.5318 -0.5833
  121OSM    H8F12829   2.439   3.115  20.271  0.3594 -0.2629 -0.6204
  121OSM    H8G12830   2.526   3.196  20.411  1.2532  3.0225 -0.9136
  121OSM    C9F12831   2.661   3.116  20.291 -0.3185  0.3224  0.1540
  121OSM    H9F12832   2.740   3.192  20.279  0.0739  0.0689  1.0680
  121OSM   C10F12833   2.695   2.986  20.315 -0.2284  0.7487  0.3230
  121OSM   H10F12834   2.799   2.960  20.290 -0.1993  0.5939  0.6047
  121OSM   C11F12835   2.605   2.868  20.339  0.2252  0.1747 -0.0626
  121OSM   H11F12836   2.511   2.893  20.285  1.0901 -1.5170 -2.5276
  121OSM   H11G12837   2.574   2.860  20.445  2.0012 -0.7392  0.4339
  121OSM   C12F12838   2.667   2.740  20.278 -0.2956 -0.4405  0.3068
  121OSM   H12F12839   2.723   2.764  20.185  1.8891  1.8710  2.0845
  121OSM   H12G12840   2.586   2.670  20.249  0.0103 -0.8345  0.4027
  121OSM   C13F12841   2.763   2.679  20.382 -0.1188  0.2307  0.1753
  121OSM   H13F12842   2.715   2.671  20.482 -0.5037 -0.8481 -0.0781
  121OSM   H13G12843   2.855   2.739  20.401 -1.1656  1.9929 -0.1036
  121OSM   C14F12844   2.803   2.536  20.342 -0.5114 -0.0229 -0.1501
  121OSM   H14F12845   2.796   2.529  20.231 -1.1612 -0.3762 -0.0922
  121OSM   H14G12846   2.724   2.473  20.387 -0.4936  2.0895  3.0806
  121OSM   C15F12847   2.943   2.497  20.389  0.1754  0.3979  0.2165
  121OSM   H15F12848   2.957   2.553  20.485 -0.8169  0.5001  0.3124
  121OSM   H15G12849   3.022   2.547  20.330 -1.4536  1.4986 -1.1200
  121OSM   C16F12850   2.944   2.349  20.409  0.5593 -0.4063  0.3927
  121OSM   H16F12851   2.949   2.289  20.316 -0.8072  0.8623 -0.5324
  121OSM   H16G12852   2.855   2.316  20.467  0.1875 -0.5966 -0.2761
  121OSM   C17F12853   3.068   2.314  20.493  0.1786  0.8668 -0.5657
  121OSM   H17F12854   3.038   2.226  20.554 -1.1588  1.4212 -0.3957
  121OSM   H17G12855   3.083   2.396  20.566 -2.7517  0.1027  1.0294
  121OSM   C18F12856   3.202   2.296  20.412  0.1216 -0.1826  0.3397
  121OSM   H18F12857   3.230   2.388  20.355  0.0510  0.7226  1.7239
  121OSM   H18G12858   3.186   2.225  20.328 -2.5572  0.4903  0.1651
  121OSM   H18H12859   3.283   2.274  20.484  1.9325  1.1946 -1.1698
  122OSM      N12860   1.225   0.295  14.320 -0.3178 -0.6013  1.0098
  122OSM    C1512861   1.306   0.162  14.317 -0.5002  0.0284 -0.4742
  122OSM   H15A12862   1.282   0.097  14.400 -0.5202  1.6465  0.8239
  122OSM   H15B12863   1.413   0.177  14.321 -0.4031 -0.8533  0.7968
  122OSM   H15C12864   1.266   0.097  14.241 -2.4612  1.5009 -0.7621
  122OSM    C1412865   1.311   0.390  14.407  0.2468  0.3685  0.5548
  122OSM   H14A12866   1.321   0.365  14.512 -0.4887  0.0345  0.5465
  122OSM   H14B12867   1.273   0.491  14.395 -1.1868 -0.1680  0.4469
  122OSM   H14C12868   1.412   0.399  14.369 -0.5137 -1.8564 -2.3341
  122OSM    C1312869   1.217   0.338  14.177  0.0674 -0.0461 -0.6931
  122OSM   H13A12870   1.185   0.441  14.170  1.7410  0.5086 -0.7446
  122OSM   H13B12871   1.162   0.270  14.114  0.8271 -0.7089 -0.6632
  122OSM   H13C12872   1.319   0.334  14.140  0.2976 -0.7225 -0.0134
  122OSM    C1212873   1.095   0.283  14.390  0.0039  0.2210  0.3851
  122OSM   H12A12874   1.039   0.209  14.335  1.5320 -1.9983  1.6439
  122OSM   H12B12875   1.045   0.378  14.381 -0.5322 -0.1995 -1.4527
  122OSM    C1112876   1.094   0.223  14.537 -0.6364  0.3114  0.7306
  122OSM   H11A12877   0.998   0.231  14.593  0.1180  2.2991  1.8806
  122OSM   H11B12878   1.171   0.266  14.605  0.4386 -0.3968 -0.0218
  122OSM      P12879   1.021  -0.020  14.464 -0.1558 -0.0524  0.1610
  122OSM    O1312880   1.062  -0.043  14.323 -0.2848  0.0430 -0.4975
  122OSM    O1412881   1.024  -0.133  14.559  0.2217 -0.2474  0.1233
  122OSM    O1112882   0.877   0.048  14.463 -0.2927  0.1019  0.6732
  122OSM    O1212883   1.113   0.088  14.527 -0.1591 -0.2150  0.1408
  122OSM    C1S12884   0.768   0.002  14.544 -0.2873  0.3633  0.1850
  122OSM    H1S12885   0.805   0.006  14.649  1.9749  0.8415 -0.5807
  122OSM    H1T12886   0.733  -0.097  14.508 -0.4380  0.3319  0.4120
  122OSM     NF12887   0.554   0.079  14.630  0.1693  0.1582 -0.4153
  122OSM    HNF12888   0.484   0.009  14.619 -1.1448  1.1717  1.1284
  122OSM    C2S12889   0.645   0.097  14.515 -1.2656 -0.0264 -0.7454
  122OSM    H2S12890   0.687   0.200  14.519  0.1924 -0.6138  1.7978
  122OSM    C3S12891   0.577   0.076  14.369  0.3038 -0.0572 -0.6002
  122OSM    H3S12892   0.519  -0.018  14.364 -0.9913  0.6883 -0.1380
  122OSM     O312893   0.675   0.059  14.270  0.0285 -0.0665 -0.3515
  122OSM    HO312894   0.749   0.050  14.330 -0.1507 -0.7541 -0.2245
  122OSM    C4S12895   0.477   0.188  14.344 -0.1343 -0.8273  0.2458
  122OSM    H4S12896   0.512   0.286  14.308 -1.3403 -0.3788  0.2424
  122OSM    C5S12897   0.350   0.174  14.354  0.6383  0.4399 -0.0154
  122OSM    H5S12898   0.318   0.070  14.371  1.6093  0.5951  3.7481
  122OSM    C6S12899   0.246   0.280  14.336  0.1176 -0.1928  0.2163
  122OSM    H6S12900   0.296   0.376  14.310 -0.6017 -0.1744 -1.1668
  122OSM    H6T12901   0.191   0.301  14.430  0.6866  1.7532  0.1526
  122OSM    C7S12902   0.126   0.253  14.244 -0.2910  0.1170 -0.7925
  122OSM    H7S12903   0.073   0.170  14.296 -1.0801  2.4634  2.4853
  122OSM    H7T12904   0.165   0.230  14.143 -2.2947 -1.1222 -1.3355
  122OSM    C8S12905   0.038   0.375  14.229 -0.7142 -0.5724 -0.3156
  122OSM    H8S12906   0.078   0.455  14.163 -2.1582 -0.5709 -1.2253
  122OSM    H8T12907   0.037   0.417  14.332 -0.0524 -1.1940 -0.0463
  122OSM    C9S12908  -0.100   0.344  14.169  0.3341 -0.8372  0.3699
  122OSM    H9S12909  -0.167   0.276  14.226  0.0829 -2.1868 -1.4316
  122OSM    H9T12910  -0.082   0.287  14.075 -1.7149 -0.1149 -0.5148
  122OSM   C10S12911  -0.182   0.462  14.124 -0.2290 -0.1231 -0.1019
  122OSM   H10S12912  -0.290   0.438  14.119 -0.2146  0.0209 -1.4756
  122OSM   H10T12913  -0.154   0.504  14.026  0.7869  1.4529  0.8254
  122OSM   C11S12914  -0.198   0.576  14.222  0.0573  0.1414  0.1060
  122OSM   H11S12915  -0.098   0.615  14.251  0.1136 -1.5427  2.5994
  122OSM   H11T12916  -0.245   0.545  14.318 -1.7969  3.8638  0.5780
  122OSM   C12S12917  -0.287   0.689  14.167 -0.6293 -0.1689 -0.1803
  122OSM   H12S12918  -0.371   0.645  14.109 -1.1155  0.5314 -0.0190
  122OSM   H12T12919  -0.229   0.756  14.100 -0.3966 -0.1626  0.0233
  122OSM   C13S12920  -0.329   0.788  14.283  0.2926 -0.9196  0.8164
  122OSM   H13S12921  -0.240   0.851  14.306 -0.7232  1.5883 -1.6336
  122OSM   H13T12922  -0.371   0.736  14.371  1.6216  1.7260  3.2106
  122OSM   C14S12923  -0.441   0.892  14.242  0.1041  0.5222 -0.4199
  122OSM   H14S12924  -0.537   0.841  14.218  0.5135 -0.9523  0.9053
  122OSM   H14T12925  -0.409   0.955  14.156 -1.1266  1.9259  0.1157
  122OSM   C15S12926  -0.468   0.996  14.352 -0.1930  0.7311 -0.1365
  122OSM   H15S12927  -0.379   1.062  14.360  0.1060  0.2281  0.9185
  122OSM   H15T12928  -0.483   0.955  14.454  1.9980  0.4749  0.1461
  122OSM   C16S12929  -0.592   1.078  14.312  0.4335 -0.5400 -0.3665
  122OSM   H16S12930  -0.618   1.066  14.205  0.7115 -1.9192 -0.3074
  122OSM   H16T12931  -0.571   1.186  14.318 -0.3952 -0.4054  0.2983
  122OSM   C17S12932  -0.718   1.045  14.393  0.2048  0.1017  0.1203
  122OSM   H17S12933  -0.714   0.934  14.397 -0.0574  0.1133  0.7855
  122OSM   H17T12934  -0.811   1.071  14.337  0.3109  1.2541  0.4427
  122OSM   C18S12935  -0.722   1.108  14.530  0.3795  0.0900  0.0846
  122OSM   H18S12936  -0.793   1.053  14.596 -0.4360  0.0231 -0.8144
  122OSM   H18T12937  -0.751   1.214  14.510  0.6431 -0.1202 -1.5910
  122OSM   H18U12938  -0.626   1.106  14.584 -0.0497  0.0246  0.8632
  122OSM    C1F12939   0.589   0.112  14.753  0.2447  0.1279  0.9256
  122OSM     OF12940   0.690   0.177  14.772 -0.5834 -0.0951  0.9530
  122OSM    C2F12941   0.500   0.063  14.865 -0.9236 -0.0158 -0.5859
  122OSM    H2F12942   0.511  -0.046  14.884  1.8953  0.2939 -0.0591
  122OSM    H2G12943   0.400   0.097  14.831 -0.1906  1.6777 -1.1072
  122OSM    C3F12944   0.523   0.147  14.997 -0.2501  0.5099 -0.2934
  122OSM    H3F12945   0.521   0.256  14.977  2.4827  0.4215 -1.5780
  122OSM    H3G12946   0.624   0.127  15.037 -1.2809 -1.2160  1.5879
  122OSM    C4F12947   0.415   0.116  15.093  0.3859 -0.8526 -0.1519
  122OSM    H4F12948   0.400   0.007  15.110 -2.0589 -0.3044  1.7819
  122OSM    H4G12949   0.329   0.160  15.038  2.0403 -0.1534 -2.3436
  122OSM    C5F12950   0.431   0.186  15.226  0.3601  0.4792  0.1320
  122OSM    H5F12951   0.458   0.293  15.209  0.9788  0.8407  2.8124
  122OSM    H5G12952   0.516   0.137  15.278 -0.0185  1.1884  1.4749
  122OSM    C6F12953   0.298   0.175  15.301 -0.3882  0.4787  0.4844
  122OSM    H6F12954   0.267   0.071  15.279  0.8297  0.4483 -1.3275
  122OSM    H6G12955   0.219   0.245  15.268 -0.6302 -0.2459 -0.5320
  122OSM    C7F12956   0.321   0.205  15.453 -0.3660 -0.6374  0.1892
  122OSM    H7F12957   0.371   0.303  15.468 -1.1107 -0.1092 -0.6621
  122OSM    H7G12958   0.396   0.128  15.482  0.8658  0.1318 -0.8435
  122OSM    C8F12959   0.197   0.211  15.547  0.2550  0.1208  0.3674
  122OSM    H8F12960   0.228   0.211  15.653 -0.4464  0.2934  0.5745
  122OSM    H8G12961   0.138   0.119  15.527 -1.1201  1.2557 -1.0397
  122OSM    C9F12962   0.119   0.337  15.536  0.2556  0.0436  0.6198
  122OSM    H9F12963   0.165   0.432  15.567  0.6181  0.0060  0.1910
  122OSM   C10F12964  -0.010   0.346  15.488 -0.3872 -0.1434  0.2066
  122OSM   H10F12965  -0.050   0.449  15.487 -1.0358 -0.3851 -1.3704
  122OSM   C11F12966  -0.104   0.233  15.442  0.6469 -0.4498 -0.5176
  122OSM   H11F12967  -0.058   0.134  15.462  0.0060 -0.0302  3.9588
  122OSM   H11G12968  -0.117   0.252  15.333 -0.7057 -1.4931 -0.5624
  122OSM   C12F12969  -0.241   0.253  15.495  0.4338 -0.3657 -0.2995
  122OSM   H12F12970  -0.321   0.211  15.431 -0.3578 -0.0394  0.4552
  122OSM   H12G12971  -0.271   0.360  15.493  0.8581 -0.1246  2.2272
  122OSM   C13F12972  -0.259   0.227  15.646  0.1861 -0.6465 -0.5546
  122OSM   H13F12973  -0.212   0.308  15.706 -0.1844 -1.7526  1.2857
  122OSM   H13G12974  -0.200   0.138  15.675  0.0735 -0.0888  1.5471
  122OSM   C14F12975  -0.402   0.197  15.691  0.0325 -0.0464 -0.0961
  122OSM   H14F12976  -0.391   0.156  15.794  3.1248  0.1827 -0.2575
  122OSM   H14G12977  -0.446   0.104  15.648 -2.6431  0.2441  1.6994
  122OSM   C15F12978  -0.505   0.308  15.667  0.4153 -0.2205  0.2651
  122OSM   H15F12979  -0.490   0.360  15.570  0.3540 -2.0023 -0.7303
  122OSM   H15G12980  -0.473   0.379  15.747  3.4620  0.1018 -1.0835
  122OSM   C16F12981  -0.657   0.270  15.689  0.2377  0.2723 -0.3587
  122OSM   H16F12982  -0.650   0.241  15.796  3.7940 -6.0200 -1.7815
  122OSM   H16G12983  -0.688   0.186  15.624 -0.5414  1.7003 -1.9018
  122OSM   C17F12984  -0.761   0.375  15.659  0.4044 -0.4363  0.4968
  122OSM   H17F12985  -0.734   0.417  15.560  0.4915  0.2160  0.7886
  122OSM   H17G12986  -0.745   0.455  15.735 -2.0437  1.4331 -0.8396
  122OSM   C18F12987  -0.904   0.338  15.653  0.2216  0.1546  0.6961
  122OSM   H18F12988  -0.973   0.419  15.621 -1.2727 -1.1372  0.5369
  122OSM   H18G12989  -0.928   0.293  15.752  1.2569 -1.6607  0.1673
  122OSM   H18H12990  -0.917   0.263  15.572  0.6353  1.2378 -0.4117
  123OSM      N12991   3.310   0.079  13.496  0.1014 -1.0672  0.1548
  123OSM    C1512992   3.215  -0.015  13.421  0.2298  0.5102 -0.9097
  123OSM   H15A12993   3.263  -0.060  13.335  1.0726 -2.6949  1.0711
  123OSM   H15B12994   3.128   0.037  13.384 -0.2255  0.7835  0.4839
  123OSM   H15C12995   3.181  -0.099  13.479  2.3225 -0.0360 -0.3836
  123OSM    C1412996   3.268   0.223  13.486  0.0858  0.3750  0.8757
  123OSM   H14A12997   3.274   0.257  13.384  1.2022 -0.8162  0.5158
  123OSM   H14B12998   3.348   0.282  13.527  2.4265 -1.3760 -0.9323
  123OSM   H14C12999   3.170   0.242  13.528 -0.0065  0.9139  0.4212
  123OSM    C1313000   3.324   0.047  13.640  0.7005  0.3721  0.5043
  123OSM   H13A13001   3.378  -0.044  13.660  0.3597  0.4426  1.8341
  123OSM   H13B13002   3.223   0.035  13.678 -1.0518 -0.2012 -3.7178
  123OSM   H13C13003   3.377   0.123  13.695  1.2943 -0.3995  1.0198
  123OSM    C1213004   3.449   0.067  13.431  0.3671 -0.0058 -0.0578
  123OSM   H12A13005   3.516   0.149  13.451  1.6459 -1.3711  1.6026
  123OSM   H12B13006   3.438   0.087  13.325  1.1515 -0.8988 -0.3192
  123OSM    C1113007   3.518  -0.071  13.448  0.8059  0.1189 -0.3018
  123OSM   H11A13008   3.532  -0.083  13.557  1.8279 -1.2431 -0.5564
  123OSM   H11B13009   3.625  -0.072  13.419  1.2105 -1.6465  1.0687
  123OSM      P13010   3.528  -0.318  13.397 -0.2163  0.6394 -0.4136
  123OSM    O1313011   3.462  -0.415  13.304 -0.6266  0.8199 -0.1056
  123OSM    O1413012   3.674  -0.295  13.385  0.4168  0.1321 -0.0212
  123OSM    O1113013   3.496  -0.345  13.554 -0.1403  0.1545  0.0972
  123OSM    O1213014   3.451  -0.179  13.382  0.0236  0.8930  0.3432
  123OSM    C1S13015   3.364  -0.383  13.591 -0.2711  0.0602 -0.6292
  123OSM    H1S13016   3.320  -0.457  13.520 -0.6973  1.4489 -1.8642
  123OSM    H1T13017   3.302  -0.292  13.575  2.9023  2.1423 -2.1117
  123OSM     NF13018   3.256  -0.499  13.766  0.1091 -0.3279 -0.7275
  123OSM    HNF13019   3.199  -0.454  13.835 -0.0036  0.1149 -1.1011
  123OSM    C2S13020   3.373  -0.424  13.740 -0.4894  0.3202 -0.3249
  123OSM    H2S13021   3.460  -0.489  13.763 -1.7408 -1.3393 -0.1247
  123OSM    C3S13022   3.399  -0.290  13.824  0.4031 -0.2085 -0.0532
  123OSM    H3S13023   3.320  -0.223  13.785  1.5975  1.4041  0.2260
  123OSM     O313024   3.512  -0.214  13.789 -0.1887  0.2019  0.6668
  123OSM    HO313025   3.519  -0.236  13.696 -2.6993  0.3445  0.3748
  123OSM    C4S13026   3.386  -0.315  13.973 -0.6043  0.0607 -0.1049
  123OSM    H4S13027   3.279  -0.311  13.999 -0.7836  1.3349 -0.9258
  123OSM    C5S13028   3.486  -0.346  14.054 -0.5264  0.5323  0.0537
  123OSM    H5S13029   3.586  -0.366  14.013 -1.2206 -5.1661  0.3291
  123OSM    C6S13030   3.457  -0.380  14.194  0.6730 -0.2672 -0.2234
  123OSM    H6S13031   3.359  -0.353  14.238  0.7800  0.5197 -0.4476
  123OSM    H6T13032   3.523  -0.320  14.261 -0.0099 -2.3705  2.5336
  123OSM    C7S13033   3.480  -0.530  14.221  0.2429  0.2329 -0.1794
  123OSM    H7S13034   3.488  -0.516  14.331  1.4115  3.1866 -0.5282
  123OSM    H7T13035   3.578  -0.575  14.195 -0.5175 -0.2616 -2.3767
  123OSM    C8S13036   3.374  -0.627  14.158 -0.3787 -0.2556  0.8474
  123OSM    H8S13037   3.423  -0.700  14.091 -0.9498  1.1562 -1.1948
  123OSM    H8T13038   3.305  -0.567  14.094  1.7001  0.3028 -1.0152
  123OSM    C9S13039   3.294  -0.710  14.260 -0.2661  0.5448  0.0204
  123OSM    H9S13040   3.369  -0.773  14.313  0.8896  1.7454 -0.1447
  123OSM    H9T13041   3.227  -0.785  14.214 -0.7026  0.8791  0.1111
  123OSM   C10S13042   3.206  -0.625  14.346 -0.0385 -0.3793 -0.2810
  123OSM   H10S13043   3.126  -0.571  14.293 -0.4673 -0.9376 -0.2108
  123OSM   H10T13044   3.271  -0.545  14.387 -1.6688 -0.0975  1.9097
  123OSM   C11S13045   3.139  -0.691  14.467 -0.2990  0.3365 -0.1028
  123OSM   H11S13046   3.219  -0.744  14.524 -1.4127 -0.3209  0.9068
  123OSM   H11T13047   3.059  -0.763  14.440 -0.0880 -1.1835  2.8891
  123OSM   C12S13048   3.098  -0.585  14.563  0.8017 -0.4381  0.2151
  123OSM   H12S13049   3.060  -0.499  14.505 -3.1605 -3.6543 -2.4924
  123OSM   H12T13050   3.187  -0.556  14.624  0.4016 -0.0678  0.6251
  123OSM   C13S13051   2.984  -0.628  14.659  0.7961 -0.2772 -0.2422
  123OSM   H13S13052   3.024  -0.694  14.738 -1.7975 -2.2535 -0.4278
  123OSM   H13T13053   2.905  -0.687  14.608  0.5174 -0.0293 -0.1007
  123OSM   C14S13054   2.904  -0.508  14.720 -0.0376  0.0712  0.1636
  123OSM   H14S13055   2.852  -0.439  14.651 -2.5635 -1.5359  0.3234
  123OSM   H14T13056   2.974  -0.450  14.784 -4.0785  1.1875  4.1674
  123OSM   C15S13057   2.790  -0.546  14.817 -0.5043  0.7406 -0.3322
  123OSM   H15S13058   2.788  -0.652  14.850  1.4907  0.8460  0.2280
  123OSM   H15T13059   2.691  -0.535  14.766 -1.0635 -0.3700  0.4857
  123OSM   C16S13060   2.775  -0.457  14.945  0.2783 -0.2189  0.3169
  123OSM   H16S13061   2.870  -0.462  15.003 -0.3018 -2.1071  1.1736
  123OSM   H16T13062   2.687  -0.494  15.001  0.6070 -0.3159  0.7753
  123OSM   C17S13063   2.736  -0.311  14.906  0.5128  0.7427 -0.0297
  123OSM   H17S13064   2.643  -0.324  14.846  0.6508 -0.3942 -0.0063
  123OSM   H17T13065   2.818  -0.261  14.850 -0.3494  3.7656  1.1826
  123OSM   C18S13066   2.692  -0.236  15.025  0.3618  0.2178 -0.0347
  123OSM   H18S13067   2.651  -0.135  15.005 -1.4800 -0.6397 -0.7278
  123OSM   H18T13068   2.785  -0.224  15.085  1.7354 -0.8288 -1.8604
  123OSM   H18U13069   2.622  -0.281  15.099 -1.0690  0.9957 -0.8809
  123OSM    C1F13070   3.220  -0.615  13.710 -0.0539 -0.3915 -0.7051
  123OSM     OF13071   3.289  -0.678  13.631  0.0974  0.1723 -0.5687
  123OSM    C2F13072   3.087  -0.667  13.759  0.3258  0.0240  0.3578
  123OSM    H2F13073   3.040  -0.729  13.679  2.0032  0.1166 -0.7466
  123OSM    H2G13074   3.012  -0.588  13.781  1.7696  2.3950 -2.5045
  123OSM    C3F13075   3.086  -0.757  13.890  0.1238 -0.2181 -0.0329
  123OSM    H3F13076   3.131  -0.693  13.969  1.4062 -0.5074 -0.5172
  123OSM    H3G13077   3.162  -0.837  13.877 -0.4740 -0.9536  0.8839
  123OSM    C4F13078   2.952  -0.806  13.943  0.2542 -0.0692  0.0603
  123OSM    H4F13079   2.921  -0.896  13.885  0.1924  0.0626 -0.1097
  123OSM    H4G13080   2.885  -0.719  13.925  1.8083  1.2269  0.2865
  123OSM    C5F13081   2.952  -0.847  14.089  0.2478  0.4300  0.0342
  123OSM    H5F13082   2.931  -0.754  14.146 -1.1509 -0.2316  0.6381
  123OSM    H5G13083   3.050  -0.889  14.118 -0.0082  0.6686  1.2771
  123OSM    C6F13084   2.841  -0.942  14.131 -0.0335 -0.1544 -0.4612
  123OSM    H6F13085   2.857  -1.035  14.071  2.2653  0.4736 -0.9300
  123OSM    H6G13086   2.744  -0.891  14.113 -0.1816  0.0853  0.9148
  123OSM    C7F13087   2.845  -0.946  14.283  0.2683 -0.4372 -0.1315
  123OSM    H7F13088   2.824  -0.844  14.322  1.2289 -0.8663  1.5931
  123OSM    H7G13089   2.946  -0.977  14.316 -0.5245 -2.3355  0.6757
  123OSM    C8F13090   2.732  -1.035  14.341  0.7294 -0.1638 -0.1528
  123OSM    H8F13091   2.631  -1.005  14.307  0.3531  0.1514  1.1940
  123OSM    H8G13092   2.728  -1.015  14.450 -2.3587 -3.1736  0.4831
  123OSM    C9F13093   2.757  -1.180  14.319  0.5312 -0.2601  0.0303
  123OSM    H9F13094   2.741  -1.218  14.217  0.0183 -1.8522  0.6789
  123OSM   C10F13095   2.777  -1.274  14.415  0.1575 -0.2553  0.4722
  123OSM   H10F13096   2.800  -1.376  14.383 -0.5688  0.2984 -2.1244
  123OSM   C11F13097   2.773  -1.264  14.565 -0.2420  0.2075  0.5433
  123OSM   H11F13098   2.715  -1.176  14.600  1.2422  1.0610  0.9516
  123OSM   H11G13099   2.878  -1.249  14.596 -0.6101  2.9171  0.7447
  123OSM   C12F13100   2.712  -1.392  14.634 -0.5359 -0.5000  0.6013
  123OSM   H12F13101   2.617  -1.436  14.599 -0.1343  0.3825 -1.7734
  123OSM   H12G13102   2.685  -1.353  14.735 -1.7763 -1.6986  0.7569
  123OSM   C13F13103   2.813  -1.498  14.651 -0.0579 -0.2720  0.0003
  123OSM   H13F13104   2.911  -1.464  14.691  0.7684 -1.8671 -0.5763
  123OSM   H13G13105   2.826  -1.551  14.554 -0.0667 -0.2402 -0.0187
  123OSM   C14F13106   2.778  -1.603  14.762  0.0557  0.0890 -0.0745
  123OSM   H14F13107   2.862  -1.676  14.764 -0.5668 -0.8826 -3.0560
  123OSM   H14G13108   2.684  -1.656  14.739 -1.3400  1.9984  0.9758
  123OSM   C15F13109   2.761  -1.560  14.902 -0.5330 -0.5847  0.9564
  123OSM   H15F13110   2.657  -1.522  14.909 -0.6472 -0.9552  1.3069
  123OSM   H15G13111   2.819  -1.466  14.913  0.9058 -1.1432 -1.2636
  123OSM   C16F13112   2.791  -1.660  15.010 -0.2157  0.0197 -0.1810
  123OSM   H16F13113   2.882  -1.718  14.980 -1.5604 -2.4183  0.2238
  123OSM   H16G13114   2.716  -1.742  15.008 -0.0961 -0.0872 -0.3810
  123OSM   C17F13115   2.800  -1.600  15.154 -0.1419  0.3522  0.2180
  123OSM   H17F13116   2.893  -1.540  15.149 -0.2653  0.4805 -0.8405
  123OSM   H17G13117   2.821  -1.692  15.213  0.8227 -0.3474 -1.1453
  123OSM   C18F13118   2.688  -1.519  15.203  0.4196 -0.4019 -0.0455
  123OSM   H18F13119   2.687  -1.424  15.146  0.3819 -1.4461 -1.8570
  123OSM   H18G13120   2.691  -1.500  15.313  0.2331  0.3505 -0.1660
  123OSM   H18H13121   2.593  -1.569  15.173  0.2431  0.4470 -0.9586
  124OSM      N13122   4.325   3.528  12.808 -0.4103  0.2433 -0.3240
  124OSM    C1513123   4.325   3.656  12.743 -0.5115 -0.0416 -0.8638
  124OSM   H15A13124   4.385   3.729  12.796 -1.8654  0.5905 -0.1559
  124OSM   H15B13125   4.225   3.694  12.751 -0.8057 -0.6485 -1.5123
  124OSM   H15C13126   4.346   3.648  12.637  2.5098 -0.4979 -0.3283
  124OSM    C1413127   4.228   3.437  12.743  0.3480 -0.1419 -0.2863
  124OSM   H14A13128   4.253   3.430  12.639  1.0684 -4.1479  0.0004
  124OSM   H14B13129   4.132   3.486  12.742  0.0850 -0.5786 -2.8400
  124OSM   H14C13130   4.222   3.335  12.780 -0.0094 -0.5468 -1.4245
  124OSM    C1313131   4.455   3.465  12.787 -0.6365 -0.4657  0.9328
  124OSM   H13A13132   4.457   3.370  12.839  2.9458 -0.2903  1.4071
  124OSM   H13B13133   4.538   3.522  12.824 -1.2902  0.8328  0.4455
  124OSM   H13C13134   4.467   3.438  12.683 -1.0171  0.6616  0.5852
  124OSM    C1213135   4.295   3.541  12.961 -0.7863 -0.5752  0.1642
  124OSM   H12A13136   4.372   3.608  12.996 -0.3758  0.1446 -1.9517
  124OSM   H12B13137   4.314   3.453  13.022 -0.8326  0.0857  1.1505
  124OSM    C1113138   4.151   3.586  12.999 -0.5935 -0.3642  0.0821
  124OSM   H11A13139   4.137   3.691  12.963 -0.6546 -1.0754 -2.1476
  124OSM   H11B13140   4.147   3.601  13.109 -1.4045  2.6766 -0.2629
  124OSM      P13141   3.908   3.518  12.934  0.4230  0.1575 -0.0704
  124OSM    O1313142   3.895   3.576  12.799 -0.1263  0.5393 -0.3814
  124OSM    O1413143   3.842   3.388  12.958 -0.3761  0.1380  0.5621
  124OSM    O1113144   3.861   3.624  13.047  0.4307 -0.2346  0.3330
  124OSM    O1213145   4.055   3.485  12.958  0.8835 -0.0438 -0.0635
  124OSM    C1S13146   3.772   3.585  13.152  0.4411  0.5467 -0.0469
  124OSM    H1S13147   3.763   3.474  13.163 -1.9252  0.6992  0.1043
  124OSM    H1T13148   3.669   3.625  13.144 -0.6478 -1.2564  3.0057
  124OSM     NF13149   3.754   3.568  13.411  0.0679  0.0358 -0.2538
  124OSM    HNF13150   3.692   3.618  13.470 -0.7657 -0.7785 -0.4081
  124OSM    C2S13151   3.819   3.637  13.297 -0.6314 -0.0655  0.2258
  124OSM    H2S13152   3.926   3.611  13.309 -0.5705 -0.6890 -1.4601
  124OSM    C3S13153   3.813   3.793  13.303  0.3903  0.3326 -0.1397
  124OSM    H3S13154   3.710   3.823  13.275 -0.5429 -2.2221  0.2638
  124OSM     O313155   3.898   3.845  13.198 -0.2962  0.4985 -0.1772
  124OSM    HO313156   3.902   3.763  13.149 -1.1154  0.1791  0.2604
  124OSM    C4S13157   3.854   3.847  13.439 -0.0918 -0.1617 -0.2325
  124OSM    H4S13158   3.953   3.895  13.445  0.4877 -0.8312 -3.0298
  124OSM    C5S13159   3.775   3.855  13.550  0.1639  0.4345 -0.2143
  124OSM    H5S13160   3.680   3.799  13.546  0.1196  0.4203  0.9267
  124OSM    C6S13161   3.809   3.892  13.689  0.2442  0.0334 -0.1725
  124OSM    H6S13162   3.825   3.802  13.753  0.0267 -1.0627 -1.5942
  124OSM    H6T13163   3.734   3.959  13.736 -0.7606 -0.2221 -1.3390
  124OSM    C7S13164   3.946   3.974  13.724  0.3093  0.0738  0.5890
  124OSM    H7S13165   3.943   4.062  13.657  1.9290 -0.4431 -0.2111
  124OSM    H7T13166   4.031   3.908  13.698 -0.4477 -1.4149  1.6977
  124OSM    C8S13167   3.944   4.004  13.878 -0.2556 -0.5956  0.4055
  124OSM    H8S13168   3.857   4.068  13.906  0.1682  0.0153  0.3441
  124OSM    H8T13169   4.036   4.066  13.884 -0.9064  0.2819  1.5213
  124OSM    C9S13170   3.972   3.880  13.975  0.7380  0.4854 -0.4115
  124OSM    H9S13171   4.035   3.807  13.922 -1.0015 -1.0130 -0.5288
  124OSM    H9T13172   3.877   3.832  14.009  0.7853  1.0607  0.5756
  124OSM   C10S13173   4.032   3.923  14.106 -0.4824  0.1642  0.4556
  124OSM   H10S13174   3.974   4.004  14.155 -0.3682  1.2551 -1.1198
  124OSM   H10T13175   4.134   3.962  14.085 -0.2730 -1.3752 -1.7771
  124OSM   C11S13176   4.077   3.807  14.200  0.3234  0.4173 -0.9583
  124OSM   H11S13177   4.128   3.851  14.289  2.0267 -3.2803  0.0721
  124OSM   H11T13178   4.165   3.760  14.151  1.2687 -0.8619  1.7676
  124OSM   C12S13179   3.962   3.710  14.244 -0.0874 -0.3057  0.7361
  124OSM   H12S13180   3.996   3.624  14.306  2.0828  0.0230  0.0772
  124OSM   H12T13181   3.921   3.670  14.149  0.7413 -1.1385  0.7097
  124OSM   C13S13182   3.856   3.787  14.320  0.0966 -0.2191  0.9178
  124OSM   H13S13183   3.762   3.728  14.332 -0.8588  1.2734  1.0917
  124OSM   H13T13184   3.835   3.877  14.259 -2.5397 -1.5900 -0.3693
  124OSM   C14S13185   3.884   3.829  14.471  0.2380 -0.3974  0.1750
  124OSM   H14S13186   3.977   3.890  14.476 -0.3135  0.4229  0.5149
  124OSM   H14T13187   3.898   3.732  14.523  2.4625 -0.5085 -0.5431
  124OSM   C15S13188   3.766   3.900  14.540  0.1621 -0.7087 -0.0874
  124OSM   H15S13189   3.731   3.971  14.462 -1.1049 -0.4814  0.6555
  124OSM   H15T13190   3.811   3.962  14.621 -0.1274  0.5445 -0.8526
  124OSM   C16S13191   3.657   3.809  14.590 -0.0646  0.2243 -0.2792
  124OSM   H16S13192   3.689   3.720  14.647 -1.9776 -0.8213 -0.7344
  124OSM   H16T13193   3.614   3.768  14.496  2.2725 -0.3405 -1.1745
  124OSM   C17S13194   3.557   3.886  14.684 -0.6911  0.3931 -1.0963
  124OSM   H17S13195   3.515   3.978  14.639  0.4952  0.2812 -2.4785
  124OSM   H17T13196   3.614   3.924  14.772 -2.1456  0.1019  0.0265
  124OSM   C18S13197   3.441   3.805  14.744 -0.0553  0.7411  0.1740
  124OSM   H18S13198   3.373   3.871  14.801  1.7011  1.7568  1.1853
  124OSM   H18T13199   3.473   3.721  14.808 -2.4923 -0.0564  0.4399
  124OSM   H18U13200   3.396   3.749  14.660  0.1992 -0.9272  1.1100
  124OSM    C1F13201   3.790   3.440  13.431  0.3600  0.0841 -0.7722
  124OSM     OF13202   3.866   3.397  13.347 -0.0907 -0.0049 -0.1312
  124OSM    C2F13203   3.723   3.368  13.539 -0.3820 -0.6451  0.1351
  124OSM    H2F13204   3.800   3.347  13.616 -0.8883 -1.9963  0.2941
  124OSM    H2G13205   3.684   3.271  13.501 -3.8391  1.1495 -1.3565
  124OSM    C3F13206   3.609   3.450  13.598  0.1265 -0.0564 -0.0685
  124OSM    H3F13207   3.543   3.489  13.517 -0.7539 -0.2141  0.5578
  124OSM    H3G13208   3.654   3.535  13.654 -1.0193 -0.0717  0.9227
  124OSM    C4F13209   3.517   3.363  13.687  0.4855  0.3094 -0.1701
  124OSM    H4F13210   3.581   3.287  13.735  2.3373  1.0299 -1.4041
  124OSM    H4G13211   3.448   3.303  13.624  0.5654  0.1447 -0.1013
  124OSM    C5F13212   3.438   3.437  13.796  0.8809 -0.0304  0.4202
  124OSM    H5F13213   3.370   3.513  13.751 -2.6053 -1.9204  2.0727
  124OSM    H5G13214   3.511   3.483  13.866  0.6539  1.6737 -0.4154
  124OSM    C6F13215   3.338   3.340  13.861 -0.5333 -0.3803 -0.0399
  124OSM    H6F13216   3.292   3.397  13.945 -1.3007 -0.2164 -0.5617
  124OSM    H6G13217   3.371   3.247  13.912 -1.1174  0.9822  3.0557
  124OSM    C7F13218   3.210   3.302  13.784  1.3684  0.4859 -0.1461
  124OSM    H7F13219   3.239   3.216  13.720  0.3567  0.7424 -0.9726
  124OSM    H7G13220   3.170   3.386  13.724  0.2596 -0.8024 -1.2902
  124OSM    C8F13221   3.104   3.254  13.888 -0.7777  0.1075  0.3538
  124OSM    H8F13222   3.005   3.241  13.840 -1.5106  0.7640  1.6506
  124OSM    H8G13223   3.091   3.331  13.967  0.2646  0.1085  0.5408
  124OSM    C9F13224   3.143   3.126  13.951  0.1370  0.9369  0.5158
  124OSM    H9F13225   3.160   3.043  13.881 -0.4483 -0.9756  2.5782
  124OSM   C10F13226   3.180   3.101  14.079  0.0953  0.1715 -0.4887
  124OSM   H10F13227   3.203   2.996  14.103 -0.0618  0.2353 -0.0625
  124OSM   C11F13228   3.161   3.197  14.196  0.1072  0.3209 -0.4292
  124OSM   H11F13229   3.080   3.271  14.178 -1.4720 -1.1117  0.4410
  124OSM   H11G13230   3.255   3.248  14.222  0.5232 -0.5509 -0.1758
  124OSM   C12F13231   3.106   3.123  14.320  0.3976 -0.3220  0.1479
  124OSM   H12F13232   3.025   3.053  14.291  1.0812 -1.3497  0.6626
  124OSM   H12G13233   3.052   3.198  14.382 -0.3772 -1.1103  0.4444
  124OSM   C13F13234   3.215   3.045  14.386 -0.2213  0.2709 -0.1530
  124OSM   H13F13235   3.282   3.123  14.429 -1.0786  0.6157  0.5762
  124OSM   H13G13236   3.261   2.981  14.308  0.4265  0.5882 -0.0407
  124OSM   C14F13237   3.169   2.966  14.513  0.2817 -0.3035  0.4048
  124OSM   H14F13238   3.098   2.882  14.493 -1.6612  0.9873  1.5528
  124OSM   H14G13239   3.118   3.033  14.585 -1.1574  0.5916 -1.3745
  124OSM   C15F13240   3.298   2.917  14.576  0.0422 -0.2554 -0.5710
  124OSM   H15F13241   3.367   2.995  14.614  0.0375 -1.3269  1.7888
  124OSM   H15G13242   3.349   2.862  14.494 -1.8973 -0.6306 -1.6015
  124OSM   C16F13243   3.267   2.814  14.684 -0.5102 -0.0621  0.0469
  124OSM   H16F13244   3.365   2.778  14.723 -0.1739  0.9471  0.1663
  124OSM   H16G13245   3.213   2.724  14.648 -0.5006  0.3526 -1.0536
  124OSM   C17F13246   3.192   2.870  14.806  0.5386  0.5544  0.4193
  124OSM   H17F13247   3.096   2.919  14.777  0.2249 -1.0115 -1.3337
  124OSM   H17G13248   3.256   2.947  14.855  0.1919  1.8911 -1.1569
  124OSM   C18F13249   3.162   2.763  14.917 -0.5886  0.2011 -0.3932
  124OSM   H18F13250   3.077   2.783  14.985  0.1922  2.4186 -0.0070
  124OSM   H18G13251   3.253   2.731  14.974 -1.4620 -1.7997 -0.0150
  124OSM   H18H13252   3.133   2.667  14.868 -0.1527 -0.2455  0.1958
  125OSM      N13253   2.194   2.575  17.892  0.1519 -0.4408  0.0740
  125OSM    C1513254   2.116   2.459  17.944 -0.1205 -0.4329 -0.2213
  125OSM   H15A13255   2.108   2.452  18.052 -0.6993  1.3597 -0.1126
  125OSM   H15B13256   2.166   2.370  17.909 -0.5241 -0.7495  0.0028
  125OSM   H15C13257   2.017   2.456  17.901 -0.4459  1.0939  0.3399
  125OSM    C1413258   2.207   2.579  17.745 -0.2225  0.1919 -0.6235
  125OSM   H14A13259   2.111   2.567  17.696 -1.0632 -0.6184  1.1457
  125OSM   H14B13260   2.271   2.502  17.704 -1.2997 -2.3819  2.1526
  125OSM   H14C13261   2.236   2.676  17.707 -1.6896  0.5945 -0.7723
  125OSM    C1313262   2.115   2.693  17.950 -0.1613 -0.1384  0.5730
  125OSM   H13A13263   2.104   2.687  18.057 -0.2826 -0.7833  0.5313
  125OSM   H13B13264   2.014   2.694  17.911 -0.1119  1.4673  0.4288
  125OSM   H13C13265   2.155   2.788  17.918 -1.3505 -0.3615 -1.8161
  125OSM    C1213266   2.335   2.578  17.945  0.3455 -0.5290 -0.5347
  125OSM   H12A13267   2.379   2.669  17.907  2.3719 -0.7914  1.0263
  125OSM   H12B13268   2.384   2.492  17.902  0.2507 -0.1127 -1.5219
  125OSM    C1113269   2.358   2.575  18.091  0.9112 -0.3935 -0.5839
  125OSM   H11A13270   2.273   2.633  18.135  0.8323 -0.2251 -0.9568
  125OSM   H11B13271   2.452   2.632  18.109 -0.4612  1.6003  0.7724
  125OSM      P13272   2.503   2.363  18.135 -0.3200 -0.3625  0.0883
  125OSM    O1313273   2.481   2.222  18.178 -0.5789 -0.0173 -0.6344
  125OSM    O1413274   2.562   2.386  18.002 -0.0544  0.3471  0.3339
  125OSM    O1113275   2.596   2.430  18.243 -0.0074  0.6153 -0.1769
  125OSM    O1213276   2.364   2.442  18.142 -0.0967  0.0148 -0.3243
  125OSM    C1S13277   2.541   2.472  18.371  0.2178 -0.4271  0.0978
  125OSM    H1S13278   2.440   2.436  18.402  1.3761 -2.4654  1.8202
  125OSM    H1T13279   2.531   2.582  18.380 -0.5369 -0.5051  0.3854
  125OSM     NF13280   2.551   2.443  18.622  0.2046  0.0037 -0.6074
  125OSM    HNF13281   2.543   2.538  18.652 -0.7101 -0.4403  0.6444
  125OSM    C2S13282   2.628   2.435  18.500  0.0643 -0.1420  0.5266
  125OSM    H2S13283   2.661   2.329  18.499  0.0712 -0.1626  1.5878
  125OSM    C3S13284   2.743   2.541  18.497 -0.0418  0.3026  0.2357
  125OSM    H3S13285   2.699   2.643  18.503 -0.4482  0.0619  1.8211
  125OSM     O313286   2.823   2.543  18.376  0.4620 -0.0124  0.4290
  125OSM    HO313287   2.762   2.508  18.310 -1.7168  0.8468  1.8771
  125OSM    C4S13288   2.828   2.532  18.620 -0.5649 -0.4679  0.0481
  125OSM    H4S13289   2.815   2.616  18.689 -0.0172 -1.3896  1.3125
  125OSM    C5S13290   2.915   2.435  18.641 -0.1390  0.1852  0.5529
  125OSM    H5S13291   2.932   2.355  18.568  3.4913  1.2040  0.0823
  125OSM    C6S13292   3.014   2.416  18.756  0.2909  0.0577  0.6913
  125OSM    H6S13293   3.110   2.451  18.712 -0.3985 -0.7448 -1.6556
  125OSM    H6T13294   3.031   2.311  18.788  0.7750 -0.7381 -1.8849
  125OSM    C7S13295   2.973   2.497  18.883  0.4247  0.4353 -0.4942
  125OSM    H7S13296   2.874   2.467  18.923  0.7566  0.1399  0.1225
  125OSM    H7T13297   2.968   2.606  18.864  0.0654  0.7403  1.1881
  125OSM    C8S13298   3.080   2.483  18.991  0.4741  0.5006  1.0305
  125OSM    H8S13299   3.179   2.510  18.950  1.3372 -0.2834  2.5218
  125OSM    H8T13300   3.076   2.374  19.015 -1.1478  0.0067 -1.1653
  125OSM    C9S13301   3.039   2.549  19.117 -0.2673  0.8887 -0.3063
  125OSM    H9S13302   2.947   2.498  19.152 -1.3800  1.9500 -1.5565
  125OSM    H9T13303   3.036   2.658  19.098 -1.7682  1.1970  1.4406
  125OSM   C10S13304   3.154   2.535  19.229 -0.6513  0.2416  0.0417
  125OSM   H10S13305   3.215   2.628  19.230 -1.8215  1.0455  1.6403
  125OSM   H10T13306   3.223   2.449  19.214 -1.9865 -0.4006 -3.4240
  125OSM   C11S13307   3.083   2.525  19.366 -0.0598  0.5663 -0.2144
  125OSM   H11S13308   3.036   2.424  19.374  0.6731  0.1095 -1.4964
  125OSM   H11T13309   2.994   2.592  19.369  0.3788  1.1952 -0.9522
  125OSM   C12S13310   3.172   2.565  19.488  0.4176 -0.5768  0.3886
  125OSM   H12S13311   3.100   2.533  19.566 -1.1404 -0.4378 -0.9284
  125OSM   H12T13312   3.185   2.675  19.489 -0.4896 -0.4716  1.4657
  125OSM   C13S13313   3.314   2.493  19.494  0.5057 -0.4336 -1.0022
  125OSM   H13S13314   3.376   2.534  19.412  0.7344 -0.3789 -0.8040
  125OSM   H13T13315   3.299   2.387  19.466  0.8522  0.1698 -3.7877
  125OSM   C14S13316   3.410   2.514  19.618 -0.5395 -0.2533  0.3429
  125OSM   H14S13317   3.343   2.540  19.703 -0.4104 -2.0554  1.0279
  125OSM   H14T13318   3.481   2.598  19.603 -1.0362  0.4531  1.7177
  125OSM   C15S13319   3.467   2.376  19.662 -0.4990 -0.4031  0.8110
  125OSM   H15S13320   3.507   2.315  19.578  0.4321 -2.4368  2.6372
  125OSM   H15T13321   3.375   2.323  19.695 -0.5186  0.0645  1.5381
  125OSM   C16S13322   3.574   2.385  19.773 -0.4057 -0.0553  0.1749
  125OSM   H16S13323   3.525   2.424  19.865 -2.4552  0.6376 -1.1274
  125OSM   H16T13324   3.654   2.455  19.739 -2.1673  1.1400 -1.7170
  125OSM   C17S13325   3.629   2.240  19.794  0.0070  0.2744  0.1874
  125OSM   H17S13326   3.676   2.220  19.695  0.7826  3.4257 -0.1955
  125OSM   H17T13327   3.545   2.177  19.829  0.3007 -0.5571 -0.5505
  125OSM   C18S13328   3.748   2.220  19.888  0.1338  0.1067 -0.1421
  125OSM   H18S13329   3.714   2.262  19.985 -2.0698 -3.1810  0.6947
  125OSM   H18T13330   3.842   2.267  19.853 -0.5109  1.1786 -0.4796
  125OSM   H18U13331   3.762   2.112  19.909 -0.7951  0.2874  1.5770
  125OSM    C1F13332   2.474   2.345  18.672 -0.3808 -0.1515  0.3082
  125OSM     OF13333   2.446   2.234  18.623  0.1367  0.2571  0.2519
  125OSM    C2F13334   2.409   2.386  18.799  0.4929  0.0278  0.3767
  125OSM    H2F13335   2.300   2.365  18.801  0.3283  0.7554 -0.3936
  125OSM    H2G13336   2.410   2.497  18.799 -0.7318  0.0745 -1.2963
  125OSM    C3F13337   2.469   2.339  18.931 -0.0537  0.2111 -0.3293
  125OSM    H3F13338   2.498   2.233  18.912 -0.2478  0.2931 -1.0885
  125OSM    H3G13339   2.389   2.338  19.008 -0.0539  2.5730 -0.2110
  125OSM    C4F13340   2.590   2.419  18.979  0.1226  0.7212 -0.0433
  125OSM    H4F13341   2.660   2.434  18.894 -0.4120 -1.3043 -0.9007
  125OSM    H4G13342   2.642   2.357  19.056  1.4383  3.1367  1.1185
  125OSM    C5F13343   2.558   2.562  19.036  0.0046  0.8844 -0.0228
  125OSM    H5F13344   2.480   2.559  19.115  1.2800 -0.9708  1.2734
  125OSM    H5G13345   2.519   2.638  18.966 -0.8857 -0.4043 -0.9800
  125OSM    C6F13346   2.682   2.612  19.113 -0.3630 -0.4890  0.6393
  125OSM    H6F13347   2.770   2.608  19.045 -0.7025 -0.5190  0.1908
  125OSM    H6G13348   2.698   2.555  19.207 -2.9691  0.6767  1.8936
  125OSM    C7F13349   2.647   2.757  19.167 -0.1977 -0.4608 -0.3503
  125OSM    H7F13350   2.539   2.774  19.186  0.0189 -1.2110  1.7918
  125OSM    H7G13351   2.693   2.819  19.088  0.1757  1.3932  1.2545
  125OSM    C8F13352   2.720   2.788  19.308 -0.2017  0.7406 -0.6200
  125OSM    H8F13353   2.706   2.897  19.328  0.0821  0.4290  1.5741
  125OSM    H8G13354   2.827   2.770  19.286 -0.0187  0.4248  0.4635
  125OSM    C9F13355   2.668   2.706  19.431  0.3063  0.1321 -0.3107
  125OSM    H9F13356   2.582   2.640  19.417  0.2941  0.1097 -0.1276
  125OSM   C10F13357   2.717   2.709  19.558 -0.7414  0.4071  0.3210
  125OSM   H10F13358   2.667   2.641  19.629  0.4165  0.9976  1.7410
  125OSM   C11F13359   2.828   2.798  19.605  0.9205  0.1671 -0.0570
  125OSM   H11F13360   2.839   2.886  19.537  1.6612 -0.0709 -0.2571
  125OSM   H11G13361   2.922   2.740  19.594  0.3983 -0.4557 -1.4786
  125OSM   C12F13362   2.814   2.867  19.746  0.2050 -0.1793 -0.1419
  125OSM   H12F13363   2.730   2.940  19.738  0.6935  0.5198  0.9381
  125OSM   H12G13364   2.902   2.931  19.767 -0.8989  1.5543 -0.5089
  125OSM   C13F13365   2.784   2.784  19.869 -0.0913  0.5002  0.0485
  125OSM   H13F13366   2.686   2.733  19.858 -0.0008  0.6079 -1.3512
  125OSM   H13G13367   2.786   2.852  19.958  4.0390  0.2489  0.3203
  125OSM   C14F13368   2.883   2.668  19.888 -0.2528  0.2963  0.5594
  125OSM   H14F13369   2.878   2.599  19.800  3.3454  0.1713  0.3037
  125OSM   H14G13370   2.852   2.621  19.983  0.2644 -1.6435 -0.1784
  125OSM   C15F13371   3.029   2.710  19.903  0.4770 -0.5625  0.1008
  125OSM   H15F13372   3.024   2.812  19.948  1.9756 -1.2247  1.8945
  125OSM   H15G13373   3.073   2.734  19.804  1.5508 -2.0150  0.2000
  125OSM   C16F13374   3.118   2.619  19.991  0.1834 -0.4285 -0.8032
  125OSM   H16F13375   3.099   2.519  19.947 -0.9069 -0.1028 -1.1046
  125OSM   H16G13376   3.079   2.621  20.096 -0.7198  1.0956 -1.1429
  125OSM   C17F13377   3.270   2.650  19.994  0.1736  0.8532 -0.6412
  125OSM   H17F13378   3.297   2.741  20.051 -0.8612 -0.3054  1.8512
  125OSM   H17G13379   3.310   2.658  19.891  2.7984 -0.4276  0.2038
  125OSM   C18F13380   3.349   2.528  20.048  0.0586  0.0364 -0.0680
  125OSM   H18F13381   3.315   2.510  20.152  0.7463 -0.1878  0.1239
  125OSM   H18G13382   3.458   2.551  20.045  0.0888 -0.1145 -0.1033
  125OSM   H18H13383   3.331   2.436  19.989  2.2081 -0.1148 -0.5740
  126OSM      N13384   1.474   2.730  14.929 -0.4116 -1.0008 -0.3482
  126OSM    C1513385   1.504   2.670  15.057  0.8794  0.4056  0.0824
  126OSM   H15A13386   1.441   2.718  15.130  0.3116 -1.2527  0.7508
  126OSM   H15B13387   1.605   2.692  15.086  0.9755  0.7259 -0.4700
  126OSM   H15C13388   1.489   2.563  15.047  0.2347  0.5002  0.0141
  126OSM    C1413389   1.505   2.878  14.939 -0.1208 -0.9585  0.4751
  126OSM   H14A13390   1.464   2.935  14.856 -0.0707 -0.4080  0.8252
  126OSM   H14B13391   1.612   2.893  14.929 -0.3237  0.4289  0.2151
  126OSM   H14C13392   1.466   2.924  15.028  0.5142  0.8033 -0.1015
  126OSM    C1313393   1.561   2.664  14.829 -0.1625  0.1344 -0.8891
  126OSM   H13A13394   1.556   2.556  14.842  0.4650  0.2576  0.5504
  126OSM   H13B13395   1.664   2.693  14.843 -0.0592  0.1796 -1.7059
  126OSM   H13C13396   1.545   2.704  14.730  0.0184 -0.4877 -1.1787
  126OSM    C1213397   1.327   2.710  14.888 -0.4469  0.4433 -0.3350
  126OSM   H12A13398   1.264   2.746  14.968 -1.0402  1.4118 -1.1957
  126OSM   H12B13399   1.305   2.604  14.882  0.4240  0.3313 -2.8657
  126OSM    C1113400   1.272   2.768  14.755 -0.1209 -0.5049 -0.0221
  126OSM   H11A13401   1.164   2.744  14.749 -0.2720  0.4013 -1.7907
  126OSM   H11B13402   1.329   2.717  14.674 -1.3644 -1.8917 -0.0783
  126OSM      P13403   1.197   3.009  14.824  0.1904 -0.2799 -0.2065
  126OSM    O1313404   1.263   3.050  14.955  0.1760  0.2530 -0.1864
  126OSM    O1413405   1.173   3.114  14.730  0.7315  1.1488  0.1315
  126OSM    O1113406   1.066   2.929  14.864  0.1176  0.0245  0.0494
  126OSM    O1213407   1.292   2.911  14.748  0.0408 -0.3448 -0.4907
  126OSM    C1S13408   0.962   2.920  14.769  0.3981  0.5347  0.3892
  126OSM    H1S13409   0.992   2.845  14.692  3.7706 -0.6335  2.5899
  126OSM    H1T13410   0.943   3.012  14.710 -0.7131 -0.8630 -1.5478
  126OSM     NF13411   0.745   2.822  14.734  0.0908  0.2038 -0.5948
  126OSM    HNF13412   0.677   2.881  14.690 -0.6231 -1.0854 -1.2685
  126OSM    C2S13413   0.832   2.873  14.833  0.2168 -0.0581 -0.3131
  126OSM    H2S13414   0.867   2.801  14.910  0.8369  0.8522  0.2844
  126OSM    C3S13415   0.769   2.994  14.914 -1.2917  0.0947  0.0623
  126OSM    H3S13416   0.760   3.081  14.846  1.5017 -0.2068 -0.8653
  126OSM     O313417   0.860   3.039  15.018 -0.3793 -0.1655  0.4147
  126OSM    HO313418   0.945   3.005  14.987 -0.7319 -2.1178  1.4169
  126OSM    C4S13419   0.637   2.957  14.975 -0.6857  0.1692 -0.5952
  126OSM    H4S13420   0.557   2.950  14.900  0.7172 -3.5592 -1.9362
  126OSM    C5S13421   0.601   2.929  15.102  0.1247  0.1070 -0.3458
  126OSM    H5S13422   0.680   2.928  15.179  0.9050  0.7304 -1.1263
  126OSM    C6S13423   0.459   2.907  15.148  0.0943 -0.2287 -0.0568
  126OSM    H6S13424   0.454   2.807  15.196 -0.6108  0.1689  0.7340
  126OSM    H6T13425   0.395   2.899  15.058  1.8308 -1.4253 -1.2373
  126OSM    C7S13426   0.407   3.021  15.244  0.0914 -0.4515  0.2563
  126OSM    H7S13427   0.430   3.123  15.207  0.7335 -0.5432  0.3759
  126OSM    H7T13428   0.464   3.010  15.340  1.5112  0.8443 -0.4028
  126OSM    C8S13429   0.263   3.005  15.283  0.4433 -0.3992 -0.1718
  126OSM    H8S13430   0.239   2.903  15.322  0.6870  0.0325  1.1592
  126OSM    H8T13431   0.206   3.019  15.189 -2.2438  0.6420  1.5162
  126OSM    C9S13432   0.214   3.106  15.398  0.2272  0.0245  0.0708
  126OSM    H9S13433   0.243   3.203  15.353  0.6117 -0.4442 -0.7208
  126OSM    H9T13434   0.276   3.093  15.489  0.1533  0.6507  0.2133
  126OSM   C10S13435   0.067   3.088  15.418  0.3245  1.0463 -0.4859
  126OSM   H10S13436   0.048   2.993  15.471 -0.1569  2.2591  1.6534
  126OSM   H10T13437   0.006   3.083  15.325  1.5221 -0.4116 -1.2243
  126OSM   C11S13438  -0.006   3.191  15.516 -0.7338 -0.0026 -0.8165
  126OSM   H11S13439  -0.003   3.292  15.470 -1.0314  0.2826 -0.2143
  126OSM   H11T13440   0.053   3.183  15.610 -2.0247 -1.5611 -0.0790
  126OSM   C12S13441  -0.157   3.161  15.531 -0.1872  0.7391  0.2878
  126OSM   H12S13442  -0.167   3.072  15.597 -0.3876 -0.2513 -1.0324
  126OSM   H12T13443  -0.203   3.137  15.433  2.2136  0.1542 -0.7620
  126OSM   C13S13444  -0.233   3.287  15.580  0.0158 -0.1170  0.0005
  126OSM   H13S13445  -0.200   3.371  15.515  0.8098  2.8158  3.8387
  126OSM   H13T13446  -0.194   3.304  15.683 -2.1231 -0.3108  0.8849
  126OSM   C14S13447  -0.386   3.271  15.583 -1.5670 -0.4298  0.0885
  126OSM   H14S13448  -0.415   3.372  15.618 -1.1648 -0.2526 -0.0896
  126OSM   H14T13449  -0.423   3.191  15.651  0.6661 -1.7136 -0.0944
  126OSM   C15S13450  -0.437   3.276  15.435  0.4127 -0.2435  0.1019
  126OSM   H15S13451  -0.393   3.198  15.370  3.8391  0.6616  1.1188
  126OSM   H15T13452  -0.412   3.373  15.386 -1.7621 -0.6071 -1.8800
  126OSM   C16S13453  -0.588   3.291  15.437 -0.5251 -0.1713  0.1110
  126OSM   H16S13454  -0.624   3.383  15.488  0.4489 -0.6432  1.7544
  126OSM   H16T13455  -0.625   3.206  15.499 -1.7284  0.9293  0.9629
  126OSM   C17S13456  -0.652   3.264  15.295  0.1944 -0.4067  0.0908
  126OSM   H17S13457  -0.612   3.168  15.257 -1.7969 -1.0149 -0.6229
  126OSM   H17T13458  -0.610   3.339  15.225  0.9731 -1.2788 -0.3965
  126OSM   C18S13459  -0.805   3.262  15.286  0.2976 -0.2578 -0.8072
  126OSM   H18S13460  -0.846   3.164  15.318 -0.4774  0.2814 -0.0987
  126OSM   H18T13461  -0.824   3.260  15.176  1.0671  1.7723 -1.0254
  126OSM   H18U13462  -0.858   3.346  15.335 -0.6688  1.5474 -4.5820
  126OSM    C1F13463   0.767   2.705  14.681  0.2691 -0.6375  0.0198
  126OSM     OF13464   0.837   2.626  14.743 -0.4766  0.1025  0.0456
  126OSM    C2F13465   0.714   2.683  14.543 -0.5477 -0.1079  0.3546
  126OSM    H2F13466   0.803   2.681  14.476 -0.7646  1.9982 -0.0846
  126OSM    H2G13467   0.658   2.777  14.523 -1.0429 -0.3770  0.4780
  126OSM    C3F13468   0.607   2.575  14.534 -0.7270  0.0744 -0.0458
  126OSM    H3F13469   0.630   2.483  14.592  2.7714  0.0996 -1.1556
  126OSM    H3G13470   0.590   2.563  14.425 -3.1557  0.1830  0.2805
  126OSM    C4F13471   0.472   2.622  14.595 -0.0329 -1.4144 -0.2394
  126OSM    H4F13472   0.382   2.611  14.529 -1.5680  2.8013  0.8024
  126OSM    H4G13473   0.490   2.732  14.592  1.5097 -1.6739 -1.7352
  126OSM    C5F13474   0.445   2.586  14.741  0.0868 -0.2086 -0.1591
  126OSM    H5F13475   0.520   2.635  14.808 -1.4933  0.1698  1.4182
  126OSM    H5G13476   0.459   2.476  14.747  0.3108 -0.2797 -1.6280
  126OSM    C6F13477   0.311   2.640  14.794  0.0066  0.1270 -0.3971
  126OSM    H6F13478   0.238   2.586  14.729 -0.3460 -1.5460  1.3026
  126OSM    H6G13479   0.294   2.747  14.770 -0.7457  0.2561  0.6560
  126OSM    C7F13480   0.280   2.606  14.939  0.1611 -0.2493 -0.5608
  126OSM    H7F13481   0.352   2.656  15.008 -1.6095  1.7853 -0.0693
  126OSM    H7G13482   0.288   2.495  14.943 -0.7726 -0.3876 -1.7966
  126OSM    C8F13483   0.134   2.652  14.979 -0.1210 -0.3884  0.7055
  126OSM    H8F13484   0.069   2.619  14.896  2.8276 -1.5568 -1.2935
  126OSM    H8G13485   0.126   2.763  14.987 -1.0550 -0.4593  0.7670
  126OSM    C9F13486   0.110   2.579  15.112  0.0234  0.2550 -0.1471
  126OSM    H9F13487   0.147   2.475  15.119 -0.1760  0.1748 -0.2895
  126OSM   C10F13488   0.038   2.619  15.219 -0.0952  0.0868 -0.1888
  126OSM   H10F13489   0.016   2.560  15.309 -2.0862  1.0239 -0.0091
  126OSM   C11F13490  -0.030   2.753  15.225 -0.4901 -0.3353  0.2321
  126OSM   H11F13491  -0.091   2.755  15.132 -1.0171 -1.0501  0.5514
  126OSM   H11G13492   0.044   2.833  15.206 -1.0692 -0.1126 -1.2131
  126OSM   C12F13493  -0.124   2.776  15.345 -0.6035  0.6765 -0.1053
  126OSM   H12F13494  -0.140   2.886  15.347  1.9548  1.1018  1.5430
  126OSM   H12G13495  -0.079   2.746  15.442 -0.3776  2.3302  0.3416
  126OSM   C13F13496  -0.266   2.700  15.331 -0.4972 -1.7267  0.0095
  126OSM   H13F13497  -0.256   2.590  15.332  1.1953 -1.6661 -1.7519
  126OSM   H13G13498  -0.306   2.720  15.229 -2.5162 -2.8066  0.5536
  126OSM   C14F13499  -0.369   2.736  15.437  0.2212  0.4169  0.5128
  126OSM   H14F13500  -0.317   2.704  15.529 -1.1981 -0.9938  0.8766
  126OSM   H14G13501  -0.446   2.663  15.405  0.1583  0.4019  0.6958
  126OSM   C15F13502  -0.435   2.878  15.432 -0.9011 -0.4751  0.2142
  126OSM   H15F13503  -0.478   2.893  15.331 -2.5418  0.1025  0.9582
  126OSM   H15G13504  -0.344   2.942  15.434  0.0414 -1.6884 -1.6056
  126OSM   C16F13505  -0.533   2.910  15.545  0.3155 -0.9073  0.2573
  126OSM   H16F13506  -0.588   3.002  15.514  0.3368 -0.6565  0.9348
  126OSM   H16G13507  -0.467   2.938  15.630  1.0977  1.5821 -1.0528
  126OSM   C17F13508  -0.641   2.797  15.569  0.5174  0.5704  0.7639
  126OSM   H17F13509  -0.694   2.813  15.665  1.6948  2.1260  1.2003
  126OSM   H17G13510  -0.590   2.698  15.576  1.4176  0.9611 -0.0054
  126OSM   C18F13511  -0.753   2.780  15.464  0.2404 -0.2448 -0.1550
  126OSM   H18F13512  -0.721   2.698  15.396  3.3891 -0.2010  1.1130
  126OSM   H18G13513  -0.764   2.878  15.413  4.5628  0.4212 -0.1881
  126OSM   H18H13514  -0.851   2.741  15.501 -0.9995  1.1445 -1.8088
  127OSM      N13515   1.701   1.333  17.618  0.4151  0.0070  0.4956
  127OSM    C1513516   1.571   1.393  17.600  0.1221 -0.1175  0.4131
  127OSM   H15A13517   1.554   1.446  17.507  0.2087  0.9576  0.9937
  127OSM   H15B13518   1.549   1.463  17.679  0.7059  0.1106  0.3809
  127OSM   H15C13519   1.492   1.322  17.614 -0.2410 -0.3044 -2.0855
  127OSM    C1413520   1.711   1.264  17.757  0.0346  0.1283  0.8744
  127OSM   H14A13521   1.659   1.170  17.770  0.7244 -0.1944  1.3933
  127OSM   H14B13522   1.691   1.336  17.835  2.6126  0.8507  0.9503
  127OSM   H14C13523   1.816   1.248  17.777  0.0137 -2.1282 -0.4907
  127OSM    C1313524   1.711   1.231  17.499 -0.1343  0.3258  0.0662
  127OSM   H13A13525   1.634   1.156  17.501 -0.6394  0.8517  0.4247
  127OSM   H13B13526   1.811   1.196  17.521  0.9695  2.6189 -0.9596
  127OSM   H13C13527   1.717   1.286  17.406  1.2442  0.8438  0.4245
  127OSM    C1213528   1.806   1.440  17.598  0.3553 -0.3737 -0.7544
  127OSM   H12A13529   1.790   1.504  17.683  0.6985 -0.4842 -0.6047
  127OSM   H12B13530   1.779   1.502  17.513  1.0299  1.0437  0.0346
  127OSM    C1113531   1.958   1.412  17.595  1.3994 -0.4555  0.4424
  127OSM   H11A13532   1.992   1.359  17.687  1.7329 -1.1827 -0.0921
  127OSM   H11B13533   2.003   1.513  17.603  0.7531 -0.1046 -0.2254
  127OSM      P13534   2.035   1.403  17.342  0.2774  0.3118 -0.1666
  127OSM    O1313535   2.111   1.314  17.252  0.2535 -0.5044  0.0744
  127OSM    O1413536   1.911   1.469  17.292  0.3650  0.8554 -0.0242
  127OSM    O1113537   2.125   1.526  17.374 -0.8966  0.0524  0.0482
  127OSM    O1213538   1.997   1.334  17.484  0.0413 -0.1346  0.2938
  127OSM    C1S13539   2.234   1.546  17.458 -0.0047  0.2528 -0.0774
  127OSM    H1S13540   2.233   1.479  17.546 -0.0944  0.0332 -0.2459
  127OSM    H1T13541   2.231   1.652  17.491 -0.5662  0.2116  0.0145
  127OSM     NF13542   2.486   1.546  17.480 -0.3034 -0.3773  0.1292
  127OSM    HNF13543   2.532   1.634  17.468  0.1327 -0.5478  0.5326
  127OSM    C2S13544   2.374   1.536  17.387  0.0172 -0.2624  0.1740
  127OSM    H2S13545   2.377   1.436  17.340  2.5672 -0.3179  0.3640
  127OSM    C3S13546   2.390   1.646  17.272 -0.7789  0.0097  0.1732
  127OSM    H3S13547   2.380   1.749  17.312  0.6523  0.0323  0.5350
  127OSM     O313548   2.301   1.625  17.163  0.6166 -0.3992 -0.0397
  127OSM    HO313549   2.239   1.560  17.198 -2.1686  1.6612 -0.8288
  127OSM    C4S13550   2.524   1.630  17.204 -0.5254 -0.1491 -0.5574
  127OSM    H4S13551   2.522   1.549  17.129 -1.0931  0.5432 -1.3141
  127OSM    C5S13552   2.635   1.701  17.229 -0.3696  0.5896  0.0045
  127OSM    H5S13553   2.630   1.756  17.325 -2.9250  1.6720 -0.6647
  127OSM    C6S13554   2.767   1.673  17.165 -0.0056  0.4844 -0.8624
  127OSM    H6S13555   2.846   1.666  17.242  0.3016  0.5305 -1.1685
  127OSM    H6T13556   2.789   1.762  17.101  2.1921  0.1424 -0.6598
  127OSM    C7S13557   2.778   1.548  17.079 -0.2161  0.4468 -0.3195
  127OSM    H7S13558   2.697   1.540  17.004 -1.5511 -2.5316  1.2642
  127OSM    H7T13559   2.770   1.465  17.153 -0.2447 -0.1488 -0.9725
  127OSM    C8S13560   2.916   1.540  17.008  0.6450  0.0724  0.6651
  127OSM    H8S13561   2.927   1.445  16.952  0.1953  0.2566  0.2471
  127OSM    H8T13562   3.001   1.541  17.079  1.3946 -2.3091 -0.0998
  127OSM    C9S13563   2.931   1.649  16.899 -1.1032 -0.6791  0.2075
  127OSM    H9S13564   2.950   1.746  16.951 -2.8292 -0.8612  1.2263
  127OSM    H9T13565   2.833   1.657  16.847 -0.4394 -0.1338 -1.0134
  127OSM   C10S13566   3.038   1.614  16.790 -0.1184 -0.1904  0.0643
  127OSM   H10S13567   3.034   1.681  16.701  2.5239 -1.1507 -0.8694
  127OSM   H10T13568   3.012   1.514  16.749  0.7420 -0.2497 -0.3387
  127OSM   C11S13569   3.180   1.626  16.848 -0.3570  0.0412  0.0911
  127OSM   H11S13570   3.185   1.561  16.937  1.4430 -0.3912 -0.2835
  127OSM   H11T13571   3.198   1.727  16.890 -0.6533 -0.2132  0.8368
  127OSM   C12S13572   3.304   1.585  16.758 -0.7273 -1.0123 -0.3246
  127OSM   H12S13573   3.302   1.474  16.754  2.3789 -1.1916  0.5831
  127OSM   H12T13574   3.392   1.610  16.821 -0.0574  0.0753 -1.6217
  127OSM   C13S13575   3.313   1.633  16.611  0.0168 -0.5979  0.1802
  127OSM   H13S13576   3.339   1.741  16.603  0.7846 -0.8825 -2.0332
  127OSM   H13T13577   3.217   1.619  16.557 -0.3637  1.1954  0.3166
  127OSM   C14S13578   3.433   1.572  16.542  0.7086 -0.3402  0.7577
  127OSM   H14S13579   3.420   1.462  16.546 -0.1993 -0.2348  1.0102
  127OSM   H14T13580   3.525   1.587  16.603  1.1027 -0.5895  0.2210
  127OSM   C15S13581   3.462   1.629  16.399 -0.4103  0.6432 -1.0789
  127OSM   H15S13582   3.447   1.739  16.411  2.3595  0.9284  0.6242
  127OSM   H15T13583   3.380   1.605  16.329  0.9381 -1.3131 -2.0586
  127OSM   C16S13584   3.593   1.588  16.344 -0.3009  0.1310  0.2352
  127OSM   H16S13585   3.587   1.608  16.235  0.8611 -0.2930  0.0778
  127OSM   H16T13586   3.597   1.477  16.345 -0.4253  0.1259  0.7841
  127OSM   C17S13587   3.716   1.655  16.399  0.4245  0.2920 -0.0770
  127OSM   H17S13588   3.749   1.607  16.494  2.3544  0.7320 -0.4703
  127OSM   H17T13589   3.699   1.764  16.408 -0.9112  0.2644 -1.8147
  127OSM   C18S13590   3.837   1.674  16.299  0.2107  0.5762  0.0836
  127OSM   H18S13591   3.824   1.752  16.220 -1.6219 -0.2446 -0.4736
  127OSM   H18T13592   3.855   1.575  16.253 -0.8359 -0.6517  2.1575
  127OSM   H18U13593   3.930   1.694  16.355  1.5254 -1.9539 -1.0674
  127OSM    C1F13594   2.527   1.453  17.567  0.0190 -0.1909  0.7381
  127OSM     OF13595   2.450   1.367  17.614 -0.5091  0.2502 -0.3731
  127OSM    C2F13596   2.669   1.466  17.611 -0.8965  0.0091  0.3896
  127OSM    H2F13597   2.719   1.512  17.523  0.2268 -3.9456 -1.2975
  127OSM    H2G13598   2.704   1.362  17.628 -2.6736 -0.7355 -0.1871
  127OSM    C3F13599   2.689   1.549  17.734  0.0251  0.0857 -0.2381
  127OSM    H3F13600   2.649   1.496  17.823  1.4075  1.5675  1.3468
  127OSM    H3G13601   2.648   1.652  17.733 -0.4918 -0.0877  1.0740
  127OSM    C4F13602   2.835   1.570  17.778 -0.7137  0.4609  0.1464
  127OSM    H4F13603   2.871   1.469  17.806 -0.0610  0.9402  1.0774
  127OSM    H4G13604   2.841   1.645  17.860  1.8903 -0.9360  1.3503
  127OSM    C5F13605   2.937   1.612  17.666  0.4334  0.3438 -0.8636
  127OSM    H5F13606   2.941   1.535  17.587 -0.1879 -0.5690 -0.0249
  127OSM    H5G13607   3.038   1.624  17.711 -0.0548 -1.0340  0.6873
  127OSM    C6F13608   2.914   1.752  17.615 -0.4943 -0.1806 -0.9393
  127OSM    H6F13609   2.909   1.828  17.696  0.9352 -0.0570 -0.9415
  127OSM    H6G13610   2.817   1.751  17.561  0.0480  1.5472 -2.0232
  127OSM    C7F13611   3.024   1.798  17.517 -0.2495  1.0734 -0.0557
  127OSM    H7F13612   3.057   1.712  17.455 -0.1057  0.8152  0.3669
  127OSM    H7G13613   3.107   1.840  17.579 -2.2822  0.9955  2.9169
  127OSM    C8F13614   2.974   1.905  17.417  0.3336  0.7607 -0.2763
  127OSM    H8F13615   2.889   1.863  17.359 -1.8699  2.3017  1.6336
  127OSM    H8G13616   3.046   1.923  17.335  0.3409 -0.6433 -0.5977
  127OSM    C9F13617   2.928   2.031  17.483 -0.0808 -0.0918 -0.2681
  127OSM    H9F13618   2.827   2.026  17.527  0.2434  1.4158  0.7249
  127OSM   C10F13619   3.003   2.148  17.484 -0.1411 -0.1546 -0.5752
  127OSM   H10F13620   2.972   2.238  17.539  0.4870  0.2297 -0.8434
  127OSM   C11F13621   3.138   2.153  17.428  0.0175 -0.0432  0.5827
  127OSM   H11F13622   3.155   2.260  17.401 -0.3911  0.8101  3.4018
  127OSM   H11G13623   3.140   2.102  17.329 -0.2112 -0.9998  1.0650
  127OSM   C12F13624   3.253   2.112  17.521  0.1527 -0.7079 -0.1784
  127OSM   H12F13625   3.343   2.114  17.457  0.9768  0.1750  0.9676
  127OSM   H12G13626   3.230   2.010  17.558  0.4324 -0.4361  0.7639
  127OSM   C13F13627   3.261   2.193  17.652  0.0945  0.0958  0.3286
  127OSM   H13F13628   3.182   2.153  17.719 -0.4928 -3.7130 -2.3510
  127OSM   H13G13629   3.234   2.299  17.633 -1.2591 -0.2905  0.0713
  127OSM   C14F13630   3.398   2.182  17.719 -1.3168 -0.4268 -0.0484
  127OSM   H14F13631   3.435   2.077  17.720 -2.5823 -0.8832  0.3505
  127OSM   H14G13632   3.389   2.229  17.819 -1.8276 -1.1918  0.2724
  127OSM   C15F13633   3.501   2.281  17.658 -0.2487 -0.4090  0.3503
  127OSM   H15F13634   3.443   2.373  17.636  2.4168  1.1641 -0.6003
  127OSM   H15G13635   3.515   2.234  17.558 -2.6373  0.8983 -0.6893
  127OSM   C16F13636   3.624   2.306  17.741 -0.5421  0.1066 -0.6196
  127OSM   H16F13637   3.679   2.210  17.752  0.3518  0.7075  0.3170
  127OSM   H16G13638   3.608   2.342  17.844  1.6019  1.9188 -0.8540
  127OSM   C17F13639   3.698   2.421  17.671  0.1184  0.0313 -0.2285
  127OSM   H17F13640   3.641   2.514  17.691 -2.5390 -1.4086 -0.6205
  127OSM   H17G13641   3.684   2.400  17.563  2.1304 -2.1467 -0.1495
  127OSM   C18F13642   3.852   2.424  17.705 -0.0118 -0.2463 -0.5263
  127OSM   H18F13643   3.895   2.490  17.627  1.5748  2.1083  2.1754
  127OSM   H18G13644   3.896   2.322  17.716  1.5376  0.5473  1.1368
  127OSM   H18H13645   3.866   2.474  17.803  0.8846 -1.8811  0.2144
  128OSM      N13646   2.050   2.280  12.857  0.7231 -0.3775 -0.3700
  128OSM    C1513647   1.955   2.347  12.761 -0.5311 -0.3249  0.7510
  128OSM   H15A13648   1.995   2.440  12.725  0.7225 -0.0980  2.5881
  128OSM   H15B13649   1.857   2.364  12.804 -0.4392 -2.0315  1.7495
  128OSM   H15C13650   1.927   2.282  12.680  0.5015  1.6292 -1.2663
  128OSM    C1413651   1.971   2.155  12.903 -0.1838  0.4985 -0.0533
  128OSM   H14A13652   1.981   2.078  12.828  3.0196 -1.2291  1.9017
  128OSM   H14B13653   1.872   2.179  12.938 -0.5219 -0.8217 -0.0611
  128OSM   H14C13654   2.023   2.114  12.989 -1.8454  0.8595  1.1649
  128OSM    C1313655   2.180   2.231  12.789 -1.4797 -0.4829 -0.4638
  128OSM   H13A13656   2.148   2.189  12.695  1.9348  1.0412 -2.5004
  128OSM   H13B13657   2.240   2.167  12.852 -1.3766  1.9755  2.1558
  128OSM   H13C13658   2.243   2.317  12.772  0.4628 -1.8181 -0.3819
  128OSM    C1213659   2.085   2.372  12.974  0.2710 -0.2195  0.0485
  128OSM   H12A13660   1.996   2.423  13.006 -0.3279 -0.9753 -0.3767
  128OSM   H12B13661   2.148   2.448  12.929 -0.4889 -1.1952 -2.9096
  128OSM    C1113662   2.155   2.316  13.091 -0.8113  0.7365 -0.1580
  128OSM   H11A13663   2.093   2.236  13.136  0.6088 -0.1704  0.2413
  128OSM   H11B13664   2.164   2.397  13.166 -0.4149  0.1772  0.4052
  128OSM      P13665   2.401   2.365  13.021  0.0134  0.2836 -0.1000
  128OSM    O1313666   2.507   2.282  12.957 -0.1646  0.2118 -0.4931
  128OSM    O1413667   2.358   2.490  12.947 -0.0436  0.5110 -0.5501
  128OSM    O1113668   2.451   2.400  13.172 -0.4674  0.2140  0.2882
  128OSM    O1213669   2.284   2.268  13.063  0.0781  0.9946 -0.1127
  128OSM    C1S13670   2.530   2.299  13.238  0.4190  0.0317  0.6606
  128OSM    H1S13671   2.621   2.275  13.179 -1.1046  0.7543 -2.1253
  128OSM    H1T13672   2.469   2.210  13.263  1.8758 -0.9161  0.9716
  128OSM     NF13673   2.691   2.246  13.426 -0.5078 -0.3329  0.7875
  128OSM    HNF13674   2.655   2.171  13.483  0.9657 -1.6215  0.0922
  128OSM    C2S13675   2.599   2.347  13.371  0.2668  1.1482  0.8192
  128OSM    H2S13676   2.660   2.431  13.331 -1.0897  1.0437 -1.6421
  128OSM    C3S13677   2.491   2.399  13.466  0.1149 -0.7494 -0.5112
  128OSM    H3S13678   2.431   2.311  13.499  0.9392 -0.7338  1.1506
  128OSM     O313679   2.394   2.493  13.432  0.5585 -0.0053  0.0546
  128OSM    HO313680   2.440   2.528  13.356  1.2623 -0.4086  0.2860
  128OSM    C4S13681   2.563   2.443  13.598 -0.3032  0.7274 -0.4009
  128OSM    H4S13682   2.651   2.506  13.582  0.8325 -0.4025  1.2092
  128OSM    C5S13683   2.534   2.406  13.723  0.4638 -0.0341 -0.3095
  128OSM    H5S13684   2.433   2.368  13.742  0.3241  0.6337  0.3126
  128OSM    C6S13685   2.624   2.421  13.841  0.1687  0.3362 -0.3579
  128OSM    H6S13686   2.556   2.460  13.919 -0.2595  1.9961 -1.5130
  128OSM    H6T13687   2.707   2.492  13.818  1.8345 -1.1964  0.6245
  128OSM    C7S13688   2.678   2.279  13.880  0.5672 -0.0459 -0.1633
  128OSM    H7S13689   2.747   2.246  13.800  1.3603  1.3870 -0.1164
  128OSM    H7T13690   2.599   2.203  13.866  1.0152 -0.4513 -0.5093
  128OSM    C8S13691   2.746   2.280  14.011  0.3075  0.2304 -0.3052
  128OSM    H8S13692   2.681   2.313  14.095 -0.6229  0.3570 -1.0690
  128OSM    H8T13693   2.826   2.356  14.003  0.3987  0.0899 -0.7549
  128OSM    C9S13694   2.805   2.144  14.047 -0.0763 -0.1347 -0.0555
  128OSM    H9S13695   2.879   2.154  14.130  2.1215 -1.2883 -1.7743
  128OSM    H9T13696   2.859   2.110  13.957 -0.7228 -0.8754 -0.1695
  128OSM   C10S13697   2.705   2.028  14.085 -0.3137  0.4019  0.7139
  128OSM   H10S13698   2.767   1.937  14.072  0.5361  1.3077 -2.2495
  128OSM   H10T13699   2.624   2.036  14.009  0.6572 -1.8087 -0.6843
  128OSM   C11S13700   2.655   2.036  14.232 -0.7608  0.3280 -0.6721
  128OSM   H11S13701   2.559   1.980  14.234 -0.4895 -0.1675 -1.1585
  128OSM   H11T13702   2.631   2.142  14.256 -1.1367  0.1685 -0.3318
  128OSM   C12S13703   2.751   1.975  14.336  0.4720  0.8070 -0.3509
  128OSM   H12S13704   2.856   1.996  14.307  0.3908  1.4658 -0.1823
  128OSM   H12T13705   2.753   1.863  14.338  4.0523  0.7643  1.4736
  128OSM   C13S13706   2.724   2.034  14.476  0.0044 -0.5243  0.8363
  128OSM   H13S13707   2.618   2.031  14.511 -0.1851 -0.2556  0.2982
  128OSM   H13T13708   2.752   2.141  14.468  2.1389 -1.0728  0.3973
  128OSM   C14S13709   2.820   1.995  14.593  0.2205  0.2700  0.5885
  128OSM   H14S13710   2.807   2.072  14.672 -2.0289  2.2051 -1.5205
  128OSM   H14T13711   2.919   2.005  14.543 -0.1966 -0.2996 -0.3829
  128OSM   C15S13712   2.772   1.863  14.644  0.5367 -0.0466  0.5579
  128OSM   H15S13713   2.778   1.784  14.565 -2.8673  0.1896 -0.0783
  128OSM   H15T13714   2.667   1.870  14.677  0.3688  3.2497 -0.3398
  128OSM   C16S13715   2.859   1.811  14.761  0.1663 -0.4246 -0.1216
  128OSM   H16S13716   2.840   1.868  14.855  0.5667  1.0677 -0.9154
  128OSM   H16T13717   2.963   1.816  14.724  0.3184 -1.9642  0.0084
  128OSM   C17S13718   2.811   1.668  14.799  0.0580  0.5465 -0.2118
  128OSM   H17S13719   2.801   1.609  14.706 -0.1329  0.4656 -0.1405
  128OSM   H17T13720   2.706   1.674  14.835 -0.2621  1.6320 -1.2581
  128OSM   C18S13721   2.895   1.599  14.907 -0.3965  0.1275 -0.0845
  128OSM   H18S13722   2.962   1.517  14.873  0.6656  0.2377  1.6247
  128OSM   H18T13723   2.837   1.555  14.990 -0.3207 -0.8693 -0.5359
  128OSM   H18U13724   2.957   1.681  14.949 -1.1440 -0.6063  2.6115
  128OSM    C1F13725   2.813   2.221  13.369  0.0796 -0.4694  0.5110
  128OSM     OF13726   2.851   2.282  13.268  0.1608 -0.2870  0.1492
  128OSM    C2F13727   2.886   2.104  13.429  0.0502 -0.3569  0.6340
  128OSM    H2F13728   2.899   2.033  13.344 -1.6528  0.7269 -0.6099
  128OSM    H2G13729   2.827   2.052  13.507 -0.7307 -1.4600 -0.6586
  128OSM    C3F13730   3.011   2.159  13.485  0.2008  0.9969 -0.8101
  128OSM    H3F13731   2.990   2.234  13.564 -0.6727 -1.1366  1.1024
  128OSM    H3G13732   3.075   2.202  13.404  0.1947 -2.1032 -2.6204
  128OSM    C4F13733   3.106   2.058  13.555 -0.3974 -0.6847  0.2525
  128OSM    H4F13734   3.197   2.105  13.597  1.3265 -2.5211 -1.2490
  128OSM    H4G13735   3.137   1.973  13.491 -0.3364  0.1385 -0.8273
  128OSM    C5F13736   3.028   1.998  13.675  0.0313  0.6395 -0.2890
  128OSM    H5F13737   2.947   1.941  13.625  0.1230  1.4253 -1.3569
  128OSM    H5G13738   2.982   2.079  13.736  0.0289  1.5338 -1.4533
  128OSM    C6F13739   3.102   1.907  13.773  0.0560 -0.0773  0.3702
  128OSM    H6F13740   3.192   1.964  13.803  2.0366 -2.5089 -0.5898
  128OSM    H6G13741   3.154   1.818  13.731  1.3797 -0.2114  2.1768
  128OSM    C7F13742   3.012   1.859  13.888 -0.8377 -1.2493 -0.2852
  128OSM    H7F13743   2.928   1.807  13.837 -1.0106 -0.3831 -0.9149
  128OSM    H7G13744   2.969   1.941  13.950  1.0644 -2.6756  3.2210
  128OSM    C8F13745   3.085   1.760  13.991  0.8899  0.0914 -0.0997
  128OSM    H8F13746   3.189   1.786  14.019  0.7349 -1.6688  2.3717
  128OSM    H8G13747   3.093   1.668  13.929  0.2120  1.5804 -2.5659
  128OSM    C9F13748   3.006   1.723  14.114  0.6001 -0.0518 -0.0969
  128OSM    H9F13749   2.967   1.812  14.164 -0.2548  0.4278 -1.5829
  128OSM   C10F13750   3.003   1.608  14.178 -0.0242  0.9400 -0.5745
  128OSM   H10F13751   2.943   1.593  14.268  0.8345 -0.0238 -0.1315
  128OSM   C11F13752   3.076   1.481  14.135  0.6030 -0.4674  0.1293
  128OSM   H11F13753   3.068   1.474  14.025 -0.2989  3.6875 -0.2154
  128OSM   H11G13754   3.030   1.387  14.173  0.0711 -0.4062 -0.3528
  128OSM   C12F13755   3.218   1.477  14.183  0.1544 -0.8500  0.2495
  128OSM   H12F13756   3.230   1.458  14.292  0.3043 -1.1534  0.1837
  128OSM   H12G13757   3.276   1.571  14.170 -0.8987  0.0498  1.8310
  128OSM   C13F13758   3.291   1.376  14.100 -0.5507 -0.2091 -0.4856
  128OSM   H13F13759   3.323   1.415  14.001  1.3272 -1.8015 -0.5894
  128OSM   H13G13760   3.223   1.289  14.085  1.6239 -2.8865  3.4586
  128OSM   C14F13761   3.421   1.317  14.173 -0.2523  0.9456 -0.4744
  128OSM   H14F13762   3.408   1.300  14.282 -0.1784 -0.3841 -0.6642
  128OSM   H14G13763   3.486   1.405  14.152 -0.1995  0.6669 -1.5458
  128OSM   C15F13764   3.458   1.186  14.104  0.2490  0.0598  0.2487
  128OSM   H15F13765   3.567   1.168  14.120  0.3886  1.2659  0.7417
  128OSM   H15G13766   3.461   1.223  14.000 -0.8989 -0.0404  0.1708
  128OSM   C16F13767   3.367   1.066  14.126  0.2610  0.4361  0.1717
  128OSM   H16F13768   3.288   1.081  14.049  1.4269 -1.3664 -1.4748
  128OSM   H16G13769   3.328   1.059  14.229  0.2323 -1.8194  0.0415
  128OSM   C17F13770   3.425   0.923  14.105  0.3200 -0.7439  0.1744
  128OSM   H17F13771   3.481   0.890  14.195 -0.1078 -0.1673  0.6638
  128OSM   H17G13772   3.495   0.940  14.020  2.2831 -0.7383  1.7303
  128OSM   C18F13773   3.319   0.823  14.065  0.2774 -0.0222  0.1122
  128OSM   H18F13774   3.258   0.785  14.150  1.3319 -1.6147  0.1870
  128OSM   H18G13775   3.381   0.742  14.020 -0.2247 -0.9874  1.1131
  128OSM   H18H13776   3.254   0.856  13.980  0.7220 -3.7181 -1.8765
  129OSM      N13777   1.546   2.598  18.383 -0.1727  0.6747  0.1167
  129OSM    C1513778   1.543   2.711  18.281  0.0658  0.1033  0.0338
  129OSM   H15A13779   1.495   2.799  18.322  1.1610 -0.1012  1.8280
  129OSM   H15B13780   1.484   2.695  18.191 -1.0740  0.1948  0.7369
  129OSM   H15C13781   1.636   2.745  18.239 -1.5887  1.9931 -2.4411
  129OSM    C1413782   1.416   2.591  18.460  0.1784 -0.3272  0.3784
  129OSM   H14A13783   1.407   2.506  18.526 -3.5184 -1.3421 -1.1902
  129OSM   H14B13784   1.328   2.584  18.398 -0.0429  1.8289  0.3944
  129OSM   H14C13785   1.395   2.676  18.523 -1.1152 -0.4039  0.0785
  129OSM    C1313786   1.579   2.478  18.307  0.1374 -0.0300  0.8496
  129OSM   H13A13787   1.594   2.395  18.375 -0.8743  0.0268  1.1611
  129OSM   H13B13788   1.655   2.498  18.233 -0.7862 -0.8544 -0.3663
  129OSM   H13C13789   1.495   2.446  18.247  0.1034  1.4402  0.0659
  129OSM    C1213790   1.659   2.614  18.486 -0.3551  0.1040  0.1333
  129OSM   H12A13791   1.641   2.704  18.543 -2.1093 -0.0860 -0.0680
  129OSM   H12B13792   1.751   2.630  18.431 -2.3983  0.5985 -3.4896
  129OSM    C1113793   1.688   2.498  18.594  0.1770 -0.7203 -0.0181
  129OSM   H11A13794   1.596   2.485  18.656 -0.2889 -0.5140 -0.6586
  129OSM   H11B13795   1.778   2.529  18.652  0.0343 -1.9595  0.8964
  129OSM      P13796   1.758   2.248  18.602  0.2767  0.1543 -0.2079
  129OSM    O1313797   1.638   2.160  18.621  0.1858 -1.3787 -0.1026
  129OSM    O1413798   1.867   2.182  18.527  0.4741 -0.0471 -0.3372
  129OSM    O1113799   1.811   2.302  18.744 -0.0040  0.4682 -0.5051
  129OSM    O1213800   1.721   2.379  18.533  0.3370  0.0926  0.4290
  129OSM    C1S13801   1.883   2.197  18.810 -0.1349  0.7385 -0.3141
  129OSM    H1S13802   1.984   2.186  18.764 -1.2890  1.7806 -3.3618
  129OSM    H1T13803   1.825   2.103  18.824 -1.8013  1.9804  1.6044
  129OSM     NF13804   1.974   2.133  19.023 -0.5949 -0.2508 -0.1831
  129OSM    HNF13805   1.912   2.077  19.076 -1.9671  2.1376  0.8867
  129OSM    C2S13806   1.903   2.235  18.963  0.3255  0.4069  0.9878
  129OSM    H2S13807   1.957   2.333  18.962 -0.1613  0.7104 -1.1647
  129OSM    C3S13808   1.763   2.256  19.024 -0.5273 -0.0234  0.3029
  129OSM    H3S13809   1.705   2.162  19.011  0.9594 -1.1872  1.7282
  129OSM     O313810   1.684   2.359  18.968 -0.0296  0.8952  0.2361
  129OSM    HO313811   1.713   2.352  18.877 -0.7941 -0.0587  0.0503
  129OSM    C4S13812   1.775   2.277  19.171 -0.2848  0.4535  0.3114
  129OSM    H4S13813   1.752   2.184  19.226  0.1275  0.0552 -0.1751
  129OSM    C5S13814   1.816   2.388  19.231  0.4308 -0.1577  0.1622
  129OSM    H5S13815   1.838   2.481  19.176 -0.0662  0.4263  0.9371
  129OSM    C6S13816   1.828   2.405  19.382  0.7039  0.0787 -0.1826
  129OSM    H6S13817   1.779   2.500  19.413 -0.0952 -0.5612  0.5761
  129OSM    H6T13818   1.929   2.417  19.426 -0.0971  2.1561  1.2750
  129OSM    C7S13819   1.754   2.288  19.458  0.0555 -0.3530 -0.0312
  129OSM    H7S13820   1.803   2.193  19.429  2.2113  0.7881 -0.3465
  129OSM    H7T13821   1.646   2.278  19.432  0.0046 -2.3126  0.7268
  129OSM    C8S13822   1.774   2.298  19.609 -0.4874  0.1758  0.0360
  129OSM    H8S13823   1.877   2.323  19.644 -0.5418  0.4640 -0.0068
  129OSM    H8T13824   1.745   2.205  19.661 -1.2929  1.3790  1.8455
  129OSM    C9S13825   1.669   2.395  19.667  0.4262  0.1059 -0.3069
  129OSM    H9S13826   1.568   2.350  19.651  0.1261  0.5393  0.3087
  129OSM    H9T13827   1.672   2.495  19.618  2.1926 -1.0574 -2.7381
  129OSM   C10S13828   1.663   2.410  19.822  0.2247 -0.1451  0.5188
  129OSM   H10S13829   1.748   2.477  19.848 -0.5645  0.8414  0.5832
  129OSM   H10T13830   1.683   2.318  19.881  0.9561 -0.5659 -0.3505
  129OSM   C11S13831   1.529   2.477  19.866 -0.5448  0.1956  0.4966
  129OSM   H11S13832   1.442   2.425  19.821  0.7886 -0.1306 -1.8725
  129OSM   H11T13833   1.531   2.569  19.804  1.1021 -0.8080 -1.0467
  129OSM   C12S13834   1.516   2.505  20.018  0.1301 -0.0133 -0.3869
  129OSM   H12S13835   1.590   2.584  20.043 -0.3003 -0.0513  1.0621
  129OSM   H12T13836   1.548   2.419  20.081  0.7956  0.6959  0.2574
  129OSM   C13S13837   1.371   2.540  20.059 -1.0916 -0.5486 -0.2017
  129OSM   H13S13838   1.309   2.449  20.039  1.5805 -1.9170 -3.1580
  129OSM   H13T13839   1.336   2.626  19.998  0.9165 -0.0157 -0.6646
  129OSM   C14S13840   1.370   2.590  20.206 -0.0798  0.4348  0.0543
  129OSM   H14S13841   1.270   2.635  20.220 -0.4755 -0.8147  1.4686
  129OSM   H14T13842   1.442   2.674  20.220 -0.1887  0.7006 -0.8805
  129OSM   C15S13843   1.393   2.477  20.304 -0.4865  0.4007 -0.3885
  129OSM   H15S13844   1.490   2.430  20.277  0.4821  3.0073 -1.7348
  129OSM   H15T13845   1.311   2.403  20.294  1.3643 -1.8844  0.1684
  129OSM   C16S13846   1.395   2.518  20.446 -0.5908 -0.8087 -0.2675
  129OSM   H16S13847   1.309   2.584  20.471 -0.5585 -1.1505  0.8210
  129OSM   H16T13848   1.491   2.569  20.471 -0.7365 -0.2131 -0.8804
  129OSM   C17S13849   1.390   2.402  20.538  0.3592  0.3037  0.1313
  129OSM   H17S13850   1.411   2.431  20.643 -0.6683 -2.4800  1.2054
  129OSM   H17T13851   1.477   2.338  20.507 -0.8104 -0.4845 -1.7472
  129OSM   C18S13852   1.269   2.308  20.520 -0.2851 -0.0588 -0.1297
  129OSM   H18S13853   1.298   2.214  20.572 -1.0396  1.0507  2.4949
  129OSM   H18T13854   1.236   2.299  20.415  1.3839  0.2357 -0.7119
  129OSM   H18U13855   1.181   2.358  20.567 -1.4469 -0.7632 -1.4956
  129OSM    C1F13856   2.111   2.116  19.007  0.1833  0.7950 -0.2233
  129OSM     OF13857   2.178   2.201  18.956 -0.4814  0.2595 -0.7959
  129OSM    C2F13858   2.172   1.994  19.072 -0.2728  0.8289  0.5101
  129OSM    H2F13859   2.157   1.905  19.008  0.1119  0.8826  0.3401
  129OSM    H2G13860   2.123   1.964  19.167 -1.1793  3.2463  0.8888
  129OSM    C3F13861   2.330   2.007  19.096  0.3643  0.2498  0.6820
  129OSM    H3F13862   2.350   2.111  19.130 -0.6545  0.1002  1.8129
  129OSM    H3G13863   2.373   2.016  18.994  0.3490  1.4223  0.7614
  129OSM    C4F13864   2.394   1.903  19.192 -0.6253 -0.0208 -0.3467
  129OSM    H4F13865   2.497   1.888  19.153 -1.1054 -0.6109 -1.4342
  129OSM    H4G13866   2.346   1.802  19.199  0.3178 -0.3790  2.2828
  129OSM    C5F13867   2.390   1.949  19.341  0.4921 -0.1064  0.9795
  129OSM    H5F13868   2.285   1.963  19.374 -0.2918  2.8732 -2.1047
  129OSM    H5G13869   2.429   2.053  19.349 -1.8694  1.2076 -2.3051
  129OSM    C6F13870   2.469   1.861  19.434  0.1504 -0.0387  0.3572
  129OSM    H6F13871   2.573   1.853  19.396  0.4237  1.0100  0.8215
  129OSM    H6G13872   2.425   1.761  19.417  1.5085 -0.4997 -0.5892
  129OSM    C7F13873   2.473   1.907  19.578 -0.1177 -0.0546  0.4157
  129OSM    H7F13874   2.368   1.899  19.614 -0.2558 -2.8168 -0.4351
  129OSM    H7G13875   2.493   2.016  19.570  0.3765 -0.2991 -2.6980
  129OSM    C8F13876   2.587   1.837  19.658  0.0265 -0.0574  0.5272
  129OSM    H8F13877   2.681   1.845  19.600  0.6232 -0.5113  1.3915
  129OSM    H8G13878   2.563   1.729  19.652 -1.5846  0.3244 -0.7224
  129OSM    C9F13879   2.598   1.877  19.803 -0.0601  0.4077  0.2186
  129OSM    H9F13880   2.691   1.930  19.825 -0.0990 -0.3495  2.6246
  129OSM   C10F13881   2.524   1.827  19.903  0.2077 -1.2789  0.3036
  129OSM   H10F13882   2.533   1.851  20.010  0.9069 -0.4457  0.0635
  129OSM   C11F13883   2.404   1.745  19.893  0.7698 -0.1616 -0.0264
  129OSM   H11F13884   2.419   1.656  19.958 -1.7992 -1.8962 -1.6254
  129OSM   H11G13885   2.389   1.707  19.789 -1.4526 -0.1188  0.2453
  129OSM   C12F13886   2.263   1.807  19.940  0.4647 -0.2748  0.0433
  129OSM   H12F13887   2.258   1.810  20.051 -2.5796 -0.6996 -0.0038
  129OSM   H12G13888   2.178   1.740  19.916 -1.6475  2.4024 -0.3917
  129OSM   C13F13889   2.225   1.940  19.873  0.0970 -0.2343  0.1369
  129OSM   H13F13890   2.179   1.925  19.773  0.6449 -0.9450 -0.0168
  129OSM   H13G13891   2.320   1.997  19.864  1.0859 -1.8401 -0.0498
  129OSM   C14F13892   2.144   2.035  19.962 -0.6706  0.7138  0.4476
  129OSM   H14F13893   2.110   2.113  19.890 -1.4811 -1.2645 -1.4367
  129OSM   H14G13894   2.202   2.075  20.047  0.9363 -1.5758  0.5331
  129OSM   C15F13895   2.022   1.982  20.042  0.8239  1.2759  0.1757
  129OSM   H15F13896   1.962   2.046  20.110 -1.3916 -2.0984  1.7164
  129OSM   H15G13897   2.054   1.904  20.115  0.9203 -0.3445 -1.5243
  129OSM   C16F13898   1.915   1.919  19.948 -0.3512  0.7352 -0.5806
  129OSM   H16F13899   1.845   1.853  20.004  0.7786  0.0869  0.0991
  129OSM   H16G13900   1.965   1.854  19.872  0.6399 -0.4425  1.0034
  129OSM   C17F13901   1.829   2.011  19.864  1.0254 -0.9443 -0.1998
  129OSM   H17F13902   1.894   2.060  19.788 -0.0873  0.8131 -0.0746
  129OSM   H17G13903   1.783   2.095  19.921 -0.8682 -0.7961 -1.8620
  129OSM   C18F13904   1.720   1.936  19.793  0.6437  0.6104 -0.3192
  129OSM   H18F13905   1.699   1.980  19.693 -0.6333  0.2738 -0.2208
  129OSM   H18G13906   1.626   1.915  19.849  1.3768 -0.2017  0.6340
  129OSM   H18H13907   1.758   1.834  19.770 -0.1924  0.0806  0.5847
  130OSM      N13908   1.230   4.332  17.872  0.0931 -0.6921 -0.0559
  130OSM    C1513909   1.084   4.313  17.846 -0.0618  0.2192 -0.1072
  130OSM   H15A13910   1.057   4.210  17.863 -0.8708  0.0574 -2.1648
  130OSM   H15B13911   1.051   4.339  17.746  0.5398 -0.2839 -0.4408
  130OSM   H15C13912   1.013   4.370  17.904  1.5697  0.9026  1.3214
  130OSM    C1413913   1.267   4.479  17.845  0.5264  0.0533 -0.4662
  130OSM   H14A13914   1.240   4.507  17.744 -0.8177  2.2011  0.4111
  130OSM   H14B13915   1.372   4.492  17.867  0.4626 -0.2757  0.0593
  130OSM   H14C13916   1.207   4.547  17.905  1.2366 -0.4056  0.8142
  130OSM    C1313917   1.243   4.311  18.024  0.0183  0.0594 -0.6678
  130OSM   H13A13918   1.346   4.285  18.047 -0.6111 -1.4534  0.5912
  130OSM   H13B13919   1.181   4.232  18.063  0.2351 -0.4840 -1.3933
  130OSM   H13C13920   1.214   4.395  18.085 -0.7186 -0.5422 -0.1851
  130OSM    C1213921   1.309   4.233  17.795 -0.2584 -0.0781 -0.1870
  130OSM   H12A13922   1.416   4.247  17.809  0.2733 -0.2576 -3.4004
  130OSM   H12B13923   1.290   4.260  17.692 -0.9327 -0.4014 -0.1519
  130OSM    C1113924   1.264   4.084  17.809  0.4128 -0.0162 -1.3152
  130OSM   H11A13925   1.325   4.025  17.738 -0.0455 -1.5091 -0.5179
  130OSM   H11B13926   1.157   4.089  17.777  0.6109  0.4687 -1.9337
  130OSM      P13927   1.207   3.892  17.981  0.1055 -0.2006  0.4657
  130OSM    O1313928   1.240   3.789  17.880 -0.1293 -0.3695  1.1200
  130OSM    O1413929   1.239   3.853  18.119  0.0873  0.4585  0.3537
  130OSM    O1113930   1.050   3.930  17.968  0.1576  0.1314 -0.4331
  130OSM    O1213931   1.286   4.030  17.945  0.1593  0.1222  0.0796
  130OSM    C1S13932   0.997   3.986  18.088 -0.4900 -0.1697  0.0173
  130OSM    H1S13933   1.034   4.090  18.099 -0.2306 -0.3760  1.2632
  130OSM    H1T13934   1.021   3.923  18.176 -1.1951 -1.6850 -0.8305
  130OSM     NF13935   0.799   4.050  18.210  0.4244 -0.6981 -0.2979
  130OSM    HNF13936   0.769   3.983  18.278 -3.3317 -0.5365 -1.5933
  130OSM    C2S13937   0.845   3.991  18.085  1.1376 -0.4997  0.0017
  130OSM    H2S13938   0.806   4.055  18.003 -0.3341  1.4633  2.1043
  130OSM    C3S13939   0.792   3.853  18.055 -0.4992 -0.4788 -0.1358
  130OSM    H3S13940   0.838   3.782  18.128  0.2894  0.4014  0.2367
  130OSM     O313941   0.815   3.794  17.929  0.2510 -0.8355  0.0662
  130OSM    HO313942   0.903   3.822  17.902 -0.5381  0.0376 -1.7335
  130OSM    C4S13943   0.646   3.845  18.076 -0.3250 -0.0530  0.2318
  130OSM    H4S13944   0.619   3.791  18.168 -1.6660  3.3324  2.0080
  130OSM    C5S13945   0.548   3.878  17.992 -0.0506 -0.2285  0.0850
  130OSM    H5S13946   0.571   3.926  17.896 -0.8605 -1.4519 -0.7387
  130OSM    C6S13947   0.400   3.861  18.016  0.0409  0.1953  1.1277
  130OSM    H6S13948   0.387   3.797  18.106 -0.7590  1.1931  1.7409
  130OSM    H6T13949   0.338   3.826  17.930  0.4847  0.2103  0.7987
  130OSM    C7S13950   0.317   3.989  18.034 -0.3784  0.5501 -0.1998
  130OSM    H7S13951   0.318   4.048  17.941  0.5980  0.6196 -0.1553
  130OSM    H7T13952   0.360   4.049  18.117 -0.0809  0.1339 -0.0453
  130OSM    C8S13953   0.176   3.962  18.070  0.6170 -0.6067  0.9347
  130OSM    H8S13954   0.168   3.934  18.177 -1.4517  0.6167  1.1542
  130OSM    H8T13955   0.134   3.894  17.994  0.7402 -0.4693  0.7418
  130OSM    C9S13956   0.102   4.102  18.080 -0.2915 -0.1618 -0.0308
  130OSM    H9S13957   0.112   4.146  17.979  0.6816  0.3115  0.2563
  130OSM    H9T13958   0.151   4.151  18.168  0.7829  1.2495 -1.3500
  130OSM   C10S13959  -0.048   4.083  18.095  0.0413 -0.1347 -0.9192
  130OSM   H10S13960  -0.097   4.044  18.003 -2.2960 -0.1316  0.2689
  130OSM   H10T13961  -0.096   4.178  18.125  1.7658  0.6036 -0.3801
  130OSM   C11S13962  -0.085   3.988  18.209  0.2986  0.7690 -0.2039
  130OSM   H11S13963  -0.046   4.022  18.307  1.3748 -1.3128  0.1532
  130OSM   H11T13964  -0.056   3.881  18.194 -0.5881 -0.0464  3.1040
  130OSM   C12S13965  -0.232   3.988  18.245 -0.1970  0.4907 -0.3575
  130OSM   H12S13966  -0.278   3.925  18.167  0.4894  0.4922 -0.7758
  130OSM   H12T13967  -0.264   4.095  18.240  2.8404  1.4816 -1.7194
  130OSM   C13S13968  -0.269   3.922  18.378 -0.4219 -0.1202 -0.1123
  130OSM   H13S13969  -0.215   3.980  18.456 -0.4737  0.2897 -0.3734
  130OSM   H13T13970  -0.239   3.816  18.376  0.5620  0.1567 -1.0730
  130OSM   C14S13971  -0.417   3.936  18.397  0.0312  0.3077 -0.5404
  130OSM   H14S13972  -0.467   3.903  18.303 -2.5377  2.3763  0.0054
  130OSM   H14T13973  -0.453   4.039  18.414  1.0998  0.9477 -1.9385
  130OSM   C15S13974  -0.465   3.848  18.511 -0.0413  0.0167  0.1726
  130OSM   H15S13975  -0.419   3.747  18.495 -0.3085 -0.1309  0.3381
  130OSM   H15T13976  -0.576   3.845  18.515 -0.0377  0.1485  0.3621
  130OSM   C16S13977  -0.416   3.896  18.653 -0.0282  0.7526  0.2287
  130OSM   H16S13978  -0.460   3.997  18.667 -5.1855 -1.3443  1.8708
  130OSM   H16T13979  -0.307   3.898  18.669  0.1322  2.3874 -0.8579
  130OSM   C17S13980  -0.489   3.817  18.764  0.4723  1.3208  0.2647
  130OSM   H17S13981  -0.598   3.829  18.749  0.8382  3.4755 -1.1437
  130OSM   H17T13982  -0.473   3.863  18.864  0.3832  2.5872 -0.2906
  130OSM   C18S13983  -0.439   3.670  18.773  0.0566 -0.7270  1.5548
  130OSM   H18S13984  -0.335   3.672  18.810  0.9777 -1.6310 -0.7844
  130OSM   H18T13985  -0.422   3.635  18.669  3.9859 -1.2626  2.2408
  130OSM   H18U13986  -0.493   3.603  18.843 -1.7747 -0.3525  0.5606
  130OSM    C1F13987   0.814   4.181  18.239 -0.1083  0.1515  0.2260
  130OSM     OF13988   0.883   4.263  18.169  0.1883  0.5311 -0.5169
  130OSM    C2F13989   0.762   4.222  18.370 -0.3963 -0.1705 -0.3538
  130OSM    H2F13990   0.842   4.276  18.425  0.8036 -2.9546  0.8165
  130OSM    H2G13991   0.749   4.137  18.440  1.8280 -1.8063 -1.8069
  130OSM    C3F13992   0.632   4.300  18.372  0.2161  0.9273 -0.2334
  130OSM    H3F13993   0.556   4.231  18.329 -0.1926  1.3295 -0.1730
  130OSM    H3G13994   0.626   4.391  18.309  1.0569  0.4250 -1.0664
  130OSM    C4F13995   0.586   4.332  18.513  0.5551 -0.1643 -0.9790
  130OSM    H4F13996   0.673   4.379  18.563 -0.8356  1.3808  0.0776
  130OSM    H4G13997   0.573   4.236  18.568  1.2205  0.0661 -0.4055
  130OSM    C5F13998   0.460   4.428  18.511 -0.2097  0.4125  0.2257
  130OSM    H5F13999   0.388   4.388  18.437  1.4045  0.3206 -1.3802
  130OSM    H5G14000   0.493   4.530  18.484  2.3962 -0.1623  0.9447
  130OSM    C6F14001   0.387   4.440  18.647 -0.0242 -0.5447  0.0877
  130OSM    H6F14002   0.451   4.499  18.716 -2.0608  1.4749  0.3739
  130OSM    H6G14003   0.360   4.344  18.695  1.6185 -0.3428  1.4828
  130OSM    C7F14004   0.259   4.523  18.633 -0.1564  0.7765 -0.1529
  130OSM    H7F14005   0.207   4.484  18.543 -1.1980 -1.9685  1.5181
  130OSM    H7G14006   0.294   4.626  18.610 -0.2176  1.0262  0.7970
  130OSM    C8F14007   0.161   4.513  18.749 -0.1248  0.2069 -0.0698
  130OSM    H8F14008   0.197   4.577  18.833 -0.9116 -0.5423  0.8609
  130OSM    H8G14009   0.155   4.407  18.780 -3.5413 -0.4389 -2.4213
  130OSM    C9F14010   0.022   4.570  18.723  0.2196  0.4001  0.0955
  130OSM    H9F14011  -0.029   4.525  18.637 -1.0559  1.7902  0.0634
  130OSM   C10F14012  -0.049   4.664  18.791  0.4980 -0.1409  0.4081
  130OSM   H10F14013  -0.156   4.662  18.765  0.8051  0.0793 -0.9524
  130OSM   C11F14014  -0.010   4.735  18.916 -0.3806  0.0245  0.2072
  130OSM   H11F14015  -0.017   4.669  19.006 -1.2199  2.0654  1.7218
  130OSM   H11G14016  -0.085   4.816  18.930 -0.3367  0.1170 -0.0815
  130OSM   C12F14017   0.121   4.820  18.916 -0.0981 -0.1893 -0.1195
  130OSM   H12F14018   0.128   4.873  18.818 -1.2655 -0.9713 -0.6485
  130OSM   H12G14019   0.213   4.759  18.927  1.0612  1.7788  1.8121
  130OSM   C13F14020   0.122   4.913  19.039 -0.2614 -0.4069  0.1011
  130OSM   H13F14021   0.109   4.850  19.129  0.4162  0.3521  0.7493
  130OSM   H13G14022   0.034   4.978  19.017 -0.2156 -0.5325 -0.4769
  130OSM   C14F14023   0.258   4.988  19.055 -0.8185 -0.0315  0.2987
  130OSM   H14F14024   0.332   4.919  19.101 -1.1521  0.9773  2.5043
  130OSM   H14G14025   0.244   5.055  19.143 -0.2155  1.4903 -0.7160
  130OSM   C15F14026   0.299   5.058  18.931  0.2524  0.5151  0.5066
  130OSM   H15F14027   0.313   4.986  18.847  1.8819  0.6982  0.6007
  130OSM   H15G14028   0.401   5.095  18.950 -0.0288  0.2159  2.7931
  130OSM   C16F14029   0.195   5.165  18.884 -0.1683  0.0268 -0.7529
  130OSM   H16F14030   0.181   5.226  18.976  0.9872 -2.3257  1.0841
  130OSM   H16G14031   0.095   5.127  18.856  0.1480 -0.9856 -0.5369
  130OSM   C17F14032   0.265   5.253  18.776  0.2436 -0.0435 -0.0223
  130OSM   H17F14033   0.185   5.310  18.726 -1.0662 -1.4910  0.3526
  130OSM   H17G14034   0.316   5.181  18.708 -0.2445  2.0695 -2.7588
  130OSM   C18F14035   0.362   5.361  18.830 -1.1555  0.4128 -0.3701
  130OSM   H18F14036   0.325   5.462  18.856  1.3432  1.3283 -0.0920
  130OSM   H18G14037   0.442   5.372  18.754  0.9930 -0.7734  1.5572
  130OSM   H18H14038   0.410   5.312  18.918 -2.1246  0.1464  0.0231
  131OSM      N14039   2.253   1.669  17.890  0.1921 -0.2499  0.3170
  131OSM    C1514040   2.307   1.627  18.024  0.1271  0.1765 -0.1608
  131OSM   H15A14041   2.355   1.530  18.023  1.7791  0.9600 -0.7566
  131OSM   H15B14042   2.220   1.611  18.085  0.5355 -1.3562  0.0620
  131OSM   H15C14043   2.380   1.693  18.068 -0.2303  1.1294 -0.9640
  131OSM    C1414044   2.372   1.686  17.807  0.2989  0.6017  0.1723
  131OSM   H14A14045   2.459   1.722  17.860  0.6059 -0.4664  0.4245
  131OSM   H14B14046   2.349   1.731  17.711  1.5822 -3.9358 -2.5931
  131OSM   H14C14047   2.402   1.585  17.783 -2.8153 -0.9994  2.3400
  131OSM    C1314048   2.156   1.564  17.845 -0.1404 -0.0124 -0.2201
  131OSM   H13A14049   2.137   1.582  17.740  0.2601  0.2813 -0.2416
  131OSM   H13B14050   2.061   1.581  17.893  0.3443 -0.2981  0.8690
  131OSM   H13C14051   2.190   1.462  17.851  0.7825  0.2734 -0.5101
  131OSM    C1214052   2.184   1.808  17.894  0.4512 -0.0544 -0.1535
  131OSM   H12A14053   2.263   1.881  17.899  0.9590 -0.6649  1.3662
  131OSM   H12B14054   2.140   1.819  17.992  1.6483 -0.3928  0.4422
  131OSM    C1114055   2.084   1.840  17.793  0.0573 -0.1007 -0.0334
  131OSM   H11A14056   2.037   1.939  17.816 -0.1763  0.1488 -1.4367
  131OSM   H11B14057   1.994   1.774  17.794  0.6321 -0.8942  1.6564
  131OSM      P14058   2.205   1.970  17.595 -0.0920  0.2409 -0.2796
  131OSM    O1314059   2.346   1.934  17.556  0.5008 -0.0160  1.2588
  131OSM    O1414060   2.117   2.006  17.482 -0.2961 -0.2730  0.0211
  131OSM    O1114061   2.207   2.091  17.703  0.5255  0.8660  0.3808
  131OSM    O1214062   2.150   1.839  17.665  0.3983  0.4904 -0.2063
  131OSM    C1S14063   2.313   2.117  17.791 -0.0773  0.7896 -0.0734
  131OSM    H1S14064   2.337   2.020  17.840 -1.9986  0.0179 -0.5606
  131OSM    H1T14065   2.282   2.179  17.878 -1.3805 -0.8031  0.6658
  131OSM     NF14066   2.561   2.157  17.820  0.3747 -0.1082 -0.2294
  131OSM    HNF14067   2.572   2.244  17.868 -0.2904 -0.5225  0.7005
  131OSM    C2S14068   2.451   2.163  17.723 -0.8447 -0.1922  0.1871
  131OSM    H2S14069   2.479   2.103  17.633  0.7653  0.8596 -0.0472
  131OSM    C3S14070   2.432   2.309  17.664 -0.5085 -0.4067 -0.0662
  131OSM    H3S14071   2.412   2.386  17.741 -0.2385 -0.9098  0.5144
  131OSM     O314072   2.327   2.315  17.576  0.2848  0.0294  0.8448
  131OSM    HO314073   2.274   2.237  17.597  0.0574  0.1761  0.8237
  131OSM    C4S14074   2.555   2.348  17.582 -0.6100  0.2305 -0.4733
  131OSM    H4S14075   2.586   2.280  17.501  2.6022 -0.9264  1.5236
  131OSM    C5S14076   2.641   2.450  17.597 -0.5985 -0.1634 -0.0299
  131OSM    H5S14077   2.627   2.521  17.681 -2.9418 -0.5737 -0.0104
  131OSM    C6S14078   2.756   2.487  17.500 -0.0048  0.1130  0.6605
  131OSM    H6S14079   2.721   2.558  17.422  0.2383 -0.1924  0.2651
  131OSM    H6T14080   2.793   2.393  17.454 -0.8605  0.6688 -1.2813
  131OSM    C7S14081   2.875   2.543  17.580 -0.6752  0.3149  0.6653
  131OSM    H7S14082   2.912   2.466  17.650 -2.8308 -1.8571 -0.4234
  131OSM    H7T14083   2.857   2.639  17.633 -2.3099  0.1063  0.5636
  131OSM    C8S14084   2.984   2.575  17.478 -1.0114 -0.2902 -0.1072
  131OSM    H8S14085   2.950   2.633  17.390 -0.3390 -0.1278 -0.2690
  131OSM    H8T14086   3.027   2.485  17.428  0.0713  0.6952 -1.0273
  131OSM    C9S14087   3.109   2.656  17.539 -0.0074  1.0463  0.5218
  131OSM    H9S14088   3.151   2.597  17.623  1.9267 -0.5993 -1.4798
  131OSM    H9T14089   3.089   2.761  17.568 -0.3220  0.7020  1.6017
  131OSM   C10S14090   3.226   2.651  17.433  0.4970 -0.2023 -0.7702
  131OSM   H10S14091   3.220   2.732  17.357  3.0189  1.7813  0.9685
  131OSM   H10T14092   3.219   2.549  17.389  0.7563 -1.1468  1.2736
  131OSM   C11S14093   3.361   2.675  17.500 -0.2021  0.1043 -0.0843
  131OSM   H11S14094   3.385   2.600  17.578 -1.4488 -0.5139 -0.2659
  131OSM   H11T14095   3.349   2.771  17.554 -1.6900 -0.8408  1.3725
  131OSM   C12S14096   3.473   2.660  17.397 -0.2888 -1.1962 -0.7486
  131OSM   H12S14097   3.440   2.703  17.300  1.4762 -1.1800 -1.3732
  131OSM   H12T14098   3.486   2.552  17.376  0.9500 -1.4603  1.1617
  131OSM   C13S14099   3.603   2.724  17.438  0.2377  0.3090 -0.2028
  131OSM   H13S14100   3.614   2.716  17.548  0.3093 -2.0601 -0.3372
  131OSM   H13T14101   3.595   2.834  17.419 -1.9218  0.4474  1.1421
  131OSM   C14S14102   3.718   2.652  17.381 -0.3425 -0.0775  0.0488
  131OSM   H14S14103   3.698   2.621  17.277 -0.1341 -0.9553  0.2605
  131OSM   H14T14104   3.752   2.564  17.440  5.2688  1.3937 -0.3881
  131OSM   C15S14105   3.840   2.746  17.373 -0.5221 -0.2851  0.1308
  131OSM   H15S14106   3.900   2.737  17.466 -0.3734 -0.5274  0.0132
  131OSM   H15T14107   3.795   2.847  17.371 -0.1592 -0.1218  0.2182
  131OSM   C16S14108   3.922   2.710  17.244  0.6592  0.2448 -0.4519
  131OSM   H16S14109   4.008   2.778  17.228 -1.2485  2.5950 -1.3627
  131OSM   H16T14110   3.867   2.720  17.147 -0.1890  2.3584  0.1955
  131OSM   C17S14111   3.991   2.578  17.247  0.0541 -0.0509 -0.0661
  131OSM   H17S14112   4.058   2.564  17.160  1.2874 -1.6335  1.0733
  131OSM   H17T14113   3.913   2.499  17.235 -0.5529  0.4700  0.3588
  131OSM   C18S14114   4.072   2.552  17.375  0.4650  0.0399  0.2071
  131OSM   H18S14115   4.120   2.451  17.372 -0.7672 -0.5687  0.4108
  131OSM   H18T14116   4.002   2.558  17.461 -0.5627  0.1822 -0.6232
  131OSM   H18U14117   4.156   2.624  17.388 -0.9054  2.0907 -1.7524
  131OSM    C1F14118   2.628   2.049  17.865  0.1797 -0.0797  0.0247
  131OSM     OF14119   2.590   1.936  17.831 -0.3786  0.4967  0.0395
  131OSM    C2F14120   2.744   2.074  17.949 -0.9887 -0.3079 -0.0171
  131OSM    H2F14121   2.717   2.047  18.053  0.6674 -1.1586  0.2042
  131OSM    H2G14122   2.765   2.183  17.952  2.7581 -0.9502  1.9535
  131OSM    C3F14123   2.868   2.010  17.892  0.9192 -0.1222  0.3929
  131OSM    H3F14124   2.880   2.033  17.784 -1.9800  0.1081  0.0322
  131OSM    H3G14125   2.847   1.901  17.892  0.0078  0.0372  0.6006
  131OSM    C4F14126   2.995   2.052  17.966  0.1320  0.1276  0.9155
  131OSM    H4F14127   3.005   2.163  17.966  0.4129  0.1352 -1.2664
  131OSM    H4G14128   3.083   2.015  17.910 -0.8120 -0.4117 -0.2429
  131OSM    C5F14129   3.007   1.986  18.104  0.0974 -0.4054 -0.1641
  131OSM    H5F14130   2.994   1.876  18.117  1.3213 -0.4079  1.2873
  131OSM    H5G14131   2.931   2.012  18.180  1.4586 -1.0771  1.4774
  131OSM    C6F14132   3.145   2.008  18.163 -0.1142  0.8537 -0.2936
  131OSM    H6F14133   3.233   2.001  18.096  1.1929 -1.7351  1.5043
  131OSM    H6G14134   3.176   1.927  18.233  0.9700 -0.1164 -1.8298
  131OSM    C7F14135   3.146   2.144  18.228  0.2685 -0.1867  0.4488
  131OSM    H7F14136   3.072   2.157  18.309 -0.0663 -3.2309  0.7594
  131OSM    H7G14137   3.131   2.214  18.143 -0.6347 -0.5417  0.3101
  131OSM    C8F14138   3.289   2.177  18.264 -0.4084 -0.6882 -0.3439
  131OSM    H8F14139   3.297   2.282  18.298 -0.9112 -0.8020  0.1415
  131OSM    H8G14140   3.355   2.158  18.177 -0.5701 -0.4238 -0.5269
  131OSM    C9F14141   3.324   2.091  18.394 -0.1477 -0.1910  1.2377
  131OSM    H9F14142   3.316   1.981  18.388  3.0926 -0.4313 -2.7114
  131OSM   C10F14143   3.395   2.134  18.495 -0.2358 -0.5030  0.1749
  131OSM   H10F14144   3.406   2.061  18.576 -1.1096 -0.7089  0.1177
  131OSM   C11F14145   3.455   2.272  18.519  0.2785  0.0684 -0.2863
  131OSM   H11F14146   3.483   2.332  18.430 -0.0128  3.1963  1.5679
  131OSM   H11G14147   3.548   2.268  18.581 -1.0816  1.4139  1.9898
  131OSM   C12F14148   3.351   2.358  18.600  0.6749  0.5503  0.0401
  131OSM   H12F14149   3.338   2.315  18.701  1.6109  0.9487  0.3387
  131OSM   H12G14150   3.259   2.350  18.537  1.2828 -1.6304 -0.6506
  131OSM   C13F14151   3.391   2.505  18.606  0.3149 -0.6128 -0.3278
  131OSM   H13F14152   3.313   2.575  18.643 -0.4253 -0.1261 -2.6446
  131OSM   H13G14153   3.412   2.548  18.506  0.7523  0.5908  0.2604
  131OSM   C14F14154   3.519   2.531  18.688 -1.4221  0.1006 -1.2857
  131OSM   H14F14155   3.521   2.642  18.691  1.2964  0.1008  0.1004
  131OSM   H14G14156   3.604   2.494  18.628 -1.7850 -0.9759 -1.1470
  131OSM   C15F14157   3.517   2.466  18.829 -0.5778 -0.1618 -0.3260
  131OSM   H15F14158   3.516   2.355  18.824  2.3355 -0.2355 -0.8714
  131OSM   H15G14159   3.418   2.490  18.873  0.3493  2.5648  0.4526
  131OSM   C16F14160   3.636   2.511  18.925  0.2036 -0.6577 -0.1136
  131OSM   H16F14161   3.725   2.532  18.863  0.8826  1.2848  1.4370
  131OSM   H16G14162   3.657   2.419  18.983 -0.5808  0.3297  1.8362
  131OSM   C17F14163   3.600   2.630  19.018 -0.2469 -0.4067 -0.3980
  131OSM   H17F14164   3.521   2.689  18.968  0.9730  1.5897 -0.0756
  131OSM   H17G14165   3.690   2.694  19.034 -1.0107  0.3276  1.1206
  131OSM   C18F14166   3.550   2.574  19.151  0.8394 -0.2935  0.2614
  131OSM   H18F14167   3.516   2.646  19.229  2.4103  0.3076  0.4112
  131OSM   H18G14168   3.636   2.523  19.198  1.7848  0.6695 -0.3836
  131OSM   H18H14169   3.463   2.507  19.132 -0.3868  1.0756  0.8525
  132OSM      N14170   1.397   1.107  14.285  0.2693 -0.5433  0.2608
  132OSM    C1514171   1.532   1.075  14.217 -0.3329 -0.0721  0.5333
  132OSM   H15A14172   1.534   1.093  14.111 -0.5646 -0.6106  0.4338
  132OSM   H15B14173   1.555   0.971  14.237 -1.9920 -0.2818  1.5087
  132OSM   H15C14174   1.606   1.143  14.255  0.0656 -1.4326  2.3283
  132OSM    C1414175   1.412   1.086  14.430 -0.6084 -0.1793 -0.0873
  132OSM   H14A14176   1.477   1.160  14.474  0.0812 -0.4912 -0.5668
  132OSM   H14B14177   1.433   0.987  14.466  0.9229  0.3548  0.5741
  132OSM   H14C14178   1.319   1.112  14.479 -0.0921 -1.3494  1.6019
  132OSM    C1314179   1.374   1.253  14.257 -0.1097 -0.6033  0.1176
  132OSM   H13A14180   1.463   1.313  14.273 -0.2211 -0.0778 -1.1587
  132OSM   H13B14181   1.294   1.298  14.315  0.2378  0.9081 -0.5144
  132OSM   H13C14182   1.369   1.273  14.151  2.6169 -0.4685 -0.0701
  132OSM    C1214183   1.288   1.017  14.232  0.2935  0.0928  0.0637
  132OSM   H12A14184   1.203   1.044  14.293  0.3051  3.1521 -1.1068
  132OSM   H12B14185   1.324   0.919  14.258  1.7432  0.6918  0.3993
  132OSM    C1114186   1.249   1.018  14.087 -0.5015 -0.7227 -0.3180
  132OSM   H11A14187   1.188   0.929  14.060  0.3344 -2.3351  2.6670
  132OSM   H11B14188   1.334   0.996  14.019 -1.2655  0.1711 -1.5940
  132OSM      P14189   1.041   1.166  14.105 -0.0938  0.5125 -0.3030
  132OSM    O1314190   1.044   1.241  14.232 -0.6855 -0.4562  0.9653
  132OSM    O1414191   0.960   1.221  13.995  0.2347 -0.3733 -0.4617
  132OSM    O1114192   0.992   1.023  14.140 -0.0690  0.0868  0.3381
  132OSM    O1214193   1.187   1.144  14.057 -0.5102  0.2030 -0.2756
  132OSM    C1S14194   0.904   1.003  14.253 -0.6795  0.3226  0.1771
  132OSM    H1S14195   0.871   1.093  14.311 -1.0545 -0.8498  1.8736
  132OSM    H1T14196   0.952   0.927  14.318 -1.1384  0.4858  0.7124
  132OSM     NF14197   0.651   0.969  14.297 -0.1402  0.3509 -0.0973
  132OSM    HNF14198   0.644   0.898  14.366 -1.7066  0.6194  0.0690
  132OSM    C2S14199   0.764   0.943  14.207  0.7711  0.8123 -0.3575
  132OSM    H2S14200   0.741   1.003  14.116 -0.9516  1.1028  0.2305
  132OSM    C3S14201   0.787   0.791  14.168  0.1236 -0.5082  0.0643
  132OSM    H3S14202   0.804   0.745  14.267 -0.1422  0.4432  0.5648
  132OSM     O314203   0.894   0.762  14.080 -0.5562  0.7294 -0.5286
  132OSM    HO314204   0.940   0.846  14.078 -1.1826  1.0943 -0.1240
  132OSM    C4S14205   0.667   0.731  14.106  0.2949 -0.1591 -0.2666
  132OSM    H4S14206   0.616   0.787  14.027  0.6339  1.1465  0.4061
  132OSM    C5S14207   0.625   0.610  14.130  0.1517  0.1099 -0.1778
  132OSM    H5S14208   0.678   0.542  14.198 -1.5557 -0.9698  0.1486
  132OSM    C6S14209   0.509   0.532  14.070  0.2245  0.0647  0.2122
  132OSM    H6S14210   0.480   0.465  14.154 -0.9365  1.0081  0.5770
  132OSM    H6T14211   0.548   0.465  13.989 -1.8736 -2.0420  0.8244
  132OSM    C7S14212   0.393   0.615  14.011 -0.0973  0.4422 -0.7512
  132OSM    H7S14213   0.329   0.546  13.952 -1.1945  0.8530 -0.0758
  132OSM    H7T14214   0.423   0.699  13.944 -0.3108  0.0066 -1.4021
  132OSM    C8S14215   0.316   0.685  14.125 -0.2938  0.0403 -0.7044
  132OSM    H8S14216   0.382   0.774  14.136  1.5734 -1.2634 -0.8427
  132OSM    H8T14217   0.299   0.628  14.218 -1.7494  0.9685 -0.3604
  132OSM    C9S14218   0.180   0.726  14.072 -0.3768 -0.0844 -0.5208
  132OSM    H9S14219   0.129   0.634  14.037  0.5792 -1.0300  0.4743
  132OSM    H9T14220   0.196   0.778  13.975  0.8374 -2.8626 -1.9201
  132OSM   C10S14221   0.100   0.808  14.173  0.0515 -0.0689  0.0228
  132OSM   H10S14222   0.073   0.746  14.261  0.5310 -1.8570 -1.0388
  132OSM   H10T14223   0.010   0.845  14.119 -2.2777 -1.3827  2.7610
  132OSM   C11S14224   0.172   0.938  14.222  0.1051  0.2098 -0.0906
  132OSM   H11S14225   0.186   0.998  14.130 -1.1581  0.1904 -0.3169
  132OSM   H11T14226   0.262   0.910  14.281 -0.5736  0.3773  1.0678
  132OSM   C12S14227   0.082   1.028  14.313  0.3318 -0.1791  0.0538
  132OSM   H12S14228  -0.006   1.069  14.260 -0.2182 -2.9107 -1.3302
  132OSM   H12T14229   0.147   1.109  14.354  0.9159 -0.8511  0.4737
  132OSM   C13S14230   0.016   0.956  14.443 -0.5076 -0.5777  0.6437
  132OSM   H13S14231   0.099   0.933  14.513 -2.0223 -1.9019  2.1186
  132OSM   H13T14232  -0.027   0.865  14.395  0.7712 -0.3145 -1.0977
  132OSM   C14S14233  -0.091   1.051  14.497 -0.3716  0.5992  0.2994
  132OSM   H14S14234  -0.162   1.050  14.411  0.3959 -0.6497 -0.3621
  132OSM   H14T14235  -0.040   1.149  14.504  0.2597  0.2577  0.5384
  132OSM   C15S14236  -0.156   1.020  14.629  0.1377  0.4732  0.0057
  132OSM   H15S14237  -0.091   0.973  14.706 -0.1754 -0.9414 -0.5660
  132OSM   H15T14238  -0.223   0.932  14.619 -0.6004  0.9790  0.4444
  132OSM   C16S14239  -0.235   1.133  14.695  0.4811 -0.0011 -0.6462
  132OSM   H16S14240  -0.314   1.166  14.625 -0.0817 -0.0964 -0.0680
  132OSM   H16T14241  -0.164   1.219  14.700 -2.0649  2.2195 -0.5263
  132OSM   C17S14242  -0.306   1.095  14.833  0.7174  0.0688  0.9554
  132OSM   H17S14243  -0.352   1.177  14.891 -2.1778 -2.0968  1.9605
  132OSM   H17T14244  -0.229   1.047  14.898  1.1948 -1.3214 -0.5686
  132OSM   C18S14245  -0.444   1.020  14.813  0.5310 -0.3534  0.1494
  132OSM   H18S14246  -0.518   1.089  14.766  0.7806 -0.6341 -0.6733
  132OSM   H18T14247  -0.480   0.980  14.910  1.3439 -0.2055  0.5187
  132OSM   H18U14248  -0.429   0.931  14.749 -0.1585 -0.9865  0.8427
  132OSM    C1F14249   0.598   1.087  14.316 -0.3436  0.3051 -0.3515
  132OSM     OF14250   0.569   1.157  14.222 -0.0596 -0.6806 -0.2257
  132OSM    C2F14251   0.571   1.121  14.457 -0.3046 -0.1813  0.4883
  132OSM    H2F14252   0.622   1.213  14.492  1.9403 -0.9168 -0.6356
  132OSM    H2G14253   0.639   1.054  14.513  3.3827  2.3636 -0.6024
  132OSM    C3F14254   0.429   1.093  14.506  1.0575 -0.2020 -0.4529
  132OSM    H3F14255   0.400   0.986  14.499 -0.7314 -0.0001  2.1605
  132OSM    H3G14256   0.359   1.144  14.436 -0.9403 -2.8829 -0.5839
  132OSM    C4F14257   0.406   1.145  14.650 -0.6336  0.5238 -0.0909
  132OSM    H4F14258   0.404   1.257  14.650  1.7100  0.6141  0.3024
  132OSM    H4G14259   0.480   1.122  14.730  0.2977  1.7653 -0.5677
  132OSM    C5F14260   0.256   1.120  14.692  0.2220 -0.0879  0.4062
  132OSM    H5F14261   0.254   1.015  14.729 -1.1385 -0.2383 -0.0722
  132OSM    H5G14262   0.195   1.129  14.600 -1.2292 -0.2912  1.3264
  132OSM    C6F14263   0.190   1.220  14.793 -0.4026  0.5676  0.4161
  132OSM    H6F14264   0.081   1.217  14.810 -0.6987 -1.6524 -1.3541
  132OSM    H6G14265   0.205   1.324  14.757  0.7832  0.6303  1.0603
  132OSM    C7F14266   0.263   1.203  14.931  0.8540  0.3077  0.1106
  132OSM    H7F14267   0.369   1.237  14.930  0.8541  0.3781  1.1790
  132OSM    H7G14268   0.246   1.105  14.981 -0.1708  0.5462  0.2526
  132OSM    C8F14269   0.205   1.301  15.036 -0.4496 -0.3202  0.2960
  132OSM    H8F14270   0.246   1.261  15.131  0.9903  1.1565  0.3437
  132OSM    H8G14271   0.095   1.292  15.043 -0.6603  1.4144 -0.1954
  132OSM    C9F14272   0.252   1.448  15.044 -0.1356  0.3637  0.2778
  132OSM    H9F14273   0.362   1.455  15.048  0.0485 -0.3383 -1.8795
  132OSM   C10F14274   0.172   1.561  15.043 -0.8636  0.0919 -0.1227
  132OSM   H10F14275   0.221   1.659  15.044 -1.0959  0.2406 -1.5207
  132OSM   C11F14276   0.024   1.563  15.013  0.4950  0.8498  0.3811
  132OSM   H11F14277  -0.017   1.465  14.982  2.5180  0.3569 -0.9677
  132OSM   H11G14278   0.005   1.637  14.931 -1.7032 -1.0198 -0.9078
  132OSM   C12F14279  -0.051   1.616  15.132 -0.7149  0.1678 -0.4494
  132OSM   H12F14280  -0.027   1.722  15.154  1.6959 -0.6500  1.2887
  132OSM   H12G14281  -0.031   1.560  15.225  0.0870  0.4196 -0.4634
  132OSM   C13F14282  -0.196   1.601  15.099 -0.0198 -0.1321 -0.1406
  132OSM   H13F14283  -0.213   1.492  15.085 -2.2025  0.2043 -0.5400
  132OSM   H13G14284  -0.208   1.652  15.000 -0.5585  0.6768  0.3284
  132OSM   C14F14285  -0.288   1.655  15.211  0.3611 -0.8754  0.0036
  132OSM   H14F14286  -0.282   1.764  15.228  1.7535 -1.1641  1.7254
  132OSM   H14G14287  -0.246   1.608  15.303  1.1445  0.7539  0.5044
  132OSM   C15F14288  -0.437   1.629  15.191  0.0074 -0.6222  0.1797
  132OSM   H15F14289  -0.458   1.522  15.213  0.0222 -0.3149  1.7817
  132OSM   H15G14290  -0.449   1.633  15.081  2.0588  0.4743 -0.0499
  132OSM   C16F14291  -0.532   1.725  15.263  0.4826 -0.4977 -0.5678
  132OSM   H16F14292  -0.493   1.826  15.239 -2.5183  0.7110 -0.7898
  132OSM   H16G14293  -0.530   1.713  15.373  1.2318 -0.1327 -0.5424
  132OSM   C17F14294  -0.676   1.735  15.208 -0.0459 -0.0531  0.1077
  132OSM   H17F14295  -0.657   1.750  15.100 -2.3955  1.4952 -0.1703
  132OSM   H17G14296  -0.721   1.831  15.241 -2.1943 -0.6768 -0.8585
  132OSM   C18F14297  -0.769   1.617  15.234  0.5222 -0.5243 -0.0573
  132OSM   H18F14298  -0.876   1.631  15.208  0.5908  1.5770  0.5508
  132OSM   H18G14299  -0.771   1.617  15.345  2.9264  2.0503  0.0893
  132OSM   H18H14300  -0.721   1.522  15.204  0.4575 -0.4745 -0.3193
  133SAPE     N14301   4.050   4.124  21.538 -0.5539  0.0458  0.8159
  133SAPE   HN114302   3.983   4.044  21.541  0.1850 -0.6375 -0.3086
  133SAPE   HN214303   4.001   4.216  21.533 -0.2888  0.1483  0.0099
  133SAPE   HN314304   4.109   4.112  21.453 -0.9719 -2.3440  0.8074
  133SAPE   C1214305   4.131   4.111  21.660  0.5686  0.4029  0.4634
  133SAPE  H12A14306   4.066   4.123  21.749  0.9630  1.5480  0.6211
  133SAPE  H12B14307   4.199   4.199  21.658 -0.0752  0.9113 -1.2775
  133SAPE   C1114308   4.203   3.977  21.653  0.2225  0.0145  0.5985
  133SAPE  H11A14309   4.231   3.956  21.758 -1.9676 -1.0230  1.0418
  133SAPE  H11B14310   4.288   3.992  21.584 -2.0871 -0.2359 -2.5510
  133SAPE     P14311   4.166   3.734  21.557 -0.5200  0.3443 -0.3230
  133SAPE   O1314312   4.307   3.709  21.590  0.3262  0.0446 -0.2237
  133SAPE   O1414313   4.068   3.640  21.618  0.1877 -0.0237  0.4581
  133SAPE   O1214314   4.124   3.872  21.607 -0.6471 -0.7772 -0.0916
  133SAPE   O1114315   4.145   3.726  21.395  0.0167  0.0641  1.0487
  133SAPE    C114316   4.045   3.813  21.337 -0.1663 -0.0256 -0.3229
  133SAPE    HA14317   3.986   3.874  21.409  0.8540 -1.1901  1.5808
  133SAPE    HB14318   4.103   3.875  21.266  1.5670 -1.3007 -0.1007
  133SAPE    C214319   3.944   3.735  21.246 -0.0333  0.6527  0.8040
  133SAPE    HS14320   3.873   3.805  21.198  1.1046 -0.1931 -2.3638
  133SAPE   O2114321   3.878   3.630  21.320 -0.3569  0.1618 -0.3473
  133SAPE   C2114322   3.771   3.677  21.396 -0.1005 -0.4513 -0.3466
  133SAPE   O2214323   3.734   3.794  21.400 -0.3536 -0.3574  0.6017
  133SAPE   C2214324   3.701   3.564  21.460  0.4570  0.8880  0.1271
  133SAPE   H2R14325   3.764   3.501  21.526 -0.2445 -1.7774 -1.5886
  133SAPE   H2S14326   3.606   3.591  21.511 -0.6234 -2.9310  0.4936
  133SAPE    C314327   4.033   3.671  21.130 -0.0375 -0.5844 -0.4034
  133SAPE    HX14328   4.109   3.598  21.167  1.0425  0.7308  0.0586
  133SAPE    HY14329   4.097   3.753  21.090  2.0909 -1.0402  1.7880
  133SAPE   O3114330   3.948   3.615  21.016 -0.8647  0.5334  0.4939
  133SAPE   C3114331   3.901   3.497  21.034 -0.5585  0.5156  0.4826
  133SAPE   O3214332   3.946   3.410  21.108  0.0496 -0.1496 -0.5768
  133SAPE   C3214333   3.783   3.461  20.930  0.3857  0.0733 -0.3998
  133SAPE   H2X14334   3.705   3.411  20.989  0.9121  0.6503  0.8146
  133SAPE   H2Y14335   3.838   3.392  20.862  1.7488  0.4280  0.2959
  133SAPE   C2314336   3.670   3.454  21.349 -0.5262 -0.4412  0.3462
  133SAPE   H3R14337   3.631   3.361  21.394 -2.8342  0.3969  0.2244
  133SAPE   H3S14338   3.758   3.421  21.291 -1.0903 -1.5863  0.1170
  133SAPE   C2414339   3.569   3.502  21.247  0.0716 -0.5091  0.0909
  133SAPE   H4R14340   3.575   3.427  21.165  2.9266 -1.7095  1.2807
  133SAPE   H4S14341   3.606   3.597  21.203 -0.6638 -0.3571 -0.2169
  133SAPE   C2514342   3.432   3.524  21.296  0.5911 -0.7543  0.3398
  133SAPE   H5R14343   3.412   3.620  21.347  0.1360 -1.5933  1.8137
  133SAPE   C2614344   3.328   3.448  21.255  0.1507 -0.8138 -0.0898
  133SAPE   H6R14345   3.236   3.475  21.308  0.2970 -3.4690  1.6968
  133SAPE   C2714346   3.323   3.317  21.186  0.1212  0.0564  0.1478
  133SAPE   H7R14347   3.238   3.271  21.242  1.0859  0.7164  2.2926
  133SAPE   H7S14348   3.409   3.255  21.219 -1.0633 -1.8798 -0.2174
  133SAPE   C2814349   3.299   3.327  21.034 -0.2260  0.1648  0.4985
  133SAPE   H8R14350   3.395   3.323  20.980 -0.0961 -0.2264  0.7524
  133SAPE   C2914351   3.183   3.351  20.969 -0.0783  0.3368 -1.0365
  133SAPE   H9R14352   3.182   3.361  20.859  1.2117  0.8897 -1.0094
  133SAPE  C21014353   3.043   3.370  21.027 -0.3336  0.7199 -0.2392
  133SAPE  H10R14354   3.047   3.338  21.133  1.9256  0.3949 -0.3822
  133SAPE  H10S14355   2.980   3.290  20.983 -1.3174  1.7206 -0.7145
  133SAPE  C21114356   2.983   3.509  21.012 -0.5667 -0.4978  0.2775
  133SAPE  H11R14357   2.999   3.553  20.913 -0.4744 -2.0179 -0.4141
  133SAPE  C21214358   2.945   3.593  21.111 -0.2612 -0.1718  0.2738
  133SAPE  H12R14359   2.927   3.701  21.097  2.4646  0.1878 -0.9990
  133SAPE  C21314360   2.961   3.550  21.257 -0.5439  0.7469  0.0132
  133SAPE  H13R14361   3.064   3.583  21.284  0.0979 -0.3278 -1.0565
  133SAPE  H13S14362   2.955   3.441  21.274 -0.3080  0.8740  1.0121
  133SAPE  C21414363   2.883   3.626  21.359 -0.3896  0.3973  0.0315
  133SAPE  H14R14364   2.816   3.557  21.412 -2.4388  1.1088 -1.5168
  133SAPE  C21514365   2.888   3.758  21.396 -0.3460  0.3939  0.1152
  133SAPE  H15R14366   2.813   3.797  21.467  2.1168  1.3082  2.3479
  133SAPE  C21614367   2.982   3.868  21.346 -0.3219 -0.8687 -0.6816
  133SAPE  H16R14368   2.918   3.955  21.318  0.7275  1.0285  2.2492
  133SAPE  H16S14369   3.039   3.834  21.257  1.2043 -2.9788  0.9790
  133SAPE  C21714370   3.082   3.916  21.442 -0.1790  0.4281  0.0793
  133SAPE  H17R14371   3.030   3.929  21.539  0.1111 -0.1356  0.3176
  133SAPE  H17S14372   3.129   4.013  21.415  2.1119 -0.4612  0.5979
  133SAPE  C21814373   3.204   3.818  21.463 -0.2396  0.0872 -1.0309
  133SAPE  H18R14374   3.266   3.803  21.372  0.0904  2.2865 -1.2232
  133SAPE  H18S14375   3.170   3.720  21.503  0.1831  0.2181 -0.3391
  133SAPE  C21914376   3.296   3.871  21.570 -0.4541 -0.1400 -0.2999
  133SAPE  H19R14377   3.233   3.898  21.657 -1.2578 -1.6573 -0.3906
  133SAPE  H19S14378   3.339   3.967  21.534  1.6483 -1.0789 -0.4677
  133SAPE  C22014379   3.406   3.772  21.615  0.2680 -0.3907  0.0077
  133SAPE  H20R14380   3.356   3.679  21.648 -0.6059 -0.1215 -0.5232
  133SAPE  H20S14381   3.479   3.809  21.689 -1.4365 -0.3827  1.7517
  133SAPE  H20T14382   3.474   3.752  21.529  0.9155 -1.4768  0.7550
  133SAPE   C3314383   3.718   3.581  20.858  0.2246 -0.1084  0.4797
  133SAPE   H3X14384   3.788   3.626  20.785 -2.1176  1.8848 -0.6828
  133SAPE   H3Y14385   3.698   3.660  20.934 -3.2515 -0.3233 -0.0572
  133SAPE   C3414386   3.596   3.550  20.776 -0.0514 -0.2853 -0.3309
  133SAPE   H4X14387   3.561   3.645  20.729  0.2416 -0.0206 -0.0161
  133SAPE   H4Y14388   3.510   3.507  20.832  0.1089 -0.6334 -0.3557
  133SAPE   C3514389   3.619   3.465  20.645 -0.4007  0.8493 -1.3234
  133SAPE   H5X14390   3.649   3.360  20.664 -0.9425  0.7328 -1.0859
  133SAPE   H5Y14391   3.714   3.506  20.605  0.4609 -1.0744 -1.3292
  133SAPE   C3614392   3.502   3.463  20.557 -0.5689 -0.3000 -0.0665
  133SAPE   H6X14393   3.526   3.431  20.454  2.2849  1.5099 -0.0893
  133SAPE   H6Y14394   3.463   3.567  20.550  2.3101  0.9424  0.9068
  133SAPE   C3714395   3.399   3.374  20.607  0.0576  0.6150 -0.0573
  133SAPE   H7X14396   3.386   3.378  20.717  1.6869 -1.1289  0.2527
  133SAPE   H7Y14397   3.424   3.267  20.593  1.3180  1.0394 -1.3508
  133SAPE   C3814398   3.262   3.394  20.542 -0.8146  0.0924 -0.3311
  133SAPE   H8X14399   3.265   3.399  20.431  0.7306  4.8943 -0.3079
  133SAPE   H8Y14400   3.228   3.495  20.574  0.3396  1.0119 -1.8691
  133SAPE   C3914401   3.169   3.282  20.569 -0.1012  0.0473 -0.1524
  133SAPE   H9X14402   3.157   3.259  20.677 -1.7298 -0.6734 -0.4605
  133SAPE   H9Y14403   3.208   3.186  20.531 -0.5774  0.0620 -0.6840
  133SAPE  C31014404   3.029   3.306  20.517 -0.4660  0.4037  0.7306
  133SAPE  H10X14405   2.988   3.208  20.483  2.4163 -0.9692  0.9258
  133SAPE  H10Y14406   3.020   3.394  20.450  0.2661  2.0947  2.7651
  133SAPE  C31114407   2.947   3.363  20.637 -0.0588  0.0670 -0.0297
  133SAPE  H11X14408   2.994   3.455  20.680 -2.0163  0.0697  2.2777
  133SAPE  H11Y14409   2.954   3.284  20.714 -0.8623  0.3579  0.3565
  133SAPE  C31214410   2.800   3.376  20.603  0.3121  0.1919 -0.5122
  133SAPE  H12X14411   2.767   3.290  20.541  1.7161 -1.9421  1.5512
  133SAPE  H12Y14412   2.787   3.470  20.545 -1.5445  1.1117  1.2581
  133SAPE  C31314413   2.714   3.407  20.725  0.0344 -0.3144  0.0694
  133SAPE  H13X14414   2.770   3.490  20.772 -0.0979 -0.3952  0.3742
  133SAPE  H13Y14415   2.713   3.322  20.796  2.1341  0.8824  1.6506
  133SAPE  C31414416   2.574   3.458  20.678  0.5358 -0.0633  0.1958
  133SAPE  H14X14417   2.530   3.372  20.625 -2.4691 -0.0083  2.3500
  133SAPE  H14Y14418   2.596   3.551  20.620 -0.0278 -0.0463  0.0037
  133SAPE  C31514419   2.485   3.504  20.802 -0.0438  1.0136  0.6142
  133SAPE  H15X14420   2.539   3.573  20.869  1.2009 -1.0405  1.8158
  133SAPE  H15Y14421   2.469   3.415  20.867  2.2947 -0.5682 -0.8313
  133SAPE  C31614422   2.358   3.571  20.757 -0.2685 -0.3150  0.3690
  133SAPE  H16X14423   2.333   3.540  20.653 -1.1242  0.8705  0.1935
  133SAPE  H16Y14424   2.358   3.682  20.765  0.1743 -0.2867 -0.0189
  133SAPE  C31714425   2.243   3.534  20.844  0.1256 -0.4084  0.1761
  133SAPE  H17X14426   2.161   3.610  20.844 -0.2337 -0.7261 -2.4975
  133SAPE  H17Y14427   2.278   3.509  20.947  0.0666 -1.4650 -0.0528
  133SAPE  C31814428   2.172   3.411  20.784 -0.9059  0.5047  0.3811
  133SAPE  H18X14429   2.240   3.324  20.786 -2.7310 -0.9758  1.8036
  133SAPE  H18Y14430   2.165   3.426  20.674  3.0172  1.7701  0.1485
  133SAPE  H18Z14431   2.078   3.383  20.836  0.7441 -0.8446  2.7852
  134SAPE     N14432   3.835   4.039  26.886  0.3494 -0.3311 -0.1323
  134SAPE   HN114433   3.911   3.980  26.845 -0.7288 -1.3199 -0.7666
  134SAPE   HN214434   3.829   4.139  26.859  4.3649  0.5000  1.3526
  134SAPE   HN314435   3.860   4.039  26.987  1.5398  0.0026 -0.4019
  134SAPE   C1214436   3.697   3.978  26.860 -0.1659  0.1357 -0.4035
  134SAPE  H12A14437   3.617   4.040  26.904 -1.0404 -0.1723 -1.5116
  134SAPE  H12B14438   3.699   3.873  26.896 -0.1196  0.6778  1.2749
  134SAPE   C1114439   3.693   3.967  26.702 -0.2326  0.1343 -0.2934
  134SAPE  H11A14440   3.709   4.072  26.666 -0.6426  0.1217 -0.5125
  134SAPE  H11B14441   3.591   3.927  26.683 -0.5528 -1.1110  3.2320
  134SAPE     P14442   3.756   3.719  26.626 -0.2184  0.1613  0.2165
  134SAPE   O1314443   3.879   3.662  26.561  0.4404 -0.3920  0.1717
  134SAPE   O1414444   3.729   3.665  26.760  1.0440 -0.5018 -0.6838
  134SAPE   O1214445   3.785   3.874  26.645 -0.3718  0.5601 -0.6952
  134SAPE   O1114446   3.634   3.711  26.530 -0.1507  0.0886  0.3089
  134SAPE    C114447   3.652   3.706  26.379 -0.0509  0.0147 -0.9606
  134SAPE    HA14448   3.756   3.703  26.340 -1.1870 -2.8638 -4.3963
  134SAPE    HB14449   3.605   3.615  26.337  2.1147 -1.6064 -0.0731
  134SAPE    C214450   3.583   3.826  26.311  0.3510  0.0027  0.1205
  134SAPE    HS14451   3.599   3.819  26.202  0.5060  0.1934  0.1317
  134SAPE   O2114452   3.635   3.954  26.364  0.8725  0.3812  0.0057
  134SAPE   C2114453   3.620   4.057  26.287  0.1446 -0.1080  0.8428
  134SAPE   O2214454   3.540   4.057  26.194  0.1813 -0.6242 -0.2138
  134SAPE   C2214455   3.717   4.165  26.324  0.2103  0.0299 -0.4300
  134SAPE   H2R14456   3.693   4.208  26.424  3.4587  3.0839 -0.7515
  134SAPE   H2S14457   3.816   4.116  26.335  0.8150  1.4640  0.9362
  134SAPE    C314458   3.425   3.812  26.344  0.1105 -0.1909 -0.1176
  134SAPE    HX14459   3.370   3.890  26.287  0.4395  1.7948  2.1036
  134SAPE    HY14460   3.419   3.841  26.451 -1.3711 -0.4364 -0.1184
  134SAPE   O3114461   3.364   3.679  26.318  0.1296 -0.1704  0.1424
  134SAPE   C3114462   3.274   3.634  26.405  0.4791 -0.0295  1.0429
  134SAPE   O3214463   3.222   3.708  26.486 -0.0193 -0.0076  0.1749
  134SAPE   C3214464   3.233   3.487  26.386  0.3354  0.2564  0.3470
  134SAPE   H2X14465   3.241   3.433  26.483  1.3339  0.3541  0.3238
  134SAPE   H2Y14466   3.316   3.438  26.331 -0.9612 -0.1625 -1.3334
  134SAPE   C2314467   3.726   4.285  26.223  0.6579  0.2992 -0.9439
  134SAPE   H3R14468   3.620   4.311  26.206 -0.6023 -3.4926  0.1964
  134SAPE   H3S14469   3.760   4.243  26.126  1.5494 -0.3108 -0.3835
  134SAPE   C2414470   3.807   4.397  26.285  0.2718 -0.1818 -0.4983
  134SAPE   H4R14471   3.818   4.471  26.203 -4.3730  0.9412 -0.4083
  134SAPE   H4S14472   3.903   4.355  26.319 -0.0006  1.1112  2.1339
  134SAPE   C2514473   3.749   4.448  26.413 -0.4339 -0.0746 -0.5512
  134SAPE   H5R14474   3.768   4.387  26.503  0.0877 -1.5782 -1.6340
  134SAPE   C2614475   3.660   4.551  26.419 -0.4219  0.5682  0.3135
  134SAPE   H6R14476   3.627   4.586  26.518  3.4523  0.2083  1.9183
  134SAPE   C2714477   3.619   4.638  26.299  0.0078 -0.1316 -0.0141
  134SAPE   H7R14478   3.692   4.636  26.216 -0.1279 -1.7304 -0.1234
  134SAPE   H7S14479   3.615   4.741  26.341  0.3013 -1.0195  2.3750
  134SAPE   C2814480   3.483   4.590  26.251  0.5916  0.9308 -0.2140
  134SAPE   H8R14481   3.439   4.525  26.328  1.5398  1.5164  0.8466
  134SAPE   C2914482   3.425   4.592  26.126  0.2226  0.7549 -0.6123
  134SAPE   H9R14483   3.325   4.556  26.097  0.1440  0.6838 -0.2577
  134SAPE  C21014484   3.473   4.673  26.013 -0.0266 -0.9446  1.1399
  134SAPE  H10R14485   3.515   4.765  26.059  3.2159 -2.2854  1.1376
  134SAPE  H10S14486   3.389   4.714  25.953  0.6044  0.8431  1.4313
  134SAPE  C21114487   3.582   4.616  25.919 -0.4440 -1.2678 -0.7725
  134SAPE  H11R14488   3.668   4.562  25.964 -0.2091  0.2372  0.6712
  134SAPE  C21214489   3.588   4.612  25.786  0.0101  0.0521 -0.0995
  134SAPE  H12R14490   3.671   4.555  25.743  1.1154  1.3338  0.2844
  134SAPE  C21314491   3.481   4.669  25.698  0.1831  0.2508 -0.4102
  134SAPE  H13R14492   3.401   4.721  25.756  2.1955  1.7786  1.1545
  134SAPE  H13S14493   3.438   4.583  25.642 -2.0793  0.5112  0.7855
  134SAPE  C21414494   3.549   4.747  25.591 -0.5088  0.1556 -0.3898
  134SAPE  H14R14495   3.645   4.792  25.619  0.5909 -2.2381 -0.0773
  134SAPE  C21514496   3.492   4.798  25.480  0.4000 -0.3271 -0.7870
  134SAPE  H15R14497   3.544   4.872  25.417  0.2826  0.1530 -0.3355
  134SAPE  C21614498   3.353   4.754  25.434 -0.0269  0.6821  0.9021
  134SAPE  H16R14499   3.296   4.685  25.499 -2.0002  0.9564 -0.4630
  134SAPE  H16S14500   3.370   4.697  25.340 -0.3028  2.4463 -0.2769
  134SAPE  C21714501   3.272   4.886  25.410  0.6937 -0.4555  0.2647
  134SAPE  H17R14502   3.338   4.913  25.324  1.2460 -0.9047  0.5369
  134SAPE  H17S14503   3.289   4.956  25.494 -0.0356  0.4482 -0.3101
  134SAPE  C21814504   3.128   4.863  25.378  0.3647  0.3252  0.4338
  134SAPE  H18R14505   3.070   4.836  25.470  1.4042 -0.6130  0.8213
  134SAPE  H18S14506   3.115   4.778  25.308  0.7064 -2.2503  3.2823
  134SAPE  C21914507   3.054   4.981  25.309  0.2934  0.2577  0.5809
  134SAPE  H19R14508   3.123   5.007  25.226  2.3308 -0.1017  2.0746
  134SAPE  H19S14509   3.066   5.074  25.368  1.1887  0.0480  0.7384
  134SAPE  C22014510   2.917   4.958  25.246 -0.6885  0.1966  0.0096
  134SAPE  H20R14511   2.867   5.050  25.208 -0.6529  0.4398  0.5473
  134SAPE  H20S14512   2.843   4.900  25.305 -0.5285 -0.1374 -0.1146
  134SAPE  H20T14513   2.931   4.891  25.158 -0.9438  0.4266 -0.2062
  134SAPE   C3314514   3.101   3.455  26.313 -0.4370  1.1554 -0.4646
  134SAPE   H3X14515   3.109   3.358  26.259  1.0633  0.1787  1.4075
  134SAPE   H3Y14516   3.095   3.538  26.239  0.8207  1.6553 -0.0366
  134SAPE   C3414517   2.973   3.441  26.396  0.2172  0.2734  0.0691
  134SAPE   H4X14518   2.967   3.536  26.453  1.4045  0.7606 -0.5775
  134SAPE   H4Y14519   2.979   3.355  26.465  0.0225 -1.0278 -1.4613
  134SAPE   C3514520   2.849   3.425  26.307  0.2993  0.2475 -0.1887
  134SAPE   H5X14521   2.848   3.332  26.245  2.0746  0.5479 -0.7285
  134SAPE   H5Y14522   2.833   3.517  26.247 -2.2809 -1.1644 -1.8717
  134SAPE   C3614523   2.724   3.420  26.397 -0.0896 -0.2640  0.2716
  134SAPE   H6X14524   2.710   3.521  26.441 -0.1721 -0.4019  0.5657
  134SAPE   H6Y14525   2.742   3.348  26.479 -0.3962  0.5599  1.0767
  134SAPE   C3714526   2.597   3.370  26.326  0.4458  0.2121  0.3016
  134SAPE   H7X14527   2.520   3.387  26.404 -2.2712 -0.6118 -2.0625
  134SAPE   H7Y14528   2.606   3.263  26.300 -2.5300 -0.0816  0.1438
  134SAPE   C3814529   2.562   3.457  26.202 -0.5860 -0.4326  0.4502
  134SAPE   H8X14530   2.643   3.436  26.129 -1.4424  1.8154 -1.2999
  134SAPE   H8Y14531   2.558   3.566  26.225  2.7439 -0.6512  2.6900
  134SAPE   C3914532   2.427   3.413  26.139 -0.3589  0.1114 -0.3552
  134SAPE   H9X14533   2.429   3.454  26.036  1.9352 -0.9923 -0.8018
  134SAPE   H9Y14534   2.337   3.435  26.200 -1.3678 -1.8424 -1.0407
  134SAPE  C31014535   2.425   3.262  26.120  0.0761  0.3202 -0.3996
  134SAPE  H10X14536   2.403   3.207  26.214 -1.1540  2.0316  0.3841
  134SAPE  H10Y14537   2.523   3.237  26.075  0.8593  3.4808 -0.7089
  134SAPE  C31114538   2.321   3.228  26.016 -0.1159 -0.2885  0.1267
  134SAPE  H11X14539   2.344   3.285  25.923  0.5076 -0.9388 -0.1320
  134SAPE  H11Y14540   2.225   3.266  26.056  0.5119 -0.1074  1.5347
  134SAPE  C31214541   2.294   3.085  25.996  0.0094 -0.1896  0.8899
  134SAPE  H12X14542   2.380   3.028  26.037 -0.5288 -3.8012 -2.3405
  134SAPE  H12Y14543   2.301   3.067  25.886  0.6274  1.4738  0.6308
  134SAPE  C31314544   2.161   3.032  26.054 -0.2631  0.4045 -0.5784
  134SAPE  H13X14545   2.147   2.937  25.998  0.8231  0.1166 -0.3984
  134SAPE  H13Y14546   2.075   3.095  26.024 -1.0097 -1.1211 -1.7384
  134SAPE  C31414547   2.166   2.997  26.211  0.4371 -0.7565  0.7458
  134SAPE  H14X14548   2.058   2.981  26.232  0.2492  0.6171  0.9213
  134SAPE  H14Y14549   2.190   3.097  26.253 -0.9249  0.2998 -0.8267
  134SAPE  C31514550   2.258   2.881  26.245  0.5164  0.0457 -0.1934
  134SAPE  H15X14551   2.357   2.911  26.203  1.2835 -1.6118  0.3462
  134SAPE  H15Y14552   2.232   2.790  26.186 -0.5386  1.0793 -1.4003
  134SAPE  C31614553   2.274   2.846  26.390 -0.6642 -0.1818 -0.4296
  134SAPE  H16X14554   2.175   2.805  26.419 -0.1904 -0.4912  0.8065
  134SAPE  H16Y14555   2.295   2.932  26.457 -1.1589 -0.1586 -0.3035
  134SAPE  C31714556   2.386   2.738  26.418 -0.5187 -0.5908  0.2030
  134SAPE  H17X14557   2.479   2.771  26.367 -0.7308 -0.5986 -0.1938
  134SAPE  H17Y14558   2.354   2.646  26.366 -0.3268  0.2554 -1.5132
  134SAPE  C31814559   2.401   2.720  26.566 -0.3549  0.0816  0.1123
  134SAPE  H18X14560   2.484   2.652  26.591  1.3130  2.2260  0.7113
  134SAPE  H18Y14561   2.311   2.671  26.610 -1.3848  0.0529 -1.8958
  134SAPE  H18Z14562   2.419   2.812  26.626  2.5642 -0.2822 -0.0745
  135SAPE     N14563   4.122   2.862  25.021  0.4522  0.4807  0.1767
  135SAPE   HN114564   4.061   2.902  24.947 -0.6096 -0.0959  0.7044
  135SAPE   HN214565   4.099   2.760  25.024  0.3268  0.2911 -3.1206
  135SAPE   HN314566   4.098   2.904  25.113 -1.0199 -1.4431  0.7423
  135SAPE   C1214567   4.272   2.866  24.984  0.3926 -0.1980  0.0555
  135SAPE  H12A14568   4.302   2.973  24.982 -0.0797  0.0564  2.7463
  135SAPE  H12B14569   4.278   2.813  24.887  0.3397 -2.9123  1.4604
  135SAPE   C1114570   4.352   2.784  25.089 -1.1675  0.5136 -0.2285
  135SAPE  H11A14571   4.346   2.838  25.186  1.6493 -0.8287  0.8048
  135SAPE  H11B14572   4.458   2.772  25.057 -0.0782 -0.1866  3.2436
  135SAPE     P14573   4.347   2.547  25.199 -0.2026  0.3634 -0.4429
  135SAPE   O1314574   4.252   2.542  25.312 -0.5210 -0.3505  0.0980
  135SAPE   O1414575   4.365   2.422  25.121 -0.1040  0.5654 -0.2125
  135SAPE   O1214576   4.298   2.654  25.098 -0.1646 -0.2163 -0.5253
  135SAPE   O1114577   4.488   2.586  25.265  0.2377 -0.6339  0.6229
  135SAPE    C114578   4.584   2.490  25.302 -0.0157 -0.2638 -0.6647
  135SAPE    HA14579   4.586   2.491  25.413 -3.8286  0.9029 -0.4619
  135SAPE    HB14580   4.553   2.386  25.279  0.6259 -1.7128  3.9366
  135SAPE    C214581   4.724   2.507  25.238 -0.8099  0.0912  0.4397
  135SAPE    HS14582   4.779   2.412  25.255 -0.6410 -0.5286 -2.9628
  135SAPE   O2114583   4.788   2.623  25.288 -0.2931 -0.5991  0.1056
  135SAPE   C2114584   4.819   2.616  25.417  0.1449  0.3089  0.3065
  135SAPE   O2214585   4.806   2.520  25.485  0.4719  0.1813 -0.1276
  135SAPE   C2214586   4.869   2.764  25.443 -0.2882 -0.1488 -0.5837
  135SAPE   H2R14587   4.923   2.794  25.350 -1.5255  3.5973 -0.2319
  135SAPE   H2S14588   4.785   2.835  25.449  1.1792  1.7560 -1.3786
  135SAPE    C314589   4.724   2.516  25.079 -0.8451 -0.2056 -0.0068
  135SAPE    HX14590   4.691   2.622  25.074  0.0199  0.2036  1.9574
  135SAPE    HY14591   4.650   2.436  25.056 -1.4200  0.1351  0.6047
  135SAPE   O3114592   4.864   2.503  25.029 -0.1222  0.0634  0.0581
  135SAPE   C3114593   4.899   2.389  24.968 -0.0318 -0.6566 -0.4688
  135SAPE   O3214594   4.839   2.286  24.955  0.1661  0.7951 -0.4594
  135SAPE   C3214595   5.028   2.417  24.901  0.3400 -0.4101  0.1643
  135SAPE   H2X14596   5.073   2.499  24.961 -2.5920  0.8409  0.7990
  135SAPE   H2Y14597   5.016   2.456  24.797  3.3775  1.0657  0.2369
  135SAPE   C2314598   4.947   2.769  25.570  0.0942  0.7725  0.8712
  135SAPE   H3R14599   5.009   2.678  25.577  1.9439  1.7244 -1.5527
  135SAPE   H3S14600   4.877   2.759  25.656  0.3946  0.1726  1.0478
  135SAPE   C2414601   5.024   2.896  25.607 -0.0800  0.0822  0.8838
  135SAPE   H4R14602   5.093   2.919  25.523 -1.4068 -0.6163 -0.4727
  135SAPE   H4S14603   5.081   2.865  25.696 -0.4499 -1.2391  0.6883
  135SAPE   C2514604   4.935   3.015  25.635 -0.2285 -0.1321  0.3282
  135SAPE   H5R14605   4.879   3.040  25.544  1.6544  0.1941 -0.7758
  135SAPE   C2614606   4.918   3.078  25.753  0.2574  0.2050 -0.1749
  135SAPE   H6R14607   4.840   3.155  25.745  0.6115  0.4369 -1.8224
  135SAPE   C2714608   4.978   3.050  25.887  0.4257 -0.4460  0.2130
  135SAPE   H7R14609   5.038   2.957  25.898 -0.6656 -0.9848  2.2598
  135SAPE   H7S14610   4.899   3.039  25.965  1.2864 -1.5475  0.9681
  135SAPE   C2814611   5.065   3.165  25.926  0.2071  0.5727 -0.2727
  135SAPE   H8R14612   5.035   3.268  25.899 -2.4960  0.2208  1.1198
  135SAPE   C2914613   5.177   3.150  25.999 -0.2274  0.2788  0.9700
  135SAPE   H9R14614   5.243   3.231  26.034  0.0197 -0.0773  1.3305
  135SAPE  C21014615   5.234   3.020  26.039 -0.4119 -0.5336 -0.4666
  135SAPE  H10R14616   5.321   3.039  26.106 -0.4291 -0.5429 -0.4411
  135SAPE  H10S14617   5.285   2.966  25.956  0.6653 -2.0852  1.1328
  135SAPE  C21114618   5.159   2.930  26.126  0.2617 -0.1582  0.0977
  135SAPE  H11R14619   5.100   2.968  26.210 -1.8605 -1.5241 -0.7136
  135SAPE  C21214620   5.161   2.799  26.118  0.2053 -0.6794  0.6693
  135SAPE  H12R14621   5.089   2.746  26.182 -1.9624  0.4660 -0.7244
  135SAPE  C21314622   5.243   2.714  26.025  0.0229  0.0503  0.3526
  135SAPE  H13R14623   5.346   2.754  26.028 -0.2609  1.2559 -2.5411
  135SAPE  H13S14624   5.224   2.722  25.915 -1.1744 -2.8350  0.2566
  135SAPE  C21414625   5.254   2.570  26.064 -0.3006 -0.8514 -0.3018
  135SAPE  H14R14626   5.237   2.552  26.171  2.6318  0.8511  0.5720
  135SAPE  C21514627   5.302   2.473  25.979  0.1663  0.1446 -0.2273
  135SAPE  H15R14628   5.310   2.375  26.027  0.0151  0.6121  0.7866
  135SAPE  C21614629   5.330   2.486  25.837 -0.2609  0.0207  0.2386
  135SAPE  H16R14630   5.377   2.585  25.821 -0.3952  0.4833  2.4466
  135SAPE  H16S14631   5.248   2.483  25.762  2.4251 -1.8177 -2.8680
  135SAPE  C21714632   5.423   2.372  25.788  0.3320  0.4421  0.1841
  135SAPE  H17R14633   5.509   2.357  25.856 -1.5778 -0.9204  2.4900
  135SAPE  H17S14634   5.467   2.401  25.691  1.1169  1.6134  0.8623
  135SAPE  C21814635   5.342   2.239  25.760  0.3545 -0.3909 -0.2583
  135SAPE  H18R14636   5.285   2.267  25.669  0.1564  0.6914  0.1920
  135SAPE  H18S14637   5.277   2.202  25.843  0.2186  0.0264 -0.1748
  135SAPE  C21914638   5.429   2.124  25.718 -0.1327 -0.5626  0.1045
  135SAPE  H19R14639   5.505   2.099  25.795 -0.1567  1.8221  0.9793
  135SAPE  H19S14640   5.489   2.155  25.630 -1.3417 -0.0392 -0.5694
  135SAPE  C22014641   5.358   1.993  25.686 -0.1286  0.6158  0.7877
  135SAPE  H20R14642   5.437   1.926  25.647 -2.1039 -1.3625 -0.0519
  135SAPE  H20S14643   5.284   2.011  25.606 -1.7885 -2.0360  1.5824
  135SAPE  H20T14644   5.318   1.941  25.777  1.8036 -0.7006  0.9452
  135SAPE   C3314645   5.132   2.302  24.923  0.3142 -0.2788 -0.2899
  135SAPE   H3X14646   5.112   2.234  24.838  0.3525 -1.6719  0.7731
  135SAPE   H3Y14647   5.102   2.241  25.011  0.5630  0.8361  0.6006
  135SAPE   C3414648   5.273   2.354  24.947 -0.1618  0.5988  0.2025
  135SAPE   H4X14649   5.283   2.424  25.033 -2.2798  1.0699  0.1149
  135SAPE   H4Y14650   5.302   2.418  24.861 -1.1494  1.9170  0.8234
  135SAPE   C3514651   5.374   2.239  24.964 -0.0910 -0.1243  0.1867
  135SAPE   H5X14652   5.371   2.174  24.875  1.6345 -0.2085  0.1526
  135SAPE   H5Y14653   5.339   2.174  25.047 -0.9178  0.5252  0.3685
  135SAPE   C3614654   5.520   2.285  24.989 -0.5959  1.1290 -0.3225
  135SAPE   H6X14655   5.549   2.339  24.896  1.0734  0.8489  0.0105
  135SAPE   H6Y14656   5.588   2.197  24.993  0.0549  1.6790  1.6840
  135SAPE   C3714657   5.547   2.362  25.110  0.3741 -0.8466 -0.1297
  135SAPE   H7X14658   5.500   2.305  25.193 -0.2010 -0.6789 -0.3379
  135SAPE   H7Y14659   5.485   2.453  25.098  0.6166 -0.6231  0.2709
  135SAPE   C3814660   5.693   2.407  25.136 -0.4368 -0.1601  0.0616
  135SAPE   H8X14661   5.722   2.481  25.058 -0.1081 -0.1996  0.1421
  135SAPE   H8Y14662   5.747   2.310  25.135  0.9533  0.5742 -1.0906
  135SAPE   C3914663   5.707   2.482  25.265 -0.5634 -0.4092  0.4223
  135SAPE   H9X14664   5.641   2.446  25.347 -1.0685 -1.4377 -0.4156
  135SAPE   H9Y14665   5.678   2.589  25.249 -1.8246 -1.1121 -2.8506
  135SAPE  C31014666   5.853   2.481  25.304 -0.8098 -0.4861  0.4540
  135SAPE  H10X14667   5.918   2.532  25.230 -1.6323  2.0901  1.3763
  135SAPE  H10Y14668   5.884   2.378  25.334  0.2381  0.5376  3.2978
  135SAPE  C31114669   5.890   2.555  25.436  0.7599  0.2041 -0.1546
  135SAPE  H11X14670   5.860   2.662  25.430 -0.7993 -0.2421 -0.8338
  135SAPE  H11Y14671   5.998   2.540  25.459  0.5547  0.7798  1.2929
  135SAPE  C31214672   5.814   2.495  25.555 -0.1859  0.3170  0.6645
  135SAPE  H12X14673   5.794   2.387  25.542 -0.4443  0.5716 -1.3898
  135SAPE  H12Y14674   5.707   2.524  25.564 -0.3041  0.3536 -0.7349
  135SAPE  C31314675   5.895   2.522  25.679 -0.2313 -0.6225 -0.1978
  135SAPE  H13X14676   5.917   2.631  25.689 -2.8347  0.0058 -0.5448
  135SAPE  H13Y14677   5.998   2.481  25.672  0.4682  0.3092  2.9535
  135SAPE  C31414678   5.834   2.443  25.796  0.0290  0.4723 -0.5424
  135SAPE  H14X14679   5.832   2.335  25.771 -1.5830  0.5589 -0.8629
  135SAPE  H14Y14680   5.729   2.478  25.799  0.2638  1.1314  0.2905
  135SAPE  C31514681   5.901   2.468  25.927  0.3154 -0.2610  0.1955
  135SAPE  H15X14682   5.895   2.577  25.947 -1.0966 -0.3428  0.3004
  135SAPE  H15Y14683   6.009   2.445  25.916 -0.3337 -3.1779 -0.9072
  135SAPE  C31614684   5.836   2.376  26.040 -0.1555  0.2825 -0.7152
  135SAPE  H16X14685   5.876   2.273  26.029  0.0576  0.3549 -0.6214
  135SAPE  H16Y14686   5.726   2.367  26.026  0.0275 -0.1370 -2.1053
  135SAPE  C31714687   5.868   2.433  26.182  1.0615  0.1540  0.4716
  135SAPE  H17X14688   5.970   2.477  26.183  0.8236  0.7132  1.6610
  135SAPE  H17Y14689   5.855   2.350  26.255 -0.5783  0.1691  0.2299
  135SAPE  C31814690   5.773   2.545  26.239  0.4470 -0.7120  0.8103
  135SAPE  H18X14691   5.665   2.521  26.231  0.4862 -0.5057 -0.6919
  135SAPE  H18Y14692   5.795   2.646  26.196  0.1121 -0.3221  1.5335
  135SAPE  H18Z14693   5.796   2.571  26.344  1.9330 -0.8874  0.5502
  136SAPE     N14694   4.099   2.267  21.750 -0.6302  0.2102 -0.2113
  136SAPE   HN114695   4.183   2.224  21.792 -1.5433 -1.1555  0.2929
  136SAPE   HN214696   4.118   2.298  21.652 -0.0128  1.0283  0.1579
  136SAPE   HN314697   4.089   2.358  21.799  0.5063 -0.8043  2.0222
  136SAPE   C1214698   3.973   2.191  21.774 -0.1893  0.4376  0.6782
  136SAPE  H12A14699   3.909   2.186  21.683 -2.5842  1.1280  2.2381
  136SAPE  H12B14700   3.915   2.256  21.843 -1.9244  1.5992 -1.7175
  136SAPE   C1114701   4.005   2.050  21.835  0.3791  0.2336  0.2242
  136SAPE  H11A14702   4.049   1.997  21.748  0.4312  1.4745 -0.5323
  136SAPE  H11B14703   3.910   2.005  21.869 -0.5934  0.1177 -2.3925
  136SAPE     P14704   4.047   2.100  22.090 -0.0529 -0.0147 -0.1111
  136SAPE   O1314705   4.099   1.998  22.186 -0.3273  0.4504  0.3791
  136SAPE   O1414706   4.076   2.241  22.118 -0.5903  0.2562 -0.6071
  136SAPE   O1214707   4.102   2.062  21.941  0.3776 -0.1675  0.2078
  136SAPE   O1114708   3.890   2.095  22.087  0.1884  0.4320  0.4123
  136SAPE    C114709   3.817   1.987  22.159  0.8109  0.4985  0.5241
  136SAPE    HA14710   3.814   1.895  22.098  1.5996  1.1270 -0.5043
  136SAPE    HB14711   3.858   1.960  22.259  2.2556 -1.9252 -0.6372
  136SAPE    C214712   3.666   2.026  22.184  0.3921 -0.2917  0.4153
  136SAPE    HS14713   3.596   1.944  22.155 -1.3157  1.3961 -0.4400
  136SAPE   O2114714   3.627   2.139  22.098 -0.7272  0.7522  0.2745
  136SAPE   C2114715   3.616   2.119  21.960 -0.4829 -0.3324 -0.4038
  136SAPE   O2214716   3.625   2.013  21.904  0.0536  0.2745  0.3015
  136SAPE   C2214717   3.588   2.255  21.904 -0.8677 -0.1847  0.2315
  136SAPE   H2R14718   3.558   2.329  21.981  0.7699  1.4368 -0.6060
  136SAPE   H2S14719   3.683   2.291  21.858 -1.3516  0.4604 -0.2990
  136SAPE    C314720   3.634   2.063  22.331  0.0371 -0.6939  0.4360
  136SAPE    HX14721   3.699   2.150  22.353  0.7767 -0.1488 -3.2271
  136SAPE    HY14722   3.675   1.972  22.380  0.5560 -1.0159 -0.5759
  136SAPE   O3114723   3.495   2.090  22.358  0.0755  0.8990  0.0887
  136SAPE   C3114724   3.458   2.215  22.383 -0.1482 -0.5847  0.4803
  136SAPE   O3214725   3.528   2.313  22.395  0.3393  0.7023 -0.5922
  136SAPE   C3214726   3.308   2.223  22.394 -0.1524 -0.1049  0.1271
  136SAPE   H2X14727   3.287   2.333  22.392 -0.7860 -0.1911 -2.4855
  136SAPE   H2Y14728   3.291   2.178  22.493  2.2919  1.5200  1.3879
  136SAPE   C2314729   3.466   2.238  21.806  0.3302 -0.3936  0.2464
  136SAPE   H3R14730   3.383   2.185  21.856  0.9817 -2.4646 -0.7656
  136SAPE   H3S14731   3.504   2.181  21.718  1.0394  0.0630  0.2442
  136SAPE   C2414732   3.388   2.367  21.773  0.0654  0.2921  0.2127
  136SAPE   H4R14733   3.360   2.425  21.864 -2.1277 -1.4904  0.7693
  136SAPE   H4S14734   3.292   2.340  21.723 -0.8976  0.6403  1.7787
  136SAPE   C2514735   3.478   2.448  21.693 -0.0926  0.1123 -0.1051
  136SAPE   H5R14736   3.565   2.494  21.743  0.2986 -1.3398  0.6171
  136SAPE   C2614737   3.446   2.483  21.564  0.2560  0.0389  0.7437
  136SAPE   H6R14738   3.526   2.532  21.506 -0.5039  2.0234  1.2904
  136SAPE   C2714739   3.334   2.437  21.473  0.0599 -0.1363  0.7144
  136SAPE   H7R14740   3.314   2.329  21.491 -0.3511 -0.4907 -1.5770
  136SAPE   H7S14741   3.375   2.440  21.370 -2.5080 -2.7668 -0.5250
  136SAPE   C2814742   3.209   2.526  21.486 -0.7814 -0.1725  0.2871
  136SAPE   H8R14743   3.227   2.629  21.521  1.2504 -0.2086 -0.4952
  136SAPE   C2914744   3.084   2.483  21.467 -0.2784  0.1634  0.0967
  136SAPE   H9R14745   3.005   2.559  21.472 -2.6140 -2.1483  0.5398
  136SAPE  C21014746   3.045   2.349  21.409 -0.3055 -0.5775  0.8511
  136SAPE  H10R14747   3.026   2.293  21.503 -3.0322  1.2696  1.5117
  136SAPE  H10S14748   3.112   2.295  21.338 -0.8206 -0.0909 -0.0283
  136SAPE  C21114749   2.907   2.353  21.342 -0.9880 -0.2406  0.4578
  136SAPE  H11R14750   2.825   2.328  21.412  0.9550 -4.1902  1.6269
  136SAPE  C21214751   2.876   2.398  21.216 -0.6296  1.1304 -0.4031
  136SAPE  H12R14752   2.770   2.405  21.184 -0.7665  4.8857  0.3799
  136SAPE  C21314753   2.978   2.444  21.110 -0.2387  0.7407  0.2642
  136SAPE  H13R14754   3.082   2.428  21.145  0.4460  3.7441 -0.1185
  136SAPE  H13S14755   2.964   2.554  21.111 -0.7597  0.6746  0.7455
  136SAPE  C21414756   2.963   2.380  20.967  0.5042  0.2157 -0.4390
  136SAPE  H14R14757   2.939   2.273  20.979 -0.1675  0.4411  0.3377
  136SAPE  C21514758   2.967   2.438  20.850  0.1071  0.0689  0.0115
  136SAPE  H15R14759   2.958   2.377  20.760 -2.4057 -0.9974  0.8958
  136SAPE  C21614760   2.981   2.588  20.832  0.2931 -0.2315 -0.1811
  136SAPE  H16R14761   3.054   2.593  20.748 -1.1283  0.2488 -1.4194
  136SAPE  H16S14762   3.026   2.640  20.920 -0.6142 -0.9845  0.7538
  136SAPE  C21714763   2.847   2.661  20.795 -0.1996  0.4322  0.4129
  136SAPE  H17R14764   2.773   2.649  20.877  1.3390 -0.7883  1.7117
  136SAPE  H17S14765   2.802   2.624  20.701  1.7276  0.3901 -0.5548
  136SAPE  C21814766   2.871   2.813  20.769  0.3167 -0.1020 -0.0366
  136SAPE  H18R14767   2.938   2.816  20.681 -0.3927 -0.7874 -0.6167
  136SAPE  H18S14768   2.919   2.860  20.858 -1.9844  2.8911 -0.2380
  136SAPE  C21914769   2.746   2.889  20.741  0.5782  0.6425 -0.0951
  136SAPE  H19R14770   2.678   2.866  20.826  0.0698 -0.3679 -0.7653
  136SAPE  H19S14771   2.705   2.849  20.646 -1.0499  0.7552  0.5227
  136SAPE  C22014772   2.770   3.038  20.722 -0.5922  0.3730  0.4760
  136SAPE  H20R14773   2.822   3.053  20.624 -1.5874  1.9189  0.1459
  136SAPE  H20S14774   2.834   3.078  20.804 -0.6825  0.5567  0.4582
  136SAPE  H20T14775   2.684   3.108  20.722  0.1201  1.3620 -1.4391
  136SAPE   C3314776   3.235   2.142  22.283 -0.2619 -0.2700  0.8291
  136SAPE   H3X14777   3.161   2.079  22.337 -0.4089 -0.4738  0.3974
  136SAPE   H3Y14778   3.300   2.071  22.228 -0.2999 -0.8723  1.5395
  136SAPE   C3414779   3.153   2.222  22.185  0.7623 -0.5745  0.0256
  136SAPE   H4X14780   3.221   2.282  22.122  0.0276 -1.7570 -1.9876
  136SAPE   H4Y14781   3.086   2.288  22.244  1.0270  0.7378 -1.1010
  136SAPE   C3514782   3.059   2.130  22.102  0.4785 -0.3625 -0.7910
  136SAPE   H5X14783   3.012   2.054  22.168  0.4606 -0.7633 -1.2584
  136SAPE   H5Y14784   3.110   2.066  22.027 -1.0068 -1.9872 -0.4784
  136SAPE   C3614785   2.944   2.210  22.049 -0.3793  0.1512  0.4803
  136SAPE   H6X14786   2.977   2.312  22.020  1.9170  0.4660  3.6736
  136SAPE   H6Y14787   2.859   2.222  22.120 -1.2481 -0.0672 -0.4930
  136SAPE   C3714788   2.880   2.134  21.926  0.3858 -0.9127 -0.5169
  136SAPE   H7X14789   2.852   2.033  21.963  0.0735 -0.3787  0.7848
  136SAPE   H7Y14790   2.967   2.126  21.858  0.2359 -2.8105 -0.5478
  136SAPE   C3814791   2.751   2.194  21.866  0.0247  0.7388 -0.3609
  136SAPE   H8X14792   2.724   2.137  21.774  2.0086 -0.0475 -0.5093
  136SAPE   H8Y14793   2.778   2.298  21.839 -1.6042  0.7406 -2.1765
  136SAPE   C3914794   2.633   2.168  21.960  0.8381  0.8215  0.1442
  136SAPE   H9X14795   2.663   2.192  22.064  1.6635  3.4354 -0.6139
  136SAPE   H9Y14796   2.620   2.058  21.962  1.2296  0.7807  0.5180
  136SAPE  C31014797   2.514   2.254  21.915 -0.6725  0.2235 -0.2316
  136SAPE  H10X14798   2.506   2.245  21.805 -3.1116  2.5232 -0.3495
  136SAPE  H10Y14799   2.527   2.361  21.939 -0.9572  0.1403  0.3257
  136SAPE  C31114800   2.378   2.215  21.972  0.0507  0.1449  0.1900
  136SAPE  H11X14801   2.291   2.275  21.938 -1.8470 -2.8633 -0.6502
  136SAPE  H11Y14802   2.367   2.238  22.080  1.1580  2.3655 -0.1236
  136SAPE  C31214803   2.339   2.064  21.937  0.2668  0.2395  0.1418
  136SAPE  H12X14804   2.421   1.989  21.940  0.1915  0.1867  1.6353
  136SAPE  H12Y14805   2.301   2.064  21.832  2.7524 -0.2172 -0.8278
  136SAPE  C31314806   2.217   2.011  22.020  0.2517 -0.1770 -0.1085
  136SAPE  H13X14807   2.136   2.084  21.996 -0.1129 -0.0564  1.3866
  136SAPE  H13Y14808   2.245   2.005  22.127  0.0878  0.4280 -0.0288
  136SAPE  C31414809   2.188   1.862  21.975 -0.4205 -0.7038  0.3572
  136SAPE  H14X14810   2.280   1.800  21.986 -0.0160 -0.6040 -1.9073
  136SAPE  H14Y14811   2.150   1.867  21.870 -0.5222 -2.0767  0.3038
  136SAPE  C31514812   2.079   1.794  22.061  0.0450  0.0690 -0.1141
  136SAPE  H15X14813   2.083   1.817  22.170  1.0480 -2.2104  0.4037
  136SAPE  H15Y14814   2.107   1.689  22.042 -0.7475 -0.1768  0.0375
  136SAPE  C31614815   1.935   1.819  22.014  0.0028  0.1461  0.1883
  136SAPE  H16X14816   1.934   1.807  21.904 -0.9751  2.2253 -0.0857
  136SAPE  H16Y14817   1.914   1.925  22.042  0.4975  0.3920 -0.3548
  136SAPE  C31714818   1.818   1.734  22.076 -0.4376 -0.8823  0.1966
  136SAPE  H17X14819   1.868   1.651  22.130  2.2013  0.3506 -0.1965
  136SAPE  H17Y14820   1.754   1.700  21.991 -0.6837  1.2422 -0.5084
  136SAPE  C31814821   1.732   1.804  22.183 -0.5303  0.2259  0.2593
  136SAPE  H18X14822   1.682   1.884  22.124 -1.7522  0.3286  1.3750
  136SAPE  H18Y14823   1.788   1.865  22.256  0.0738 -0.1010  0.0775
  136SAPE  H18Z14824   1.663   1.742  22.245 -2.0808  2.0945  0.4771
  137SAPE     N14825   4.263   1.644  24.645 -1.0540  0.2967 -0.2892
  137SAPE   HN114826   4.212   1.680  24.562  1.8332  0.9279 -1.9282
  137SAPE   HN214827   4.196   1.608  24.716  0.5076 -0.6035  0.8001
  137SAPE   HN314828   4.323   1.714  24.693 -0.9881  0.9601 -1.3116
  137SAPE   C1214829   4.352   1.542  24.589  0.1621 -0.0451 -0.5071
  137SAPE  H12A14830   4.389   1.577  24.490  0.7558 -2.3381 -1.1567
  137SAPE  H12B14831   4.286   1.453  24.576 -3.2621  2.2307 -0.1051
  137SAPE   C1114832   4.475   1.511  24.685 -0.8987 -0.8160  0.4071
  137SAPE  H11A14833   4.553   1.591  24.691 -0.0404 -1.5259 -0.9202
  137SAPE  H11B14834   4.529   1.422  24.647 -1.3213 -1.9966  2.4230
  137SAPE     P14835   4.384   1.343  24.867  0.1961 -0.4726 -0.2952
  137SAPE   O1314836   4.349   1.341  25.010 -0.4053 -0.1952 -0.4731
  137SAPE   O1414837   4.275   1.285  24.778 -0.0156  0.5770  0.0560
  137SAPE   O1214838   4.435   1.490  24.821 -0.1511 -0.2145  0.6845
  137SAPE   O1114839   4.507   1.247  24.839  0.4029  0.0180 -0.2046
  137SAPE    C114840   4.628   1.237  24.918  0.2670 -0.6041 -0.4401
  137SAPE    HA14841   4.602   1.221  25.025  1.0194 -2.3530 -0.4904
  137SAPE    HB14842   4.693   1.154  24.883  1.7636  0.2438  0.2663
  137SAPE    C214843   4.719   1.361  24.905  0.0348  0.2744 -0.1580
  137SAPE    HS14844   4.656   1.453  24.903 -0.7478 -0.2638 -1.0699
  137SAPE   O2114845   4.792   1.347  24.780  0.1621 -0.2399 -0.3302
  137SAPE   C2114846   4.818   1.467  24.718 -0.1096  0.1699  0.8583
  137SAPE   O2214847   4.781   1.575  24.754  0.3389  0.3364 -0.2932
  137SAPE   C2214848   4.905   1.434  24.595 -0.0263  0.8193 -0.1995
  137SAPE   H2R14849   4.969   1.355  24.639 -1.1650  0.1621  0.3442
  137SAPE   H2S14850   4.844   1.383  24.517 -0.5957 -0.1589  0.8547
  137SAPE    C314851   4.810   1.372  25.029 -0.3319  0.1672  0.0867
  137SAPE    HX14852   4.874   1.282  25.034  1.1835  1.1051 -1.1766
  137SAPE    HY14853   4.751   1.369  25.124 -1.6820 -0.8506 -0.7463
  137SAPE   O3114854   4.894   1.489  25.020  0.3194 -0.6875 -0.6880
  137SAPE   C3114855   4.852   1.593  25.092 -0.0131  0.1496 -0.0951
  137SAPE   O3214856   4.741   1.612  25.139  0.2518  0.1974 -0.1242
  137SAPE   C3214857   4.965   1.690  25.124 -0.0007 -0.1523  0.0193
  137SAPE   H2X14858   5.043   1.694  25.046  0.0795 -0.0754  0.1048
  137SAPE   H2Y14859   5.028   1.642  25.202 -0.5388  1.4975  1.5242
  137SAPE   C2314860   4.986   1.551  24.535  0.0799  0.2482 -0.0729
  137SAPE   H3R14861   5.056   1.496  24.470 -1.3764 -1.3351 -0.3713
  137SAPE   H3S14862   5.052   1.601  24.609 -0.6077  1.7695 -0.4586
  137SAPE   C2414863   4.895   1.651  24.449 -0.3726  0.2051 -0.8268
  137SAPE   H4R14864   4.957   1.741  24.428  1.1418 -0.6239 -0.0868
  137SAPE   H4S14865   4.811   1.691  24.509  2.1534  1.7668  1.9975
  137SAPE   C2514866   4.867   1.579  24.322  0.1960  0.1496  0.1559
  137SAPE   H5R14867   4.779   1.516  24.341 -0.1294  0.0093 -1.6453
  137SAPE   C2614868   4.932   1.590  24.198  0.4831  0.4730 -0.3093
  137SAPE   H6R14869   4.888   1.533  24.115 -3.0705  0.9464  1.0820
  137SAPE   C2714870   5.056   1.677  24.166  0.3688  0.2585  0.4177
  137SAPE   H7R14871   5.099   1.724  24.257  1.1701  1.4997 -0.5743
  137SAPE   H7S14872   5.036   1.761  24.096  0.5469 -1.8651 -2.3713
  137SAPE   C2814873   5.161   1.604  24.089 -0.2126 -0.0951  0.4516
  137SAPE   H8R14874   5.153   1.494  24.082 -1.4191  0.0114  0.0491
  137SAPE   C2914875   5.268   1.663  24.037 -0.8656  0.3240  0.5407
  137SAPE   H9R14876   5.342   1.592  23.997 -0.5524  1.3478 -0.7691
  137SAPE  C21014877   5.312   1.809  24.064  0.1372 -0.4385  0.6007
  137SAPE  H10R14878   5.256   1.863  24.142 -1.2357 -1.7193  0.5488
  137SAPE  H10S14879   5.298   1.866  23.970 -1.4797  0.0137  1.0804
  137SAPE  C21114880   5.459   1.810  24.105 -0.0651 -0.2641  0.3701
  137SAPE  H11R14881   5.493   1.730  24.172  2.0939 -0.6427 -1.0980
  137SAPE  C21214882   5.551   1.892  24.051 -0.0291  0.0543  0.2834
  137SAPE  H12R14883   5.655   1.879  24.082  0.1979  0.4037 -0.3112
  137SAPE  C21314884   5.525   1.999  23.945  0.1639  0.6733  0.6942
  137SAPE  H13R14885   5.427   2.051  23.959  0.2122  1.3105 -1.0294
  137SAPE  H13S14886   5.517   1.961  23.841  0.9299 -0.2989  0.9765
  137SAPE  C21414887   5.633   2.112  23.944 -0.6670 -0.0504  0.9863
  137SAPE  H14R14888   5.607   2.200  24.004 -1.3933 -0.4091  1.2104
  137SAPE  C21514889   5.750   2.113  23.882  0.3658  1.0959  0.8483
  137SAPE  H15R14890   5.803   2.209  23.891 -0.3179  1.3881  1.8985
  137SAPE  C21614891   5.790   2.005  23.781 -0.4001  0.6168 -0.0617
  137SAPE  H16R14892   5.809   2.053  23.683 -0.9966 -0.0111 -0.4910
  137SAPE  H16S14893   5.735   1.910  23.763  2.8390 -1.4474 -0.0190
  137SAPE  C21714894   5.921   1.951  23.835 -0.1977  0.0290  0.6639
  137SAPE  H17R14895   5.992   2.036  23.848 -0.9643  1.3473 -2.7187
  137SAPE  H17S14896   5.968   1.878  23.765 -0.3876 -0.6792  1.2594
  137SAPE  C21814897   5.921   1.881  23.973  0.5415 -0.1038 -0.3578
  137SAPE  H18R14898   5.860   1.939  24.045  2.2685 -0.2706  1.3178
  137SAPE  H18S14899   6.025   1.865  24.010 -0.5496 -0.7271  2.6949
  137SAPE  C21914900   5.873   1.734  23.963 -0.6157  0.2775  0.0986
  137SAPE  H19R14901   5.938   1.682  23.889  0.5006  0.7512  0.7191
  137SAPE  H19S14902   5.768   1.737  23.927  0.0156  1.7049 -1.8804
  137SAPE  C22014903   5.873   1.647  24.086 -0.3388  0.2280  0.2133
  137SAPE  H20R14904   5.827   1.547  24.068  0.4356  0.1448 -1.5093
  137SAPE  H20S14905   5.817   1.689  24.172 -1.0555 -0.9619  0.3544
  137SAPE  H20T14906   5.978   1.621  24.113  0.1547 -0.7694 -2.3502
  137SAPE   C3314907   4.920   1.827  25.157  0.1736  0.2669 -0.2806
  137SAPE   H3X14908   4.830   1.840  25.221  0.8415  0.9754  0.5508
  137SAPE   H3Y14909   4.884   1.872  25.063  0.6156 -1.1824 -1.1738
  137SAPE   C3414910   5.026   1.919  25.217 -0.8268  0.4607 -0.5392
  137SAPE   H4X14911   5.118   1.928  25.156 -0.0392  0.5300  0.6087
  137SAPE   H4Y14912   5.059   1.880  25.316 -0.4166 -1.1659 -1.2813
  137SAPE   C3514913   4.983   2.064  25.230 -0.4043  0.4381  0.1429
  137SAPE   H5X14914   4.885   2.056  25.282  0.1877 -4.0226  1.0117
  137SAPE   H5Y14915   4.953   2.112  25.135 -3.6894 -0.8962  0.3492
  137SAPE   C3614916   5.089   2.149  25.303 -0.2145 -0.6624 -0.0920
  137SAPE   H6X14917   5.187   2.117  25.261 -0.0968 -2.5094  1.3921
  137SAPE   H6Y14918   5.083   2.110  25.408 -0.3115 -0.3025  0.0362
  137SAPE   C3714919   5.067   2.302  25.297  0.6710 -0.2864 -0.4987
  137SAPE   H7X14920   4.979   2.332  25.357 -0.1688 -3.0135 -0.2199
  137SAPE   H7Y14921   5.047   2.329  25.191  0.7808 -0.4497 -0.5617
  137SAPE   C3814922   5.202   2.370  25.317  0.2078  0.2842 -0.2591
  137SAPE   H8X14923   5.274   2.334  25.240 -0.2727 -0.1115 -0.5263
  137SAPE   H8Y14924   5.254   2.322  25.403  2.0873 -1.6603 -2.3378
  137SAPE   C3914925   5.175   2.520  25.310 -0.0958 -0.2148 -0.4055
  137SAPE   H9X14926   5.098   2.546  25.386  0.9419 -0.2720  0.6982
  137SAPE   H9Y14927   5.118   2.536  25.217 -1.2127 -1.0478  0.1257
  137SAPE  C31014928   5.298   2.610  25.321 -0.3074 -0.6258  0.0515
  137SAPE  H10X14929   5.259   2.706  25.281 -0.5717 -0.4892  0.6234
  137SAPE  H10Y14930   5.383   2.566  25.266 -0.1241 -0.2733  0.0530
  137SAPE  C31114931   5.341   2.623  25.463 -0.0228 -0.8895 -0.4864
  137SAPE  H11X14932   5.362   2.521  25.501 -2.1111 -1.5321 -0.9332
  137SAPE  H11Y14933   5.248   2.657  25.514  0.0068  0.0997 -1.0494
  137SAPE  C31214934   5.446   2.727  25.478 -0.1096 -0.1132  0.3824
  137SAPE  H12X14935   5.421   2.811  25.410  1.8594  0.0129 -0.2485
  137SAPE  H12Y14936   5.549   2.697  25.447 -0.3196  1.3541 -2.0822
  137SAPE  C31314937   5.457   2.790  25.613  0.1519 -0.2455 -0.7287
  137SAPE  H13X14938   5.481   2.725  25.699 -0.5798  2.1858  1.4409
  137SAPE  H13Y14939   5.361   2.837  25.644  0.8801  1.1339 -0.5049
  137SAPE  C31414940   5.575   2.900  25.614  0.4868  0.3356  0.2418
  137SAPE  H14X14941   5.565   2.969  25.528 -2.5095  2.0039  1.7583
  137SAPE  H14Y14942   5.672   2.847  25.620  0.4544  0.3721  1.2412
  137SAPE  C31514943   5.575   2.983  25.752  0.0579  0.0856  0.0466
  137SAPE  H15X14944   5.487   3.051  25.762 -0.5123 -0.8334  1.8387
  137SAPE  H15Y14945   5.670   3.037  25.736  0.7694 -1.1392  0.0000
  137SAPE  C31614946   5.603   2.897  25.875 -0.1505 -0.4145 -0.5048
  137SAPE  H16X14947   5.675   2.814  25.860 -0.2643 -0.8441  1.0746
  137SAPE  H16Y14948   5.507   2.857  25.913 -0.0584 -0.6238 -0.4915
  137SAPE  C31714949   5.681   2.983  25.973 -0.1935  0.6495  0.5407
  137SAPE  H17X14950   5.617   3.058  26.024 -0.9525  1.9023 -2.0718
  137SAPE  H17Y14951   5.759   3.041  25.919  0.3822 -0.7230 -0.1769
  137SAPE  C31814952   5.755   2.903  26.081  0.4909  0.0767 -0.0013
  137SAPE  H18X14953   5.829   2.839  26.028 -1.6582 -1.9909 -0.6931
  137SAPE  H18Y14954   5.676   2.840  26.127  0.6522  1.6796  2.6523
  137SAPE  H18Z14955   5.803   2.969  26.156  1.0333  0.3971 -0.6205
  138SAPE     N14956   0.060   2.485  21.165  0.0156  0.2999  0.1043
  138SAPE   HN114957   0.081   2.387  21.140 -1.8785  0.1143 -0.8653
  138SAPE   HN214958  -0.043   2.496  21.175  0.2900  0.7720  3.5786
  138SAPE   HN314959   0.090   2.546  21.086  0.9215 -2.0503 -1.4832
  138SAPE   C1214960   0.115   2.518  21.302 -0.3425 -0.2252  0.3837
  138SAPE  H12A14961   0.079   2.620  21.328 -0.1412 -0.0564  0.0158
  138SAPE  H12B14962   0.225   2.507  21.303 -0.3858 -1.4515  3.3211
  138SAPE   C1114963   0.064   2.419  21.411 -0.3532  0.5298  0.1761
  138SAPE  H11A14964   0.090   2.458  21.512 -1.2352  1.3854  0.0771
  138SAPE  H11B14965   0.108   2.317  21.406 -3.0774 -0.7614  1.0693
  138SAPE     P14966  -0.167   2.510  21.467  0.6617 -0.3017  0.1962
  138SAPE   O1314967  -0.274   2.447  21.548 -0.0734 -0.1332 -0.0576
  138SAPE   O1414968  -0.079   2.609  21.529  0.1324  0.2626  0.2829
  138SAPE   O1214969  -0.075   2.397  21.408  0.1288 -0.2558 -0.4281
  138SAPE   O1114970  -0.228   2.576  21.328 -0.6503  0.3566 -0.4203
  138SAPE    C114971  -0.355   2.539  21.293  0.2062 -0.1126  0.6077
  138SAPE    HA14972  -0.406   2.459  21.351 -2.6706 -0.0447 -1.5801
  138SAPE    HB14973  -0.429   2.623  21.298 -0.6280 -0.8792  1.5304
  138SAPE    C214974  -0.362   2.510  21.137  0.6460 -0.0149 -0.2143
  138SAPE    HS14975  -0.283   2.434  21.113 -0.3515 -0.4172 -2.5160
  138SAPE   O2114976  -0.344   2.628  21.057 -0.0833 -0.4620  0.3577
  138SAPE   C2114977  -0.228   2.639  21.001  1.0828  0.3889  0.3206
  138SAPE   O2214978  -0.137   2.558  21.008 -0.0785 -0.0951 -0.3113
  138SAPE   C2214979  -0.244   2.751  20.886 -0.5712  0.0527  0.7044
  138SAPE   H2R14980  -0.146   2.800  20.863 -1.6255  2.3323  0.7584
  138SAPE   H2S14981  -0.281   2.701  20.795 -1.5509  0.6859  0.7461
  138SAPE    C314982  -0.501   2.443  21.109  0.4327  0.3235 -0.3098
  138SAPE    HX14983  -0.503   2.358  21.180 -0.4163  0.2036 -0.4705
  138SAPE    HY14984  -0.516   2.414  21.003 -2.1626 -1.4623  0.4240
  138SAPE   O3114985  -0.618   2.520  21.142  0.1362 -0.9104 -0.1083
  138SAPE   C3114986  -0.737   2.470  21.094 -0.4187  0.3163 -0.0962
  138SAPE   O3214987  -0.745   2.366  21.034 -0.5208  0.5388  0.3281
  138SAPE   C3214988  -0.835   2.582  21.093  0.1266 -0.1875 -0.6716
  138SAPE   H2X14989  -0.775   2.671  21.065 -1.9244  1.0484 -1.3814
  138SAPE   H2Y14990  -0.873   2.604  21.195 -1.1550 -2.3185 -0.6350
  138SAPE   C2314991  -0.331   2.874  20.929 -0.5619 -0.2983 -0.2420
  138SAPE   H3R14992  -0.307   2.916  21.029 -1.4016 -0.7540  0.1640
  138SAPE   H3S14993  -0.439   2.848  20.940 -0.6455 -0.0954 -0.5919
  138SAPE   C2414994  -0.332   2.987  20.827 -0.5298  0.2661 -0.2087
  138SAPE   H4R14995  -0.422   3.052  20.840  0.2149  1.7057 -1.8958
  138SAPE   H4S14996  -0.360   2.939  20.731  3.3056  2.1447 -2.4816
  138SAPE   C2514997  -0.208   3.066  20.833 -0.5918 -0.7826  0.9139
  138SAPE   H5R14998  -0.124   3.011  20.879  1.8145  0.6207 -1.4758
  138SAPE   C2614999  -0.180   3.185  20.797  0.2467 -0.0077  0.8025
  138SAPE   H6R15000  -0.075   3.207  20.823  0.0635  0.0743  1.4784
  138SAPE   C2715001  -0.263   3.292  20.732  0.8572 -0.5830 -0.4549
  138SAPE   H7R15002  -0.366   3.282  20.772  1.5304 -3.3039  0.8310
  138SAPE   H7S15003  -0.281   3.270  20.625 -1.8029  0.0970 -0.2201
  138SAPE   C2815004  -0.210   3.435  20.745  0.4266 -0.1940  0.6513
  138SAPE   H8R15005  -0.135   3.451  20.824  0.2746 -1.1093  1.0004
  138SAPE   C2915006  -0.245   3.549  20.678  0.8872  0.2412 -0.6436
  138SAPE   H9R15007  -0.187   3.641  20.697 -1.5402  1.3116  2.7777
  138SAPE  C21015008  -0.346   3.571  20.569  0.0420 -0.8046  0.7621
  138SAPE  H10R15009  -0.389   3.470  20.550  0.0950 -0.3422 -2.4345
  138SAPE  H10S15010  -0.291   3.612  20.481 -1.2048  1.3748  0.9359
  138SAPE  C21115011  -0.443   3.682  20.595  0.1436  0.0304  0.1317
  138SAPE  H11R15012  -0.420   3.747  20.681 -0.6059 -0.8513  1.0257
  138SAPE  C21215013  -0.537   3.724  20.507 -0.3243  0.1053 -0.7178
  138SAPE  H12R15014  -0.607   3.804  20.533  0.9249  1.2860 -0.8927
  138SAPE  C21315015  -0.566   3.656  20.376 -0.0133  0.2355 -0.3367
  138SAPE  H13R15016  -0.542   3.550  20.396 -1.2125  0.0544  0.2007
  138SAPE  H13S15017  -0.479   3.680  20.310  1.7328 -1.7893  1.0770
  138SAPE  C21415018  -0.690   3.671  20.297  0.2512  0.2942  0.2630
  138SAPE  H14R15019  -0.747   3.577  20.295  0.0303  0.4339 -0.4451
  138SAPE  C21515020  -0.734   3.781  20.230 -0.4301  0.0683 -0.1149
  138SAPE  H15R15021  -0.830   3.769  20.177  0.8147 -0.7503 -2.3268
  138SAPE  C21615022  -0.670   3.918  20.237  0.3113 -0.1144  0.6735
  138SAPE  H16R15023  -0.573   3.908  20.291 -0.8767  1.1273  3.1997
  138SAPE  H16S15024  -0.730   3.996  20.288  0.5698  2.3053 -2.3844
  138SAPE  C21715025  -0.643   3.993  20.100  0.4545  1.1225  1.0093
  138SAPE  H17R15026  -0.603   4.095  20.114  2.2678  0.5384  0.4399
  138SAPE  H17S15027  -0.733   3.991  20.035  1.8442 -4.1532 -1.3020
  138SAPE  C21815028  -0.541   3.909  20.017  0.1811  0.0978  0.4894
  138SAPE  H18R15029  -0.591   3.822  19.968 -1.3146 -0.7941  3.3436
  138SAPE  H18S15030  -0.476   3.859  20.092  1.2159  1.3285  0.4362
  138SAPE  C21915031  -0.455   3.995  19.924 -0.0151 -0.1579  0.5687
  138SAPE  H19R15032  -0.402   4.069  19.988 -0.0686  0.7494 -0.4102
  138SAPE  H19S15033  -0.512   4.063  19.858  0.8010  1.0077  1.0448
  138SAPE  C22015034  -0.354   3.923  19.830  0.3028  0.3984 -0.8601
  138SAPE  H20R15035  -0.284   3.996  19.784  1.5054 -0.4438 -0.4294
  138SAPE  H20S15036  -0.422   3.877  19.755 -1.2138 -0.8820  1.2059
  138SAPE  H20T15037  -0.306   3.841  19.887  0.7114  0.7687 -0.6663
  138SAPE   C3315038  -0.949   2.548  20.997  0.0119  0.2217 -0.0961
  138SAPE   H3X15039  -0.992   2.459  21.048 -2.4210  0.7319 -1.1213
  138SAPE   H3Y15040  -0.918   2.513  20.896 -2.3453 -0.0273 -0.8101
  138SAPE   C3415041  -1.052   2.668  20.990  0.1670  0.1227  0.3750
  138SAPE   H4X15042  -1.128   2.664  20.909 -1.4551 -0.0597  1.8492
  138SAPE   H4Y15043  -0.988   2.753  20.957 -2.5275  2.1833  0.0039
  138SAPE   C3515044  -1.125   2.700  21.121  0.4015 -0.0507  0.7967
  138SAPE   H5X15045  -1.043   2.711  21.195  0.0452 -0.5032  1.2652
  138SAPE   H5Y15046  -1.177   2.609  21.157  0.7799 -0.6208 -0.0777
  138SAPE   C3615047  -1.199   2.829  21.102  0.4290 -0.5312  0.1796
  138SAPE   H6X15048  -1.270   2.829  21.017  0.4892  0.4237  0.1220
  138SAPE   H6Y15049  -1.126   2.909  21.079  0.4026 -0.9601 -1.4889
  138SAPE   C3715050  -1.268   2.871  21.232  0.4065  0.2519  0.3114
  138SAPE   H7X15051  -1.193   2.904  21.307 -0.2595 -3.2695  2.7730
  138SAPE   H7Y15052  -1.320   2.792  21.290  0.9926  0.4915  1.1947
  138SAPE   C3815053  -1.379   2.977  21.209  0.2087 -0.2925 -0.2963
  138SAPE   H8X15054  -1.328   3.060  21.156  0.8103  0.6423  1.6559
  138SAPE   H8Y15055  -1.408   3.025  21.305 -3.4847 -1.3703 -0.7267
  138SAPE   C3915056  -1.505   2.923  21.148 -0.0258 -0.1643 -0.5462
  138SAPE   H9X15057  -1.558   2.859  21.221 -0.1502 -2.0584 -2.2190
  138SAPE   H9Y15058  -1.489   2.849  21.067 -1.6624 -1.2402  0.0628
  138SAPE  C31015059  -1.604   3.026  21.089  0.1533  0.1961 -0.4301
  138SAPE  H10X15060  -1.665   2.975  21.012  1.8738 -2.1514 -0.3519
  138SAPE  H10Y15061  -1.531   3.097  21.043  0.3629  0.2423 -0.0360
  138SAPE  C31115062  -1.690   3.094  21.201  0.5038 -0.0256 -0.2514
  138SAPE  H11X15063  -1.622   3.134  21.280 -1.3279  0.7078  1.0046
  138SAPE  H11Y15064  -1.757   3.022  21.252  1.3978  0.4807  1.7420
  138SAPE  C31215065  -1.778   3.207  21.131  0.3468  0.6747  0.0320
  138SAPE  H12X15066  -1.858   3.159  21.072  0.2862  1.3778 -0.4769
  138SAPE  H12Y15067  -1.714   3.275  21.070  0.5784  1.2860  0.9332
  138SAPE  C31315068  -1.863   3.276  21.238 -0.3633 -0.7326 -0.0712
  138SAPE  H13X15069  -1.808   3.335  21.314 -0.3176 -1.6151  0.5978
  138SAPE  H13Y15070  -1.918   3.197  21.294 -1.9885  1.4036  1.5132
  138SAPE  C31415071  -1.970   3.376  21.184 -0.4642  0.3837  0.5055
  138SAPE  H14X15072  -2.050   3.325  21.125 -0.2119 -0.0415  0.5206
  138SAPE  H14Y15073  -1.920   3.431  21.101 -0.2623  0.7643  0.8807
  138SAPE  C31515074  -2.011   3.482  21.288  0.8207 -0.2536  0.2999
  138SAPE  H15X15075  -1.929   3.556  21.301 -0.9493  1.6820  0.9297
  138SAPE  H15Y15076  -2.030   3.440  21.389  0.4825 -0.2746  0.2277
  138SAPE  C31615077  -2.122   3.579  21.254  0.1528  0.1335  0.8119
  138SAPE  H16X15078  -2.221   3.532  21.238 -0.8495  2.4156 -0.2343
  138SAPE  H16Y15079  -2.106   3.637  21.161 -1.4358 -0.4439  0.1439
  138SAPE  C31715080  -2.130   3.701  21.360  0.1570  0.2302 -0.7813
  138SAPE  H17X15081  -2.038   3.759  21.342  0.4964 -0.3388 -0.9168
  138SAPE  H17Y15082  -2.123   3.655  21.461  2.0429  0.8011 -0.6178
  138SAPE  C31815083  -2.251   3.781  21.341 -0.1555 -0.1557  1.1536
  138SAPE  H18X15084  -2.252   3.841  21.248 -2.5809 -1.1724  0.4350
  138SAPE  H18Y15085  -2.268   3.855  21.423  0.8641 -0.4077  1.6078
  138SAPE  H18Z15086  -2.338   3.713  21.339  1.6321 -2.5722  1.4658
  139SAPE     N15087   0.111   1.656  20.991 -0.6243 -0.3623  0.0800
  139SAPE   HN115088   0.178   1.650  20.912 -0.5607 -0.5526  0.1482
  139SAPE   HN215089   0.042   1.730  20.964 -0.6975 -0.9702 -1.4712
  139SAPE   HN315090   0.168   1.687  21.072  2.5205 -1.5240 -1.5531
  139SAPE   C1215091   0.042   1.521  21.016 -0.6411 -0.5514  0.5602
  139SAPE  H12A15092  -0.028   1.502  20.931 -2.1295  1.9407  1.1140
  139SAPE  H12B15093  -0.025   1.532  21.104 -0.8078 -0.2098  0.3943
  139SAPE   C1115094   0.145   1.405  21.027 -0.2350 -0.0751 -0.5791
  139SAPE  H11A15095   0.193   1.387  20.929  3.1829 -0.9731  1.1027
  139SAPE  H11B15096   0.081   1.316  21.043  1.2294 -1.0301  0.2271
  139SAPE     P15097   0.279   1.309  21.229  0.0338  0.3239  0.0339
  139SAPE   O1315098   0.367   1.357  21.339  0.1968  0.0367  0.9299
  139SAPE   O1415099   0.157   1.235  21.260 -0.1119  0.3057  0.2237
  139SAPE   O1215100   0.233   1.425  21.131  0.5242 -0.6678 -0.5849
  139SAPE   O1115101   0.363   1.211  21.131 -0.6017  0.1125 -0.0025
  139SAPE    C115102   0.475   1.257  21.058 -0.4621  0.1733  0.0954
  139SAPE    HA15103   0.442   1.345  20.999 -1.2200 -0.0203  0.2161
  139SAPE    HB15104   0.558   1.271  21.130 -1.5476 -1.2454  1.7185
  139SAPE    C215105   0.510   1.141  20.961 -0.0972  0.0463  0.4175
  139SAPE    HS15106   0.532   1.054  21.027 -0.2594 -0.6490 -0.4352
  139SAPE   O2115107   0.629   1.180  20.892 -0.1978  0.4132  0.1044
  139SAPE   C2115108   0.741   1.138  20.930 -0.0979  0.1533  0.2441
  139SAPE   O2215109   0.765   1.069  21.029 -0.3256 -0.5648  0.2666
  139SAPE   C2215110   0.850   1.171  20.832 -0.4228  0.2227 -0.3089
  139SAPE   H2R15111   0.816   1.130  20.735  1.0768 -0.5365 -0.5416
  139SAPE   H2S15112   0.872   1.279  20.826 -0.5766  0.3076  0.4482
  139SAPE    C315113   0.384   1.114  20.869  0.1747  0.7561 -0.8999
  139SAPE    HX15114   0.370   1.212  20.816  5.8292  2.1576 -0.3990
  139SAPE    HY15115   0.294   1.092  20.930  0.4793 -0.2286 -0.8024
  139SAPE   O3115116   0.418   1.015  20.772  0.4115  0.2020  0.5207
  139SAPE   C3115117   0.419   0.890  20.808  0.0485 -0.1805 -0.4626
  139SAPE   O3215118   0.413   0.846  20.922 -0.1612 -0.1341 -0.8059
  139SAPE   C3215119   0.421   0.810  20.683  0.2109  0.3435  0.2815
  139SAPE   H2X15120   0.324   0.756  20.674  0.8566 -0.9664  0.8390
  139SAPE   H2Y15121   0.503   0.736  20.701 -0.0889  0.0934  0.6212
  139SAPE   C2315122   0.987   1.111  20.870 -0.6424  0.5751 -0.3771
  139SAPE   H3R15123   0.970   1.003  20.891  0.5684  0.6804  1.3246
  139SAPE   H3S15124   1.020   1.154  20.967  0.3220 -0.5373 -0.1907
  139SAPE   C2415125   1.084   1.120  20.758  0.1764 -0.1128  0.1578
  139SAPE   H4R15126   1.027   1.090  20.667 -0.3695  0.2854  0.3571
  139SAPE   H4S15127   1.165   1.047  20.776 -0.2675 -0.0139  2.9594
  139SAPE   C2515128   1.136   1.265  20.759  0.1997 -0.1526  0.5602
  139SAPE   H5R15129   1.151   1.307  20.860 -0.1917  1.9375 -0.2135
  139SAPE   C2615130   1.161   1.352  20.658  0.0014 -0.1626 -0.5385
  139SAPE   H6R15131   1.189   1.455  20.685 -2.3454  0.1766  0.9645
  139SAPE   C2715132   1.140   1.346  20.508  0.3456  0.1854  0.6648
  139SAPE   H7R15133   1.151   1.450  20.471 -2.5306  0.3939  0.1658
  139SAPE   H7S15134   1.031   1.339  20.487  0.5439  0.1600 -0.4043
  139SAPE   C2815135   1.223   1.245  20.434 -0.3507 -0.3482  0.2306
  139SAPE   H8R15136   1.309   1.206  20.491  0.4033  1.6844  0.5596
  139SAPE   C2915137   1.207   1.219  20.306 -0.0775 -0.7357  0.3901
  139SAPE   H9R15138   1.277   1.157  20.248  1.0285  2.4091 -1.9031
  139SAPE  C21015139   1.110   1.276  20.209 -1.0218 -0.7017 -0.2159
  139SAPE  H10R15140   1.026   1.321  20.265  1.0252  2.5955  0.4901
  139SAPE  H10S15141   1.077   1.185  20.155  1.9004 -1.4148 -0.9640
  139SAPE  C21115142   1.181   1.371  20.112  0.4930 -0.0494 -0.1846
  139SAPE  H11R15143   1.263   1.424  20.163  2.0131 -1.4626 -1.0644
  139SAPE  C21215144   1.164   1.391  19.984 -0.9893  0.7332 -0.1074
  139SAPE  H12R15145   1.241   1.451  19.933 -1.6159 -0.2446 -2.2998
  139SAPE  C21315146   1.071   1.311  19.892 -0.0211  0.4018 -0.0104
  139SAPE  H13R15147   0.971   1.359  19.891 -0.2951 -0.1668 -0.6929
  139SAPE  H13S15148   1.044   1.210  19.927  1.1206  0.0179 -0.1778
  139SAPE  C21415149   1.136   1.308  19.755  0.2965 -0.2932  0.5697
  139SAPE  H14R15150   1.172   1.408  19.726  2.6197 -0.7199  1.8055
  139SAPE  C21515151   1.152   1.201  19.674 -0.9804 -0.2364  0.2203
  139SAPE  H15R15152   1.210   1.205  19.581  0.0261  0.3459  0.8505
  139SAPE  C21615153   1.112   1.059  19.708 -0.0879  0.6402  0.3141
  139SAPE  H16R15154   1.042   1.060  19.794  1.7047 -0.8460  1.8514
  139SAPE  H16S15155   1.185   0.977  19.717 -2.6340 -1.9312 -0.8680
  139SAPE  C21715156   1.020   1.022  19.586  0.3540  0.2857 -1.0358
  139SAPE  H17R15157   0.955   1.111  19.573 -1.9792 -1.1018  0.4703
  139SAPE  H17S15158   0.954   0.945  19.630  0.7388  0.5252 -0.0238
  139SAPE  C21815159   1.093   0.973  19.460  0.6149  0.4502 -0.2084
  139SAPE  H18R15160   1.158   0.887  19.487 -0.1854 -0.3858 -0.9026
  139SAPE  H18S15161   1.150   1.060  19.421 -0.4601  1.0905 -0.3998
  139SAPE  C21915162   1.001   0.930  19.347 -0.2595 -0.3779  0.5884
  139SAPE  H19R15163   0.918   1.003  19.355  1.1407  1.3285  0.3502
  139SAPE  H19S15164   0.973   0.825  19.368  0.2433 -0.5486  0.4354
  139SAPE  C22015165   1.059   0.947  19.205  0.5382 -0.0942 -0.3393
  139SAPE  H20R15166   1.157   0.898  19.185  0.4663  0.3138 -1.8396
  139SAPE  H20S15167   1.074   1.052  19.173 -0.7671  0.5091  0.9358
  139SAPE  H20T15168   0.986   0.901  19.134 -1.1161  1.8252  0.0493
  139SAPE   C3315169   0.438   0.880  20.544 -0.0117  0.8708 -0.1292
  139SAPE   H3X15170   0.528   0.946  20.540  2.1696 -1.9671 -1.4608
  139SAPE   H3Y15171   0.345   0.936  20.522  0.3409  1.0779 -1.1141
  139SAPE   C3415172   0.463   0.785  20.424  0.2941  0.2721  0.5513
  139SAPE   H4X15173   0.386   0.705  20.427 -2.3303  2.4352 -2.2593
  139SAPE   H4Y15174   0.558   0.728  20.428 -0.0570 -0.6285 -2.1689
  139SAPE   C3515175   0.446   0.854  20.284 -0.3136  0.2297  0.0999
  139SAPE   H5X15176   0.484   0.783  20.208  2.2449  0.3615  1.1720
  139SAPE   H5Y15177   0.504   0.949  20.284 -0.7487  0.5391 -2.0707
  139SAPE   C3615178   0.300   0.865  20.244  0.1462 -0.3000 -0.1125
  139SAPE   H6X15179   0.240   0.917  20.323  1.8692  1.2442  0.2734
  139SAPE   H6Y15180   0.254   0.765  20.233 -0.5890  0.1375 -1.2547
  139SAPE   C3715181   0.304   0.916  20.095 -0.2128 -0.7329 -0.4247
  139SAPE   H7X15182   0.380   0.869  20.029  1.7702  1.5625  0.0649
  139SAPE   H7Y15183   0.341   1.021  20.093 -1.5858 -0.0979  2.0894
  139SAPE   C3815184   0.165   0.907  20.027 -0.0503 -0.9668 -0.5944
  139SAPE   H8X15185   0.092   0.978  20.070  1.3715 -0.4682  1.0972
  139SAPE   H8Y15186   0.133   0.801  20.036  0.5303 -0.9913  1.6300
  139SAPE   C3915187   0.180   0.946  19.875 -0.7010 -0.6867 -0.5587
  139SAPE   H9X15188   0.255   0.879  19.828  1.3170  0.8354  0.3522
  139SAPE   H9Y15189   0.217   1.051  19.872  0.1661 -0.9934 -0.7857
  139SAPE  C31015190   0.042   0.932  19.788 -0.7879 -0.2128  0.3507
  139SAPE  H10X15191   0.013   1.040  19.794 -1.0086 -0.3171  1.5570
  139SAPE  H10Y15192  -0.028   0.865  19.842 -1.0205 -1.3132 -1.2576
  139SAPE  C31115193   0.076   0.880  19.647 -0.1300  0.0684  0.1484
  139SAPE  H11X15194   0.119   0.779  19.666  0.9648  0.5348  0.2214
  139SAPE  H11Y15195   0.158   0.937  19.598 -0.7222  0.9751  0.1957
  139SAPE  C31215196  -0.036   0.897  19.545 -0.2058  0.1928 -0.8030
  139SAPE  H12X15197  -0.076   0.999  19.527 -4.0875 -1.0261  0.0604
  139SAPE  H12Y15198  -0.116   0.841  19.598  2.3300 -1.5400  1.4882
  139SAPE  C31315199  -0.006   0.808  19.421  0.6972  0.1271 -0.5221
  139SAPE  H13X15200  -0.006   0.701  19.450  3.3374  0.2976  0.4108
  139SAPE  H13Y15201   0.098   0.827  19.386  1.1995 -0.1236  0.7669
  139SAPE  C31415202  -0.106   0.830  19.304 -0.7289 -0.1051  0.4401
  139SAPE  H14X15203  -0.063   0.760  19.230 -0.6153 -0.7296  1.0944
  139SAPE  H14Y15204  -0.117   0.929  19.254 -0.2357 -0.1064  0.3321
  139SAPE  C31515205  -0.245   0.796  19.351 -0.2739  0.6285 -0.9624
  139SAPE  H15X15206  -0.295   0.873  19.413 -0.4091 -0.1611 -0.0704
  139SAPE  H15Y15207  -0.235   0.714  19.426 -2.3742 -0.7208 -2.0627
  139SAPE  C31615208  -0.341   0.757  19.238  0.2367  0.0482  0.2701
  139SAPE  H16X15209  -0.436   0.732  19.290  0.0309  1.0894  0.4252
  139SAPE  H16Y15210  -0.365   0.838  19.165  1.5724 -0.9846 -1.4212
  139SAPE  C31715211  -0.308   0.628  19.158 -0.2965 -0.9636  0.7029
  139SAPE  H17X15212  -0.280   0.547  19.229 -0.9038  1.1157  3.5007
  139SAPE  H17Y15213  -0.217   0.647  19.097  1.2011 -1.2202  2.7573
  139SAPE  C31815214  -0.433   0.585  19.076  0.2072  0.0878 -0.2788
  139SAPE  H18X15215  -0.408   0.486  19.031 -0.7832  0.1482 -1.0045
  139SAPE  H18Y15216  -0.457   0.663  19.000 -1.1467  0.4236  0.4595
  139SAPE  H18Z15217  -0.527   0.570  19.134 -0.4297  3.0471 -0.3944
  140SAPE     N15218   0.393   0.881  25.665  0.1994  0.7816 -0.5485
  140SAPE   HN115219   0.457   0.944  25.612  0.1849  0.2702 -1.1838
  140SAPE   HN215220   0.409   0.881  25.767 -2.1349 -1.6827 -0.0738
  140SAPE   HN315221   0.415   0.784  25.635  0.8656  1.0153 -0.8409
  140SAPE   C1215222   0.252   0.905  25.655 -0.1244 -0.3643  0.1496
  140SAPE  H12A15223   0.230   0.993  25.719  1.2524 -0.3403  0.6320
  140SAPE  H12B15224   0.207   0.819  25.708 -0.1469 -0.2974  0.2388
  140SAPE   C1115225   0.196   0.918  25.508  0.3429  0.1181  0.7407
  140SAPE  H11A15226   0.086   0.928  25.517  0.3183  1.4468 -0.6675
  140SAPE  H11B15227   0.215   0.826  25.449  1.9412  1.8617 -1.6454
  140SAPE     P15228   0.193   1.038  25.283 -0.0820  0.4254 -0.2512
  140SAPE   O1315229   0.071   0.949  25.277  0.2782 -0.5457 -0.8529
  140SAPE   O1415230   0.177   1.180  25.244 -0.0423  0.1767  0.0259
  140SAPE   O1215231   0.255   1.019  25.433  0.0844  0.0540  0.3430
  140SAPE   O1115232   0.304   0.970  25.186 -0.2840  0.1991 -0.7328
  140SAPE    C115233   0.422   0.914  25.233  0.4375  0.4271  0.0929
  140SAPE    HA15234   0.412   0.865  25.332  0.0507 -0.1351 -0.2142
  140SAPE    HB15235   0.459   0.836  25.163  1.3699  0.7914  0.1586
  140SAPE    C215236   0.539   1.017  25.232  0.1647 -0.5160  0.7756
  140SAPE    HS15237   0.617   0.954  25.280  0.4781 -0.7391 -0.0175
  140SAPE   O2115238   0.511   1.136  25.302 -0.6333  0.4661 -0.3685
  140SAPE   C2115239   0.529   1.124  25.432  0.0614  0.2350  0.0631
  140SAPE   O2215240   0.581   1.027  25.496 -0.2188 -0.1226  0.2584
  140SAPE   C2215241   0.471   1.248  25.495 -0.1279 -0.3890 -0.1022
  140SAPE   H2R15242   0.420   1.303  25.414  1.9333  0.1980 -1.0805
  140SAPE   H2S15243   0.403   1.214  25.576  0.8198 -1.7495  0.1687
  140SAPE    C315244   0.575   1.053  25.085 -0.8263 -0.0992  0.3578
  140SAPE    HX15245   0.480   1.069  25.030  0.8923  1.9477 -2.2693
  140SAPE    HY15246   0.629   0.967  25.040  1.2514  1.3454 -0.0681
  140SAPE   O3115247   0.660   1.164  25.089 -0.2869 -1.1268  0.9082
  140SAPE   C3115248   0.786   1.150  25.103  0.4260  0.2411  0.4938
  140SAPE   O3215249   0.846   1.048  25.110 -0.7788 -0.1902  0.0102
  140SAPE   C3215250   0.857   1.289  25.112  0.4826  0.4898 -0.3884
  140SAPE   H2X15251   0.965   1.275  25.090  0.2814 -0.0232 -1.0883
  140SAPE   H2Y15252   0.857   1.317  25.219  0.9593  2.5485 -0.8868
  140SAPE   C2315253   0.569   1.349  25.570 -0.3245  0.6354 -0.0779
  140SAPE   H3R15254   0.659   1.296  25.609  0.2831  2.6932  1.4758
  140SAPE   H3S15255   0.510   1.378  25.659 -0.5757  0.6204 -0.2410
  140SAPE   C2415256   0.618   1.471  25.487  0.6992  0.3269  0.0464
  140SAPE   H4R15257   0.529   1.520  25.443  0.5166 -0.4520 -0.4794
  140SAPE   H4S15258   0.670   1.441  25.393 -0.4168 -0.6374 -0.2974
  140SAPE   C2515259   0.715   1.554  25.567 -0.1041  0.3667 -0.6926
  140SAPE   H5R15260   0.816   1.512  25.556  0.2253  1.0848 -0.5088
  140SAPE   C2615261   0.703   1.674  25.633  0.3240 -0.4003  0.4184
  140SAPE   H6R15262   0.792   1.714  25.684 -0.7556 -0.9897  2.9470
  140SAPE   C2715263   0.580   1.760  25.635  0.1305  0.2214  0.0072
  140SAPE   H7R15264   0.527   1.708  25.717  0.4344 -3.2919 -1.8229
  140SAPE   H7S15265   0.522   1.739  25.542  0.4475  1.4628 -0.4881
  140SAPE   C2815266   0.578   1.906  25.671  0.4373 -0.0246 -0.1500
  140SAPE   H8R15267   0.562   1.971  25.584 -0.9972 -1.1436 -0.7730
  140SAPE   C2915268   0.581   1.953  25.797 -0.0594 -0.1208  0.8049
  140SAPE   H9R15269   0.590   2.062  25.805  1.4610 -0.2045  0.4268
  140SAPE  C21015270   0.602   1.878  25.927 -0.0610 -0.2896  0.1473
  140SAPE  H10R15271   0.707   1.894  25.958  0.2959 -1.3372 -0.4799
  140SAPE  H10S15272   0.586   1.769  25.912  1.1697 -0.5587  0.7116
  140SAPE  C21115273   0.514   1.919  26.041 -0.3572  0.4826 -0.3480
  140SAPE  H11R15274   0.416   1.870  26.037 -0.0008 -0.1791 -2.2349
  140SAPE  C21215275   0.548   2.001  26.142 -0.7981  0.1395 -0.4491
  140SAPE  H12R15276   0.464   2.044  26.199  0.2290  1.4090  0.1654
  140SAPE  C21315277   0.687   2.060  26.180 -0.1126 -0.9787  0.3444
  140SAPE  H13R15278   0.689   2.165  26.143 -1.9396 -0.9846  0.1346
  140SAPE  H13S15279   0.775   2.014  26.130  1.7950  2.1287  0.5456
  140SAPE  C21415280   0.706   2.050  26.324 -0.1343 -1.2147 -0.4053
  140SAPE  H14R15281   0.644   1.976  26.376 -2.3009 -0.8466 -2.3310
  140SAPE  C21515282   0.781   2.144  26.394 -0.9065  0.0828  0.2176
  140SAPE  H15R15283   0.800   2.133  26.501  0.2298 -1.3398 -0.0999
  140SAPE  C21615284   0.865   2.263  26.337  0.0242 -0.1556  0.0587
  140SAPE  H16R15285   0.865   2.344  26.413 -0.2898  0.5794 -0.7127
  140SAPE  H16S15286   0.826   2.308  26.243 -0.2431  1.0437  0.7209
  140SAPE  C21715287   1.012   2.222  26.300  0.4138  0.5125 -0.5577
  140SAPE  H17R15288   1.046   2.317  26.254 -0.7210  0.7355 -0.9794
  140SAPE  H17S15289   1.013   2.139  26.226 -3.1041 -2.0371  1.9098
  140SAPE  C21815290   1.098   2.181  26.414  0.3941  0.2008 -0.1404
  140SAPE  H18R15291   1.072   2.077  26.443  0.4522  0.2522  0.0973
  140SAPE  H18S15292   1.077   2.252  26.496  0.7918 -1.5938  1.5763
  140SAPE  C21915293   1.250   2.175  26.376  0.4507 -0.6542 -0.1401
  140SAPE  H19R15294   1.268   2.278  26.338 -0.2875 -1.0254 -1.6022
  140SAPE  H19S15295   1.258   2.115  26.283 -2.2054 -0.0595 -0.8558
  140SAPE  C22015296   1.338   2.135  26.493  1.0240  0.4112  1.2382
  140SAPE  H20R15297   1.309   2.197  26.580  0.3633  0.5003  0.9549
  140SAPE  H20S15298   1.446   2.143  26.465  0.6963 -2.2041 -1.2737
  140SAPE  H20T15299   1.329   2.028  26.524  1.9336 -0.2889 -0.7029
  140SAPE   C3315300   0.809   1.406  25.022 -0.3041 -1.0437  1.1671
  140SAPE   H3X15301   0.828   1.507  25.065  0.3639 -0.8666  0.4652
  140SAPE   H3Y15302   0.699   1.412  25.006 -0.3578  0.7254  1.9634
  140SAPE   C3415303   0.880   1.413  24.880 -0.3789  0.6495  0.1756
  140SAPE   H4X15304   0.837   1.484  24.806  2.0980  2.8697  0.6970
  140SAPE   H4Y15305   0.880   1.309  24.840 -2.8915  1.4157 -2.0610
  140SAPE   C3515306   1.026   1.455  24.868  0.3326  0.1274  0.2998
  140SAPE   H5X15307   1.086   1.386  24.932 -2.1164 -1.6579  0.8449
  140SAPE   H5Y15308   1.026   1.558  24.911 -2.1346 -0.0777  0.9984
  140SAPE   C3615309   1.066   1.453  24.725 -0.0994 -0.0471 -0.6253
  140SAPE   H6X15310   1.023   1.537  24.666 -0.7425  0.4120  0.4648
  140SAPE   H6Y15311   1.018   1.364  24.678  1.7473 -0.1268 -2.5082
  140SAPE   C3715312   1.222   1.446  24.700  0.0388  0.8781  0.0706
  140SAPE   H7X15313   1.265   1.350  24.735  3.4345  1.6242 -1.5462
  140SAPE   H7Y15314   1.270   1.522  24.766 -0.0731  1.4682 -0.5038
  140SAPE   C3815315   1.259   1.460  24.548 -0.2415 -0.4538  1.1547
  140SAPE   H8X15316   1.240   1.568  24.528 -1.5986 -1.0797 -1.2989
  140SAPE   H8Y15317   1.178   1.415  24.487 -0.0350  0.9617 -0.2337
  140SAPE   C3915318   1.404   1.428  24.516 -0.2300  0.3346  0.2620
  140SAPE   H9X15319   1.427   1.323  24.545 -1.7836 -0.0532  0.2073
  140SAPE   H9Y15320   1.474   1.504  24.557  0.6610  1.2145 -2.6489
  140SAPE  C31015321   1.437   1.423  24.362  0.2166 -0.1025 -0.3171
  140SAPE  H10X15322   1.440   1.528  24.327  1.3241  0.1645  0.5125
  140SAPE  H10Y15323   1.367   1.355  24.308  2.3856 -1.6227 -1.3615
  140SAPE  C31115324   1.572   1.357  24.341 -0.1310 -0.4248  0.0597
  140SAPE  H11X15325   1.627   1.419  24.415 -1.1829 -0.8587  1.2365
  140SAPE  H11Y15326   1.605   1.386  24.238 -1.1388 -2.7864 -0.9997
  140SAPE  C31215327   1.578   1.209  24.355  0.1867 -0.8152 -0.0628
  140SAPE  H12X15328   1.491   1.149  24.319  1.1405 -1.8578 -0.6875
  140SAPE  H12Y15329   1.580   1.194  24.466 -0.2395  0.7254  0.1742
  140SAPE  C31315330   1.704   1.163  24.289  0.1584 -0.6341 -0.0947
  140SAPE  H13X15331   1.788   1.218  24.335 -1.8846  1.0566  1.8172
  140SAPE  H13Y15332   1.700   1.183  24.180 -2.2413  0.1198  0.0766
  140SAPE  C31415333   1.732   1.009  24.305  0.4436  0.9266 -0.0238
  140SAPE  H14X15334   1.647   0.948  24.268  0.2681  1.1895 -0.0569
  140SAPE  H14Y15335   1.746   0.986  24.412 -1.3978  3.2956  0.8283
  140SAPE  C31515336   1.863   0.973  24.232 -0.9786  0.4093  0.1902
  140SAPE  H15X15337   1.955   1.025  24.267 -0.4226 -1.1472  1.1438
  140SAPE  H15Y15338   1.839   0.999  24.127 -2.7765 -1.5620  0.0588
  140SAPE  C31615339   1.899   0.831  24.258 -0.1911  0.2793 -1.0011
  140SAPE  H16X15340   1.804   0.772  24.257  0.6455 -1.1448 -2.5498
  140SAPE  H16Y15341   1.931   0.841  24.363 -0.9150  3.6173 -0.9785
  140SAPE  C31715342   2.010   0.777  24.168  0.5120 -0.2762 -0.1683
  140SAPE  H17X15343   1.983   0.784  24.060  0.1928 -1.5268 -0.1899
  140SAPE  H17Y15344   2.014   0.667  24.180 -0.2837 -0.5334 -1.9269
  140SAPE  C31815345   2.152   0.834  24.197 -0.0987  0.3703  0.0320
  140SAPE  H18X15346   2.225   0.789  24.127 -1.2652  0.7596 -1.4813
  140SAPE  H18Y15347   2.185   0.807  24.300 -2.2428 -3.2827 -0.0496
  140SAPE  H18Z15348   2.158   0.943  24.180  1.2812  0.1466 -1.1681
  141SAPE     N15349   3.916   2.571  23.184  0.2611  0.1209  0.3526
  141SAPE   HN115350   3.977   2.563  23.100 -0.0123 -2.5144  0.3153
  141SAPE   HN215351   3.966   2.531  23.266 -1.6525 -1.3877  0.8606
  141SAPE   HN315352   3.839   2.503  23.167 -1.4872  2.2251 -0.5554
  141SAPE   C1215353   3.852   2.703  23.180 -0.0506  0.9402 -0.9821
  141SAPE  H12A15354   3.934   2.775  23.159  0.5843  1.0445  1.5353
  141SAPE  H12B15355   3.805   2.714  23.280  0.0767 -2.9691 -0.3185
  141SAPE   C1115356   3.758   2.709  23.066 -0.3899  0.5102  0.1422
  141SAPE  H11A15357   3.724   2.814  23.052  0.7991  0.6793 -1.8589
  141SAPE  H11B15358   3.662   2.655  23.083 -0.8059  1.6049  1.3334
  141SAPE     P15359   3.851   2.750  22.821  0.1094 -0.0750  0.0876
  141SAPE   O1315360   3.907   2.878  22.866  0.1460  0.0010  0.6112
  141SAPE   O1415361   3.926   2.677  22.725  0.2681 -0.0897 -0.3768
  141SAPE   O1215362   3.825   2.657  22.949  0.2698  0.1474  0.3618
  141SAPE   O1115363   3.699   2.766  22.768 -0.1538 -0.2376 -1.0612
  141SAPE    C115364   3.652   2.901  22.773 -0.4119 -0.2125 -0.0342
  141SAPE    HA15365   3.683   2.946  22.870 -0.6481 -2.1063  0.9866
  141SAPE    HB15366   3.696   2.956  22.688 -0.5797  1.0121  0.6506
  141SAPE    C215367   3.503   2.901  22.746  0.0865 -0.2215 -0.3207
  141SAPE    HS15368   3.444   2.861  22.830 -0.8534 -0.4016 -1.0470
  141SAPE   O2115369   3.478   2.853  22.613 -0.3619  0.3446  0.1069
  141SAPE   C2115370   3.367   2.783  22.600  0.3180 -0.0068  0.7297
  141SAPE   O2215371   3.284   2.760  22.686  0.5799  0.2211 -0.2487
  141SAPE   C2215372   3.356   2.718  22.465  0.1950 -0.1933  0.6360
  141SAPE   H2R15373   3.438   2.758  22.403  0.0720  0.1369  0.6872
  141SAPE   H2S15374   3.362   2.608  22.482 -2.2889 -0.2064  2.0901
  141SAPE    C315375   3.446   3.048  22.736 -0.4192  0.3164  0.1733
  141SAPE    HX15376   3.335   3.048  22.729 -0.3548  1.7047 -3.2481
  141SAPE    HY15377   3.479   3.100  22.643 -1.9184  1.4587  0.2495
  141SAPE   O3115378   3.485   3.115  22.858 -0.6300 -1.3544  0.1505
  141SAPE   C3115379   3.515   3.245  22.852 -0.1979 -0.4534 -0.3267
  141SAPE   O3215380   3.522   3.312  22.750 -0.0651  0.2487 -0.3103
  141SAPE   C3215381   3.542   3.299  22.994 -0.9105  0.4210 -0.3678
  141SAPE   H2X15382   3.627   3.370  22.983  0.7865 -1.3799  0.4915
  141SAPE   H2Y15383   3.579   3.214  23.054  1.5981  0.1146 -2.1777
  141SAPE   C2315384   3.217   2.727  22.396  0.1240 -0.2744  0.3115
  141SAPE   H3R15385   3.203   2.836  22.375  0.3791 -0.3486 -0.2502
  141SAPE   H3S15386   3.137   2.688  22.463 -1.0500 -0.8806 -1.3788
  141SAPE   C2415387   3.211   2.653  22.265  0.1577 -0.0129  0.1799
  141SAPE   H4R15388   3.108   2.652  22.224  0.4068 -1.1345 -0.4700
  141SAPE   H4S15389   3.230   2.547  22.292 -0.8900 -0.4373 -0.6758
  141SAPE   C2515390   3.308   2.686  22.155 -0.4810 -0.2986  0.0936
  141SAPE   H5R15391   3.412   2.669  22.185 -0.7065  1.5051  2.1229
  141SAPE   C2615392   3.283   2.729  22.027 -0.2573 -0.2605 -0.1061
  141SAPE   H6R15393   3.365   2.752  21.958 -0.5644  3.2258  0.4847
  141SAPE   C2715394   3.149   2.765  21.972  1.4045 -0.0094  0.5632
  141SAPE   H7R15395   3.158   2.842  21.892  1.6995 -0.9148 -0.3020
  141SAPE   H7S15396   3.099   2.822  22.053 -0.0591 -0.2226 -0.1508
  141SAPE   C2815397   3.071   2.641  21.937 -0.1979  1.0140  0.4858
  141SAPE   H8R15398   3.137   2.562  21.899  0.7160  1.1694  1.6814
  141SAPE   C2915399   2.941   2.608  21.950  0.3648  0.1732  0.6988
  141SAPE   H9R15400   2.917   2.514  21.898 -2.1312  1.3623 -0.4721
  141SAPE  C21015401   2.830   2.696  22.006 -0.1120 -0.0487 -0.1883
  141SAPE  H10R15402   2.764   2.724  21.921  2.0976  0.7847 -1.7490
  141SAPE  H10S15403   2.859   2.791  22.057  1.1945 -1.8522  2.6685
  141SAPE  C21115404   2.742   2.618  22.099  0.9010 -0.0580 -1.4310
  141SAPE  H11R15405   2.689   2.539  22.045 -0.2997 -0.2067 -0.0712
  141SAPE  C21215406   2.727   2.640  22.232  0.8813  0.3941 -0.7764
  141SAPE  H12R15407   2.669   2.567  22.290  2.8202 -1.8468 -1.4723
  141SAPE  C21315408   2.802   2.736  22.315  1.4787 -0.3766 -0.0701
  141SAPE  H13R15409   2.874   2.798  22.257 -0.9841  0.9796 -1.8495
  141SAPE  H13S15410   2.859   2.686  22.396  1.9230 -1.2612 -0.9189
  141SAPE  C21415411   2.710   2.836  22.385  0.6758  0.5889 -1.0847
  141SAPE  H14R15412   2.604   2.840  22.355  0.2212 -0.9706  0.1557
  141SAPE  C21515413   2.729   2.905  22.499  0.4838  0.5148 -0.1630
  141SAPE  H15R15414   2.644   2.964  22.537  0.5186  0.8681 -0.6248
  141SAPE  C21615415   2.851   2.893  22.578  0.0593 -0.3298 -0.5943
  141SAPE  H16R15416   2.925   2.827  22.527 -0.0298  0.9967 -2.5455
  141SAPE  H16S15417   2.821   2.859  22.680 -2.5604  2.7470 -0.1840
  141SAPE  C21715418   2.922   3.030  22.593 -0.1966 -0.3496  0.3074
  141SAPE  H17R15419   2.851   3.111  22.618  0.4342  0.1689  0.4566
  141SAPE  H17S15420   2.959   3.054  22.491 -0.2455  1.6503  0.7308
  141SAPE  C21815421   3.034   3.023  22.687  0.3557 -0.1064  0.4106
  141SAPE  H18R15422   3.129   2.987  22.642  1.1960  1.3157  0.9893
  141SAPE  H18S15423   3.019   2.962  22.779  1.8718  0.7355  1.2536
  141SAPE  C21915424   3.076   3.159  22.740 -0.7336 -0.3855 -0.7406
  141SAPE  H19R15425   3.155   3.149  22.817 -0.5308  2.6769 -0.4249
  141SAPE  H19S15426   2.989   3.208  22.789 -1.1727 -1.8177 -0.0344
  141SAPE  C22015427   3.144   3.255  22.638 -0.7308 -0.9427  0.0973
  141SAPE  H20R15428   3.085   3.281  22.548 -0.6463 -0.9883  0.0277
  141SAPE  H20S15429   3.227   3.195  22.593 -0.1487 -0.2947  0.2830
  141SAPE  H20T15430   3.183   3.346  22.686  0.4895 -1.8357  0.8683
  141SAPE   C3315431   3.427   3.372  23.048  0.2432 -0.2619 -0.1505
  141SAPE   H3X15432   3.400   3.453  22.978  0.2427  1.5385  1.8229
  141SAPE   H3Y15433   3.451   3.423  23.144  2.6050 -0.5040 -0.5435
  141SAPE   C3415434   3.301   3.284  23.066 -0.4052  0.0229  0.4005
  141SAPE   H4X15435   3.336   3.188  23.109 -1.2043 -0.3418  0.2517
  141SAPE   H4Y15436   3.262   3.261  22.965 -1.8826 -0.5467  1.0807
  141SAPE   C3515437   3.187   3.334  23.153  0.5849  0.0923  0.4746
  141SAPE   H5X15438   3.163   3.442  23.144 -0.1463 -0.0760  0.4151
  141SAPE   H5Y15439   3.215   3.293  23.253 -2.0051 -1.3195  0.7023
  141SAPE   C3615440   3.057   3.258  23.118 -0.6020  0.2699 -0.0996
  141SAPE   H6X15441   3.085   3.151  23.113  1.5677  0.7882  0.0100
  141SAPE   H6Y15442   3.029   3.287  23.015 -1.5208  3.1152  0.8485
  141SAPE   C3715443   2.938   3.282  23.205 -0.8596  1.1216 -0.1622
  141SAPE   H7X15444   2.943   3.230  23.302 -2.0156 -0.1841 -0.7598
  141SAPE   H7Y15445   2.850   3.236  23.155 -0.2989 -0.3671  0.1839
  141SAPE   C3815446   2.903   3.430  23.226  0.0988  0.0369  0.1355
  141SAPE   H8X15447   2.909   3.483  23.129 -2.4337 -0.6743 -0.4811
  141SAPE   H8Y15448   2.987   3.471  23.286 -1.2515  2.2431  0.6245
  141SAPE   C3915449   2.773   3.465  23.294  0.5757 -0.2929 -0.0584
  141SAPE   H9X15450   2.788   3.423  23.396  0.7465 -2.6691 -0.9958
  141SAPE   H9Y15451   2.683   3.421  23.247 -1.2493  2.2963  0.8073
  141SAPE  C31015452   2.750   3.620  23.316 -0.0107 -0.1320  0.0608
  141SAPE  H10X15453   2.730   3.666  23.217  0.7260  0.8617  0.3552
  141SAPE  H10Y15454   2.844   3.665  23.355 -0.3525  0.0720  0.6726
  141SAPE  C31115455   2.637   3.652  23.424 -0.3393  0.4188 -0.3208
  141SAPE  H11X15456   2.641   3.763  23.431  2.4034  0.2932  3.2107
  141SAPE  H11Y15457   2.668   3.627  23.528  1.2546  1.0489 -0.6158
  141SAPE  C31215458   2.502   3.598  23.387  0.4231 -0.4833  0.3103
  141SAPE  H12X15459   2.519   3.489  23.376  0.0608 -0.5384  0.2865
  141SAPE  H12Y15460   2.462   3.635  23.290 -0.7610  2.0929  1.6863
  141SAPE  C31315461   2.403   3.605  23.504 -0.3815  0.2592  0.4468
  141SAPE  H13X15462   2.388   3.711  23.534  1.1091 -0.1460  2.8967
  141SAPE  H13Y15463   2.444   3.561  23.597 -2.1958  2.6476  2.5173
  141SAPE  C31415464   2.265   3.539  23.481  0.5827  0.3944 -0.2867
  141SAPE  H14X15465   2.245   3.440  23.528 -0.4273 -0.5357 -2.5334
  141SAPE  H14Y15466   2.268   3.511  23.373  3.0297 -2.1949  0.3183
  141SAPE  C31515467   2.150   3.638  23.505  0.6063  0.4007 -0.2070
  141SAPE  H15X15468   2.170   3.730  23.446  0.3283  1.6241  1.5216
  141SAPE  H15Y15469   2.156   3.663  23.613  1.1947 -0.0324 -0.1348
  141SAPE  C31615470   2.014   3.572  23.484 -0.3621  0.4922  0.5454
  141SAPE  H16X15471   2.010   3.469  23.527  2.9035  0.4091  0.8510
  141SAPE  H16Y15472   1.996   3.548  23.376  1.8183  0.0266  0.2476
  141SAPE  C31715473   1.905   3.664  23.541  0.4137 -0.3138  0.0147
  141SAPE  H17X15474   1.944   3.710  23.634 -0.4294  1.2996 -0.3870
  141SAPE  H17Y15475   1.810   3.616  23.571  0.5254  0.1286  1.1259
  141SAPE  C31815476   1.880   3.786  23.448  0.3793  0.0415 -0.0567
  141SAPE  H18X15477   1.971   3.813  23.391  0.4988 -0.3609 -0.0571
  141SAPE  H18Y15478   1.831   3.870  23.501  0.3900  1.0053 -1.5259
  141SAPE  H18Z15479   1.806   3.764  23.368  0.7251  0.8056 -0.5974
  142SAPE     N15480   0.181   0.184  22.489  0.1693 -0.7786 -0.2266
  142SAPE   HN115481   0.238   0.235  22.419 -0.2143  0.5851  0.4081
  142SAPE   HN215482   0.236   0.165  22.575 -1.2009  0.5381  1.0129
  142SAPE   HN315483   0.146   0.096  22.445 -0.5048  0.0542 -1.4133
  142SAPE   C1215484   0.076   0.271  22.543  0.2159  0.3802  0.0279
  142SAPE  H12A15485   0.139   0.349  22.591 -0.9365  0.3641  1.6693
  142SAPE  H12B15486   0.021   0.220  22.626  0.3476 -1.1037 -0.7550
  142SAPE   C1115487  -0.019   0.315  22.427 -0.0809  0.8530  0.0033
  142SAPE  H11A15488   0.048   0.380  22.368  1.1617 -1.3348 -1.1090
  142SAPE  H11B15489  -0.097   0.378  22.476  0.2601  1.1692  0.1439
  142SAPE     P15490  -0.206   0.157  22.360 -0.1319  0.0294 -0.1764
  142SAPE   O1315491  -0.284   0.282  22.330 -0.1613  0.8196  0.6152
  142SAPE   O1415492  -0.228   0.041  22.275  0.3583  0.2589  0.0125
  142SAPE   O1215493  -0.052   0.198  22.353 -0.0348  0.4085  0.3246
  142SAPE   O1115494  -0.207   0.114  22.512  0.1580  0.0086  0.2759
  142SAPE    C115495  -0.296   0.163  22.616 -0.3022 -0.0256 -0.2568
  142SAPE    HA15496  -0.242   0.163  22.713  0.6561 -1.1087 -0.7698
  142SAPE    HB15497  -0.319   0.271  22.606  0.2822  0.0720 -0.5874
  142SAPE    C215498  -0.421   0.067  22.646  0.3121 -0.2152 -0.1795
  142SAPE    HS15499  -0.384  -0.037  22.641  0.6983 -0.0753 -0.2786
  142SAPE   O2115500  -0.534   0.106  22.560 -0.3110  0.1510 -0.5083
  142SAPE   C2115501  -0.595  -0.001  22.520 -0.6645 -0.2981  0.3031
  142SAPE   O2215502  -0.546  -0.114  22.522  0.3968  0.5361 -0.8036
  142SAPE   C2215503  -0.731   0.028  22.470 -0.0048  1.0672  1.0773
  142SAPE   H2R15504  -0.786   0.088  22.545 -1.2295  1.0553  0.2239
  142SAPE   H2S15505  -0.729   0.088  22.377  3.4912 -1.1436 -0.4902
  142SAPE    C315506  -0.472   0.071  22.801 -0.4485 -0.3806  0.6741
  142SAPE    HX15507  -0.509   0.176  22.809 -0.1899 -0.3206  1.1290
  142SAPE    HY15508  -0.380   0.056  22.863  1.2040 -1.4177 -1.8588
  142SAPE   O3115509  -0.574  -0.028  22.832  1.2245  0.0229  0.1431
  142SAPE   C3115510  -0.525  -0.151  22.851  0.1602  0.5912 -0.4163
  142SAPE   O3215511  -0.406  -0.181  22.849  0.5410 -0.3212 -0.5845
  142SAPE   C3215512  -0.641  -0.257  22.867 -0.0078 -0.3932  0.6339
  142SAPE   H2X15513  -0.596  -0.342  22.923  0.4178  0.0737  1.0118
  142SAPE   H2Y15514  -0.667  -0.275  22.761 -1.6301 -2.5654  1.3237
  142SAPE   C2315515  -0.805  -0.106  22.441 -0.1734  0.2425 -0.3061
  142SAPE   H3R15516  -0.785  -0.174  22.527 -0.5814  0.0566 -0.3503
  142SAPE   H3S15517  -0.771  -0.171  22.358  0.5573 -0.4329  0.5042
  142SAPE   C2415518  -0.961  -0.086  22.441 -0.6490 -0.2926 -0.2595
  142SAPE   H4R15519  -0.991  -0.015  22.361  0.9179  2.0617  1.1183
  142SAPE   H4S15520  -0.985  -0.039  22.539 -0.3855 -1.5345  0.4319
  142SAPE   C2515521  -1.027  -0.216  22.405  0.2835 -0.9065  0.8590
  142SAPE   H5R15522  -0.964  -0.305  22.417  1.8575 -0.0343 -0.4821
  142SAPE   C2615523  -1.154  -0.225  22.364  0.0346  0.4825 -0.3069
  142SAPE   H6R15524  -1.187  -0.320  22.319 -0.8383  1.1422 -1.0566
  142SAPE   C2715525  -1.256  -0.114  22.332  0.0188 -0.0299 -0.2915
  142SAPE   H7R15526  -1.269  -0.110  22.222  0.3382  0.6262 -0.3056
  142SAPE   H7S15527  -1.213  -0.013  22.347 -3.3335  1.4524  0.4780
  142SAPE   C2815528  -1.382  -0.121  22.416 -0.1282  0.1620  0.6872
  142SAPE   H8R15529  -1.369  -0.081  22.518  2.6068  0.7219  0.2156
  142SAPE   C2915530  -1.492  -0.199  22.386 -0.1439 -0.1541 -0.2391
  142SAPE   H9R15531  -1.582  -0.192  22.449  0.3040 -0.1228  0.4049
  142SAPE  C21015532  -1.500  -0.286  22.263  0.1236 -0.4407 -0.4019
  142SAPE  H10R15533  -1.488  -0.392  22.291  0.0523 -0.4693 -0.4804
  142SAPE  H10S15534  -1.425  -0.262  22.184  1.4383  0.6047  1.0915
  142SAPE  C21115535  -1.633  -0.258  22.196 -0.0624 -0.2036  0.2197
  142SAPE  H11R15536  -1.633  -0.184  22.115 -3.1314  0.6561  0.8962
  142SAPE  C21215537  -1.745  -0.339  22.219 -0.5612 -0.0316  0.0915
  142SAPE  H12R15538  -1.839  -0.315  22.168 -1.8373  2.0717  3.0937
  142SAPE  C21315539  -1.739  -0.467  22.302  0.0373 -0.5258 -0.3450
  142SAPE  H13R15540  -1.645  -0.526  22.294 -0.5303 -1.3971 -0.8841
  142SAPE  H13S15541  -1.808  -0.535  22.246 -0.9202  0.0475  0.1034
  142SAPE  C21415542  -1.767  -0.451  22.449 -0.2476 -0.2367 -0.3304
  142SAPE  H14R15543  -1.671  -0.429  22.499 -0.9064 -0.4909  1.1032
  142SAPE  C21515544  -1.879  -0.475  22.511 -0.0646 -0.1550  1.1606
  142SAPE  H15R15545  -1.886  -0.456  22.619 -0.3651 -0.3600  1.1774
  142SAPE  C21615546  -2.008  -0.515  22.438 -0.2148 -0.6856  0.4165
  142SAPE  H16R15547  -2.010  -0.474  22.335  2.9256 -0.0514  0.5132
  142SAPE  H16S15548  -2.093  -0.465  22.488 -1.6792 -1.1040 -1.5634
  142SAPE  C21715549  -2.033  -0.668  22.431  0.0959 -0.2442 -0.0084
  142SAPE  H17R15550  -2.039  -0.703  22.536  0.3678 -2.1556 -0.5859
  142SAPE  H17S15551  -1.940  -0.715  22.393 -0.2015 -1.6552  0.9137
  142SAPE  C21815552  -2.158  -0.714  22.344  0.3511  0.1194  0.3470
  142SAPE  H18R15553  -2.160  -0.825  22.341  0.8387  0.1189 -2.1197
  142SAPE  H18S15554  -2.127  -0.681  22.243 -0.0507 -1.3616 -0.2893
  142SAPE  C21915555  -2.284  -0.649  22.386  0.4150 -0.8758  0.1127
  142SAPE  H19R15556  -2.280  -0.538  22.392  1.3926 -0.7650 -1.7577
  142SAPE  H19S15557  -2.305  -0.671  22.493  0.7044  1.3937  0.6782
  142SAPE  C22015558  -2.400  -0.694  22.292 -0.3413 -0.3379  0.6700
  142SAPE  H20R15559  -2.412  -0.803  22.311 -2.9175 -0.2399 -0.0040
  142SAPE  H20S15560  -2.371  -0.682  22.185 -1.3888 -2.1879  0.1387
  142SAPE  H20T15561  -2.495  -0.640  22.314  0.2007  1.6440 -1.4283
  142SAPE   C3315562  -0.767  -0.200  22.944  0.2776 -0.4492  0.9340
  142SAPE   H3X15563  -0.782  -0.090  22.941 -0.6157 -0.5241 -2.6791
  142SAPE   H3Y15564  -0.757  -0.238  23.048  0.4674  2.0159  1.8808
  142SAPE   C3415565  -0.895  -0.264  22.888 -0.2904  0.1176 -0.1943
  142SAPE   H4X15566  -0.886  -0.370  22.922  2.0118  0.2530 -0.2674
  142SAPE   H4Y15567  -0.890  -0.261  22.777 -1.7624  0.5138 -0.2780
  142SAPE   C3515568  -1.029  -0.206  22.937 -0.4604 -0.0163 -0.0418
  142SAPE   H5X15569  -1.021  -0.096  22.924 -2.1623  0.1284 -0.0004
  142SAPE   H5Y15570  -1.030  -0.218  23.047  0.4573  0.7127  0.0636
  142SAPE   C3615571  -1.156  -0.251  22.866  0.4248 -0.3027  0.2126
  142SAPE   H6X15572  -1.168  -0.361  22.880  2.9976 -0.8228 -1.1087
  142SAPE   H6Y15573  -1.151  -0.240  22.755 -4.0398 -1.9043 -0.3498
  142SAPE   C3715574  -1.263  -0.167  22.920  0.1009  0.3747  0.3134
  142SAPE   H7X15575  -1.226  -0.062  22.912 -0.3318  0.5402  0.4564
  142SAPE   H7Y15576  -1.262  -0.190  23.029  2.1864 -0.5379  0.1474
  142SAPE   C3815577  -1.401  -0.184  22.854  0.0898 -0.0129 -0.5013
  142SAPE   H8X15578  -1.450  -0.281  22.878 -0.6811 -0.6065 -3.8774
  142SAPE   H8Y15579  -1.393  -0.186  22.743 -0.4594  1.0047 -0.5609
  142SAPE   C3915580  -1.500  -0.080  22.899 -0.6704 -0.5674 -0.5385
  142SAPE   H9X15581  -1.481   0.018  22.851 -0.9331  0.1792  0.8540
  142SAPE   H9Y15582  -1.490  -0.071  23.009  1.6528 -1.4104 -0.6165
  142SAPE  C31015583  -1.641  -0.121  22.874 -0.6373 -0.2221 -0.1566
  142SAPE  H10X15584  -1.649  -0.213  22.936  0.1746 -0.2641 -0.1023
  142SAPE  H10Y15585  -1.643  -0.160  22.770 -1.4953 -1.1671  0.1947
  142SAPE  C31115586  -1.750  -0.013  22.909  0.4091 -0.0775  0.0630
  142SAPE  H11X15587  -1.847  -0.064  22.889  0.4796 -0.4414  0.6239
  142SAPE  H11Y15588  -1.742   0.061  22.827  2.6147 -0.1351  0.1580
  142SAPE  C31215589  -1.746   0.057  23.045  0.0756  0.9819  0.1043
  142SAPE  H12X15590  -1.833   0.127  23.054 -1.6854 -1.3156  2.5353
  142SAPE  H12Y15591  -1.654   0.116  23.066  0.7278 -0.0615  0.2296
  142SAPE  C31315592  -1.772  -0.040  23.167  0.5464 -0.4344  0.0813
  142SAPE  H13X15593  -1.695  -0.120  23.171 -0.1969 -1.2599 -1.3690
  142SAPE  H13Y15594  -1.867  -0.096  23.155  0.5493 -0.9659  2.0680
  142SAPE  C31415595  -1.782   0.030  23.299  0.0813 -0.2860  0.0974
  142SAPE  H14X15596  -1.811  -0.043  23.378  1.2590 -2.1146 -1.0880
  142SAPE  H14Y15597  -1.860   0.108  23.285  1.0958  0.9497  1.0329
  142SAPE  C31515598  -1.654   0.098  23.345  0.2796 -0.4859 -0.0420
  142SAPE  H15X15599  -1.652   0.186  23.276 -1.8057 -1.4509 -1.4364
  142SAPE  H15Y15600  -1.560   0.039  23.344  0.0294 -0.9032  0.5557
  142SAPE  C31615601  -1.679   0.158  23.485 -0.6198 -0.4079  0.5559
  142SAPE  H16X15602  -1.590   0.196  23.540 -0.5722  0.2875  0.0103
  142SAPE  H16Y15603  -1.704   0.070  23.548  3.0519 -0.4062  2.2840
  142SAPE  C31715604  -1.791   0.262  23.495  0.3036  0.3206  0.1977
  142SAPE  H17X15605  -1.876   0.198  23.462 -0.8780  0.6982  2.3124
  142SAPE  H17Y15606  -1.786   0.352  23.430 -1.9512  0.7336  0.5188
  142SAPE  C31815607  -1.834   0.317  23.634 -0.3449  0.5046  0.7177
  142SAPE  H18X15608  -1.938   0.357  23.628 -0.5189  0.1915  1.5721
  142SAPE  H18Y15609  -1.769   0.398  23.674  0.0026  0.7608 -0.3294
  142SAPE  H18Z15610  -1.831   0.235  23.709 -0.3747 -1.3656 -1.2287
  143SAPE     N15611   3.739   4.238  24.673  0.9129 -0.1749 -0.1035
  143SAPE   HN115612   3.712   4.137  24.676 -3.3484  0.7835 -0.2092
  143SAPE   HN215613   3.686   4.274  24.591 -3.2623 -0.4080  2.2034
  143SAPE   HN315614   3.841   4.258  24.668  0.7780  1.2965  1.8721
  143SAPE   C1215615   3.677   4.308  24.789  0.6857 -0.9831 -0.5088
  143SAPE  H12A15616   3.679   4.237  24.875 -2.6046  1.3149  1.7030
  143SAPE  H12B15617   3.574   4.339  24.761  0.6881 -0.7061 -0.2037
  143SAPE   C1115618   3.761   4.437  24.825  0.6323  0.0248 -0.3301
  143SAPE  H11A15619   3.862   4.397  24.850  1.4918  0.1690 -3.2262
  143SAPE  H11B15620   3.718   4.499  24.907  2.5581  3.6133 -1.8246
  143SAPE     P15621   3.863   4.652  24.709 -0.3012 -0.2890 -0.1254
  143SAPE   O1315622   3.947   4.634  24.827 -0.1232 -0.0116 -0.1607
  143SAPE   O1415623   3.931   4.680  24.578 -0.6092  0.3681  0.4956
  143SAPE   O1215624   3.776   4.524  24.708  0.4463  0.1107 -0.2166
  143SAPE   O1115625   3.754   4.755  24.744  0.0484  0.2832 -0.2941
  143SAPE    C115626   3.669   4.807  24.647  0.4195 -0.0904 -0.3123
  143SAPE    HA15627   3.631   4.903  24.690 -0.0933 -0.6315  0.4714
  143SAPE    HB15628   3.725   4.832  24.555 -0.7678  1.0181 -0.7695
  143SAPE    C215629   3.544   4.715  24.619  0.7530 -0.4984  0.1899
  143SAPE    HS15630   3.573   4.625  24.561 -0.0978 -0.5583 -0.1618
  143SAPE   O2115631   3.443   4.792  24.553 -0.5551  0.1481 -0.0671
  143SAPE   C2115632   3.355   4.725  24.468 -0.4593  0.5710 -0.2112
  143SAPE   O2215633   3.378   4.617  24.421  0.0809 -0.2944 -0.5953
  143SAPE   C2215634   3.229   4.808  24.449  0.0913  0.8793  0.1941
  143SAPE   H2R15635   3.230   4.854  24.348 -2.5811  0.3783 -0.1249
  143SAPE   H2S15636   3.147   4.733  24.449  0.4802  0.4122  1.7128
  143SAPE    C315637   3.484   4.664  24.750 -1.3203 -0.5505 -0.3175
  143SAPE    HX15638   3.448   4.761  24.791  2.7522  1.6586 -1.2955
  143SAPE    HY15639   3.567   4.612  24.803  0.1691  0.1173 -1.8907
  143SAPE   O3115640   3.380   4.573  24.725  0.0749 -0.3795  0.2761
  143SAPE   C3115641   3.346   4.502  24.824  0.4093 -0.6138 -0.5800
  143SAPE   O3215642   3.400   4.501  24.936 -0.2691 -0.3846  0.1867
  143SAPE   C3215643   3.232   4.411  24.793  0.6624  0.4702 -0.2780
  143SAPE   H2X15644   3.189   4.368  24.885  2.5212  0.7879  0.7828
  143SAPE   H2Y15645   3.260   4.318  24.739 -2.9659  0.4878 -2.5268
  143SAPE   C2315646   3.196   4.917  24.555  0.5290 -0.3947 -0.0133
  143SAPE   H3R15647   3.291   4.975  24.558 -0.3059  0.9814  0.9143
  143SAPE   H3S15648   3.178   4.869  24.653 -0.2344 -2.5141 -1.1187
  143SAPE   C2415649   3.081   5.005  24.523  0.4136  0.0826  0.0876
  143SAPE   H4R15650   3.053   5.065  24.612 -1.2903 -0.8186  0.2125
  143SAPE   H4S15651   2.992   4.940  24.506  1.0894 -0.4412 -1.6618
  143SAPE   C2515652   3.100   5.093  24.401 -0.0725  0.6706 -0.3788
  143SAPE   H5R15653   3.187   5.159  24.413 -1.4445  2.3067  0.9560
  143SAPE   C2615654   3.035   5.085  24.281  0.7364 -0.1013  0.2615
  143SAPE   H6R15655   3.060   5.156  24.201  0.8241 -0.9676 -0.5022
  143SAPE   C2715656   2.915   4.998  24.237  0.4305 -0.5257  0.0389
  143SAPE   H7R15657   2.872   4.953  24.329 -0.0878 -1.7159 -0.7596
  143SAPE   H7S15658   2.958   4.912  24.182 -1.6037 -1.9634  0.5715
  143SAPE   C2815659   2.806   5.072  24.158  0.3726 -0.0688 -0.4838
  143SAPE   H8R15660   2.824   5.180  24.146 -2.4644  0.7485  1.6079
  143SAPE   C2915661   2.697   5.019  24.112 -0.2291  0.1715 -0.6924
  143SAPE   H9R15662   2.618   5.083  24.070 -0.8469  0.1390  0.3855
  143SAPE  C21015663   2.655   4.870  24.119 -0.1686  1.2846  0.0012
  143SAPE  H10R15664   2.581   4.865  24.202  0.8744 -0.1229  0.8847
  143SAPE  H10S15665   2.736   4.806  24.160 -0.8239 -0.6171 -1.4907
  143SAPE  C21115666   2.585   4.789  24.009  0.2891 -0.4861  0.4790
  143SAPE  H11R15667   2.640   4.705  23.966  0.0578 -0.4186  0.0426
  143SAPE  C21215668   2.461   4.816  23.964 -0.3647  0.0841  0.6108
  143SAPE  H12R15669   2.425   4.753  23.881 -3.1315  0.4610  1.4458
  143SAPE  C21315670   2.357   4.901  24.021 -0.1962 -0.7353  0.1135
  143SAPE  H13R15671   2.348   4.992  23.958  3.4922  0.2747  0.7974
  143SAPE  H13S15672   2.381   4.938  24.123 -0.2913 -0.9383  0.2100
  143SAPE  C21415673   2.214   4.840  24.038 -0.5404  0.3140  0.2547
  143SAPE  H14R15674   2.196   4.822  24.145 -0.4254 -0.4501  0.1528
  143SAPE  C21515675   2.128   4.802  23.936 -0.0860 -0.0872 -0.1155
  143SAPE  H15R15676   2.027   4.766  23.964  0.0578  1.1326  2.2289
  143SAPE  C21615677   2.161   4.823  23.789  0.1594  0.1790 -0.5283
  143SAPE  H16R15678   2.199   4.736  23.732  1.1715  0.7540 -0.7715
  143SAPE  H16S15679   2.235   4.904  23.770  0.7936 -0.2882 -0.0880
  143SAPE  C21715680   2.037   4.865  23.705 -0.2342  0.7245 -0.0075
  143SAPE  H17R15681   2.007   4.953  23.766  1.7788  0.5336  1.3859
  143SAPE  H17S15682   1.965   4.782  23.719  1.7134 -0.8069  1.5533
  143SAPE  C21815683   2.067   4.898  23.557 -0.4009  1.0398  0.7269
  143SAPE  H18R15684   2.140   4.981  23.566 -0.3471  1.0981 -0.1394
  143SAPE  H18S15685   1.976   4.940  23.508  0.2217  0.2636 -1.1646
  143SAPE  C21915686   2.113   4.779  23.464 -0.3090  0.0994 -0.3844
  143SAPE  H19R15687   2.048   4.700  23.506 -1.0060  2.3057  3.1642
  143SAPE  H19S15688   2.222   4.762  23.478 -0.7608 -1.5219  1.8329
  143SAPE  C22015689   2.084   4.799  23.319 -0.6287  0.1696 -0.1884
  143SAPE  H20R15690   2.103   4.908  23.311 -0.4680  0.1827  0.3639
  143SAPE  H20S15691   1.978   4.785  23.289 -1.1968  0.4458  1.6071
  143SAPE  H20T15692   2.156   4.740  23.257 -1.7774 -0.8838 -0.5609
  143SAPE   C3315693   3.111   4.458  24.710  0.0810  0.3004  0.2858
  143SAPE   H3X15694   3.142   4.492  24.609  0.3086 -1.4021 -0.2629
  143SAPE   H3Y15695   3.091   4.552  24.765  0.4172  0.9610 -0.6913
  143SAPE   C3415696   3.003   4.360  24.694  0.3000  0.3337  0.3199
  143SAPE   H4X15697   2.987   4.310  24.791  1.4388  1.4844  1.1271
  143SAPE   H4Y15698   3.028   4.286  24.615 -0.4783 -1.1064  1.3697
  143SAPE   C3515699   2.860   4.412  24.644 -0.1287  0.5737  0.0612
  143SAPE   H5X15700   2.881   4.484  24.562 -1.1973  3.7131  2.3581
  143SAPE   H5Y15701   2.812   4.465  24.729  0.9051 -0.3353  1.2612
  143SAPE   C3615702   2.763   4.302  24.593  0.5554  0.3892  0.0296
  143SAPE   H6X15703   2.821   4.235  24.526 -1.3862 -1.3050 -0.0634
  143SAPE   H6Y15704   2.682   4.348  24.533  0.7782 -2.0216 -2.3311
  143SAPE   C3715705   2.701   4.209  24.698  0.1860 -0.1669  0.1947
  143SAPE   H7X15706   2.787   4.159  24.748  0.8381  0.5055 -0.2305
  143SAPE   H7Y15707   2.641   4.134  24.643 -1.4144  2.6001 -2.0933
  143SAPE   C3815708   2.609   4.280  24.799  0.3032  0.1099  0.2735
  143SAPE   H8X15709   2.653   4.350  24.874  1.2902 -1.0089  0.7667
  143SAPE   H8Y15710   2.567   4.197  24.860 -1.7313  1.1526  0.3831
  143SAPE   C3915711   2.486   4.344  24.738 -0.4059 -0.7061 -0.7139
  143SAPE   H9X15712   2.438   4.276  24.664 -0.9183 -2.2941  1.0075
  143SAPE   H9Y15713   2.523   4.432  24.682 -0.9359 -1.8401 -2.9727
  143SAPE  C31015714   2.390   4.389  24.857 -0.1167 -1.2412 -0.5028
  143SAPE  H10X15715   2.456   4.429  24.937 -0.5169  0.1582 -0.8438
  143SAPE  H10Y15716   2.341   4.300  24.902 -1.3441 -1.3523 -1.9780
  143SAPE  C31115717   2.284   4.490  24.815 -0.1840 -0.3539  0.4024
  143SAPE  H11X15718   2.233   4.453  24.723  1.5220 -0.5541 -0.5160
  143SAPE  H11Y15719   2.319   4.590  24.782 -0.1814 -0.9477 -1.5695
  143SAPE  C31215720   2.165   4.507  24.909 -0.4180 -0.1319 -1.0089
  143SAPE  H12X15721   2.162   4.596  24.976 -1.3006 -0.9041  0.0243
  143SAPE  H12Y15722   2.161   4.416  24.973 -0.7233  0.2844 -0.4284
  143SAPE  C31315723   2.029   4.505  24.838 -0.0937 -0.6965  0.1802
  143SAPE  H13X15724   2.032   4.417  24.770  2.8071 -1.4205  1.0591
  143SAPE  H13Y15725   2.025   4.591  24.768  0.1696  0.8360  1.9524
  143SAPE  C31415726   1.911   4.497  24.942 -0.4869  0.1425  0.6607
  143SAPE  H14X15727   1.946   4.507  25.047 -1.9504  0.7963  1.1015
  143SAPE  H14Y15728   1.862   4.398  24.932 -1.4614  0.4413  2.2965
  143SAPE  C31515729   1.806   4.615  24.933  0.1488 -0.0065 -0.2279
  143SAPE  H15X15730   1.764   4.619  24.830 -1.3426 -2.5384  0.1998
  143SAPE  H15Y15731   1.854   4.714  24.947 -2.0015  0.9404  0.7670
  143SAPE  C31615732   1.681   4.618  25.024 -0.0388 -0.1873  0.0428
  143SAPE  H16X15733   1.627   4.715  25.012 -0.3426 -0.5058 -1.4227
  143SAPE  H16Y15734   1.711   4.607  25.130 -1.0910 -3.0117  0.1331
  143SAPE  C31715735   1.569   4.515  24.992  0.1559 -0.1447  0.1907
  143SAPE  H17X15736   1.484   4.537  25.060 -0.5040  0.3795 -0.7848
  143SAPE  H17Y15737   1.596   4.407  24.999 -1.4001 -0.4708  1.7696
  143SAPE  C31815738   1.513   4.520  24.847  0.5712 -0.7509  0.4498
  143SAPE  H18X15739   1.435   4.443  24.830 -1.4512  1.9078 -4.3341
  143SAPE  H18Y15740   1.588   4.499  24.768  1.0908 -0.5690  0.8910
  143SAPE  H18Z15741   1.466   4.616  24.816 -0.2266 -1.3799 -0.3466
  144SAPE     N15742   0.080   2.714  23.173  0.0496 -0.3320 -0.7533
  144SAPE   HN115743   0.068   2.742  23.273 -0.2150 -2.4376 -0.1269
  144SAPE   HN215744   0.099   2.799  23.117  1.9521  1.1762  1.9452
  144SAPE   HN315745  -0.012   2.679  23.140 -0.1487 -1.1969  0.6168
  144SAPE   C1215746   0.184   2.604  23.179  0.1244  0.3041 -0.0855
  144SAPE  H12A15747   0.245   2.612  23.087  1.0572  0.4270  0.5313
  144SAPE  H12B15748   0.117   2.515  23.173  0.7395 -0.1882  0.2834
  144SAPE   C1115749   0.252   2.624  23.309  0.0229 -0.2503 -0.6920
  144SAPE  H11A15750   0.298   2.724  23.323 -2.0268  0.3682  2.6598
  144SAPE  H11B15751   0.328   2.543  23.315 -1.9187 -2.0859  0.1504
  144SAPE     P15752   0.140   2.475  23.508  0.1397 -0.2725  0.1753
  144SAPE   O1315753   0.145   2.529  23.647 -0.0973 -0.2428  0.2726
  144SAPE   O1415754   0.030   2.390  23.460 -0.2864  0.8436  0.5470
  144SAPE   O1215755   0.150   2.601  23.408 -1.5274  0.3824 -0.2108
  144SAPE   O1115756   0.274   2.391  23.484  0.0257  0.6247 -0.7712
  144SAPE    C115757   0.356   2.348  23.597 -0.2730  0.6440 -0.0971
  144SAPE    HA15758   0.295   2.311  23.682  0.3746  1.6665  0.8575
  144SAPE    HB15759   0.414   2.262  23.557  0.9636  1.1043  0.6335
  144SAPE    C215760   0.464   2.454  23.649 -0.0673 -0.3114 -0.0745
  144SAPE    HS15761   0.402   2.537  23.688 -0.2469 -1.0331  1.2636
  144SAPE   O2115762   0.544   2.491  23.532 -0.7101 -0.0105 -0.1239
  144SAPE   C2115763   0.599   2.605  23.549 -0.2963  0.4297 -0.1385
  144SAPE   O2215764   0.580   2.681  23.645 -0.4984  0.4058 -0.0096
  144SAPE   C2215765   0.693   2.643  23.428 -0.5363  0.0134 -0.4716
  144SAPE   H2R15766   0.747   2.552  23.394 -0.3991 -0.3110  0.5783
  144SAPE   H2S15767   0.633   2.682  23.343  0.7912 -0.2310 -1.5717
  144SAPE    C315768   0.548   2.385  23.757 -0.7680  0.3298  0.0475
  144SAPE    HX15769   0.581   2.296  23.700  0.7694  2.6279 -2.9664
  144SAPE    HY15770   0.496   2.362  23.852  1.8784  0.4183  1.6169
  144SAPE   O3115771   0.664   2.465  23.797  0.5188 -0.2082  0.0373
  144SAPE   C3115772   0.643   2.556  23.889 -0.1474 -0.4839 -0.3157
  144SAPE   O3215773   0.549   2.557  23.972 -0.2406  0.0593 -0.2043
  144SAPE   C3215774   0.751   2.660  23.881 -0.3867  0.6977  0.0867
  144SAPE   H2X15775   0.699   2.756  23.859 -0.0517  0.3227 -2.7291
  144SAPE   H2Y15776   0.816   2.645  23.792 -0.6994  0.7764 -0.1603
  144SAPE   C2315777   0.795   2.753  23.486 -0.0163  0.5044 -0.1459
  144SAPE   H3R15778   0.811   2.733  23.594 -3.5709 -1.5520  0.1757
  144SAPE   H3S15779   0.755   2.855  23.466  0.0775  0.1000 -2.6449
  144SAPE   C2415780   0.920   2.747  23.402 -0.2744 -0.1871 -0.2430
  144SAPE   H4R15781   0.989   2.664  23.429 -1.6717 -0.7433  1.8248
  144SAPE   H4S15782   0.976   2.837  23.433  1.9219 -1.3650 -0.5668
  144SAPE   C2515783   0.903   2.754  23.250 -0.5173 -0.3427 -0.0814
  144SAPE   H5R15784   0.806   2.799  23.221  0.2992  1.0293 -0.7752
  144SAPE   C2615785   0.990   2.700  23.160  1.3673 -0.0739 -0.0529
  144SAPE   H6R15786   0.976   2.717  23.053  4.0114 -0.1318 -0.4771
  144SAPE   C2715787   1.126   2.645  23.185  0.3337  0.6240 -0.6567
  144SAPE   H7R15788   1.132   2.548  23.131 -1.1224  0.2609 -0.2111
  144SAPE   H7S15789   1.135   2.620  23.292 -0.8312 -0.0349 -0.6949
  144SAPE   C2815790   1.240   2.733  23.140 -0.3779  0.2900 -0.1613
  144SAPE   H8R15791   1.210   2.839  23.134  0.0867  0.3922 -0.7725
  144SAPE   C2915792   1.364   2.682  23.102  0.6965 -0.4643  0.3368
  144SAPE   H9R15793   1.431   2.760  23.064  1.9600  0.4702  4.1004
  144SAPE  C21015794   1.402   2.537  23.077 -0.0709 -0.1775 -0.4464
  144SAPE  H10R15795   1.349   2.509  22.983  0.8620  1.9371 -1.6894
  144SAPE  H10S15796   1.361   2.466  23.152 -0.2218  2.2465  1.9103
  144SAPE  C21115797   1.542   2.509  23.062 -0.1638  0.2260 -0.7604
  144SAPE  H11R15798   1.578   2.461  23.154  1.9540  0.8345 -1.2304
  144SAPE  C21215799   1.616   2.517  22.953 -0.4153  0.5434 -0.2101
  144SAPE  H12R15800   1.721   2.483  22.959 -0.9729 -1.3790 -0.4983
  144SAPE  C21315801   1.577   2.566  22.814 -0.1282  0.2432 -0.4119
  144SAPE  H13R15802   1.574   2.675  22.837  0.6361 -0.3822  3.2488
  144SAPE  H13S15803   1.481   2.523  22.780  0.8882 -0.8449 -2.0263
  144SAPE  C21415804   1.685   2.540  22.725 -0.4271  0.3795  0.8100
  144SAPE  H14R15805   1.700   2.436  22.693  0.4871  0.8536 -0.3745
  144SAPE  C21515806   1.773   2.628  22.681  0.1676 -0.0549  0.2447
  144SAPE  H15R15807   1.848   2.596  22.608  1.9649  3.6747  0.2289
  144SAPE  C21615808   1.791   2.767  22.731  0.0456  0.8059  0.0291
  144SAPE  H16R15809   1.900   2.787  22.737  0.0344  1.2178 -0.9218
  144SAPE  H16S15810   1.742   2.780  22.830  0.4388  2.4790  0.0418
  144SAPE  C21715811   1.732   2.872  22.639  0.1348 -0.4628  0.4075
  144SAPE  H17R15812   1.629   2.847  22.605 -0.5626  0.6162  1.6404
  144SAPE  H17S15813   1.792   2.875  22.546  1.1763 -1.7239  1.0067
  144SAPE  C21815814   1.731   3.009  22.703  0.3538  0.1218  0.2132
  144SAPE  H18R15815   1.831   3.032  22.744  0.9219 -0.6899 -0.6819
  144SAPE  H18S15816   1.653   3.005  22.783  1.1775 -2.1362  0.9696
  144SAPE  C21915817   1.701   3.123  22.603  0.1926  0.0051  0.2662
  144SAPE  H19R15818   1.682   3.213  22.665  0.2066 -0.7841  1.4380
  144SAPE  H19S15819   1.602   3.114  22.555 -0.8064  1.5035  1.9302
  144SAPE  C22015820   1.811   3.154  22.497 -0.2953 -0.2666  0.1090
  144SAPE  H20R15821   1.818   3.081  22.413 -2.0173  0.2961 -0.5771
  144SAPE  H20S15822   1.913   3.168  22.539 -0.0364  1.4386 -0.9921
  144SAPE  H20T15823   1.783   3.246  22.441  0.8649 -0.7642 -1.3540
  144SAPE   C3315824   0.829   2.671  24.011  0.0933 -0.2767 -1.0094
  144SAPE   H3X15825   0.766   2.683  24.102  1.4527 -0.2753 -0.0346
  144SAPE   H3Y15826   0.883   2.767  23.999 -0.1977 -0.3378 -3.0835
  144SAPE   C3415827   0.914   2.543  24.039  0.5423 -0.7900 -0.2801
  144SAPE   H4X15828   0.851   2.452  24.046 -1.5549  0.7084  1.2326
  144SAPE   H4Y15829   0.966   2.556  24.136  0.9671  2.0927 -0.7917
  144SAPE   C3515830   1.027   2.515  23.931  0.8365  0.1552  0.1181
  144SAPE   H5X15831   0.999   2.517  23.823  3.3003  2.2870 -0.5657
  144SAPE   H5Y15832   1.062   2.412  23.957  0.7456  0.3135  0.8999
  144SAPE   C3615833   1.143   2.607  23.939 -0.7255 -0.2324  0.2527
  144SAPE   H6X15834   1.170   2.619  24.046 -2.1975  4.5831  0.3342
  144SAPE   H6Y15835   1.109   2.709  23.909  1.2341  0.0260 -1.2852
  144SAPE   C3715836   1.261   2.578  23.845 -0.2285 -0.1220  0.1462
  144SAPE   H7X15837   1.278   2.472  23.872 -0.4092  0.0270  0.8720
  144SAPE   H7Y15838   1.349   2.632  23.888  0.7598 -2.0776  0.7016
  144SAPE   C3815839   1.234   2.611  23.699 -0.3842 -0.3060 -0.1274
  144SAPE   H8X15840   1.263   2.716  23.679  0.4411 -0.5924 -0.4489
  144SAPE   H8Y15841   1.129   2.589  23.670 -0.4404  1.2351 -1.2006
  144SAPE   C3915842   1.306   2.516  23.597  0.5977  0.3177  0.7512
  144SAPE   H9X15843   1.260   2.519  23.496  0.1948  3.2289  0.9388
  144SAPE   H9Y15844   1.294   2.408  23.620  2.5217 -0.3520 -1.0319
  144SAPE  C31015845   1.456   2.543  23.586 -0.1141  0.3135 -0.5902
  144SAPE  H10X15846   1.507   2.533  23.684 -1.4748 -1.2517 -0.0046
  144SAPE  H10Y15847   1.453   2.652  23.563 -0.4994  0.1226 -1.4664
  144SAPE  C31115848   1.537   2.480  23.471 -0.3354  0.8188  0.0101
  144SAPE  H11X15849   1.630   2.534  23.441  0.1311 -0.3841 -0.7793
  144SAPE  H11Y15850   1.475   2.480  23.380 -0.3857  2.1689  0.0188
  144SAPE  C31215851   1.582   2.335  23.502 -0.3763  0.5553  0.1156
  144SAPE  H12X15852   1.503   2.267  23.540  0.3030  0.5039  1.4975
  144SAPE  H12Y15853   1.661   2.339  23.580 -1.0241  1.2963  0.7680
  144SAPE  C31315854   1.635   2.256  23.384  0.1341 -0.1583  0.2635
  144SAPE  H13X15855   1.716   2.304  23.326  3.3535 -1.7910  3.0653
  144SAPE  H13Y15856   1.542   2.241  23.324 -1.2532  0.2310  2.2153
  144SAPE  C31415857   1.684   2.118  23.429 -0.0781 -0.6421  0.4484
  144SAPE  H14X15858   1.716   2.054  23.344  1.6254 -0.4662  0.9289
  144SAPE  H14Y15859   1.607   2.078  23.498 -2.2764 -0.6430 -1.8397
  144SAPE  C31515860   1.813   2.126  23.515 -0.3748 -0.0704  0.0097
  144SAPE  H15X15861   1.791   2.166  23.617  1.2235 -0.1735  0.4241
  144SAPE  H15Y15862   1.886   2.196  23.469 -0.8556  1.6528  1.7032
  144SAPE  C31615863   1.884   1.986  23.537 -0.0238 -0.3930  0.3366
  144SAPE  H16X15864   1.988   1.998  23.573  0.1074 -0.8187  0.1104
  144SAPE  H16Y15865   1.899   1.930  23.442  1.4173  0.3276  0.1271
  144SAPE  C31715866   1.804   1.895  23.630 -0.3697  0.2336  0.1128
  144SAPE  H17X15867   1.697   1.889  23.598 -1.1134 -2.7313  2.6403
  144SAPE  H17Y15868   1.807   1.948  23.727 -0.4344 -1.7782  1.2583
  144SAPE  C31815869   1.862   1.756  23.654  0.8456 -0.2526  0.4836
  144SAPE  H18X15870   1.947   1.762  23.725  0.7540  2.2922  0.4637
  144SAPE  H18Y15871   1.906   1.715  23.561  1.6803 -1.5281  1.4101
  144SAPE  H18Z15872   1.782   1.682  23.678 -2.6787  1.5810 -4.0210
  145SAPE     N15873   4.119   0.503  22.197 -0.3289  0.3354  0.3974
  145SAPE   HN115874   4.089   0.421  22.253 -1.9344 -0.6140 -1.7219
  145SAPE   HN215875   4.150   0.465  22.106  1.0245 -2.0673  1.7743
  145SAPE   HN315876   4.211   0.540  22.228  0.2650  1.2879 -2.2203
  145SAPE   C1215877   4.009   0.605  22.170 -0.6934 -0.0877  0.5512
  145SAPE  H12A15878   3.919   0.541  22.153 -0.1340 -0.8919  0.5276
  145SAPE  H12B15879   4.042   0.665  22.083  2.7359 -0.7597  1.2438
  145SAPE   C1115880   3.986   0.699  22.286 -0.1786 -0.0106 -0.2309
  145SAPE  H11A15881   3.960   0.640  22.377 -0.6568  1.6058  0.7114
  145SAPE  H11B15882   3.900   0.767  22.270  0.4813  0.6127 -1.1722
  145SAPE     P15883   4.135   0.877  22.417  0.2140 -0.1107 -0.0503
  145SAPE   O1315884   4.278   0.911  22.406  0.2958 -0.2264  0.2463
  145SAPE   O1415885   4.047   0.989  22.397  0.7988 -0.2090 -0.7249
  145SAPE   O1215886   4.106   0.764  22.312 -0.5598 -0.4294  0.1652
  145SAPE   O1115887   4.108   0.801  22.555  0.5049  0.6972 -0.3673
  145SAPE    C115888   4.088   0.862  22.682 -0.0033 -0.6991  0.2874
  145SAPE    HA15889   4.131   0.794  22.758  2.0907  1.2085  0.9325
  145SAPE    HB15890   4.136   0.962  22.689  0.9404 -1.1597  0.5945
  145SAPE    C215891   3.943   0.884  22.726 -0.0231 -0.0241  0.1176
  145SAPE    HS15892   3.931   0.925  22.829 -0.4262  1.9397 -0.6588
  145SAPE   O2115893   3.870   0.764  22.699  0.0668  0.1979  0.4664
  145SAPE   C2115894   3.889   0.657  22.766 -0.7154  0.1019 -0.6670
  145SAPE   O2215895   3.952   0.639  22.871  0.3999  0.2198  0.8374
  145SAPE   C2215896   3.828   0.539  22.695 -0.0945 -0.3549 -0.2342
  145SAPE   H2R15897   3.918   0.487  22.657  0.6476  1.7697 -1.5739
  145SAPE   H2S15898   3.774   0.478  22.771 -1.6160  0.5905 -0.5139
  145SAPE    C315899   3.882   1.003  22.638  1.0157  0.6801  0.0939
  145SAPE    HX15900   3.844   0.959  22.544  2.9096  3.0928 -1.9537
  145SAPE    HY15901   3.969   1.063  22.605  2.2182 -0.4203  1.1375
  145SAPE   O3115902   3.775   1.072  22.712  0.0579  0.8382 -0.1160
  145SAPE   C3115903   3.721   1.163  22.632 -0.2037  0.1251 -0.3574
  145SAPE   O3215904   3.751   1.188  22.519 -0.2203  0.1877  0.4600
  145SAPE   C3215905   3.618   1.251  22.707 -0.1110 -0.9992 -0.0628
  145SAPE   H2X15906   3.673   1.326  22.768 -3.0323 -1.7629  3.8798
  145SAPE   H2Y15907   3.542   1.191  22.761 -0.3550 -0.9761 -0.3793
  145SAPE   C2315908   3.724   0.585  22.584  0.0704 -0.1753  0.2339
  145SAPE   H3R15909   3.764   0.642  22.497 -2.5829 -1.2351 -1.8469
  145SAPE   H3S15910   3.635   0.638  22.626 -0.4112 -1.5118  0.9588
  145SAPE   C2415911   3.672   0.450  22.531  0.5768  0.2004 -0.5732
  145SAPE   H4R15912   3.563   0.460  22.512  0.2318 -0.8845  0.6301
  145SAPE   H4S15913   3.678   0.363  22.600  1.2837  1.3286  0.8768
  145SAPE   C2515914   3.740   0.407  22.402  0.5380 -0.5040 -0.0307
  145SAPE   H5R15915   3.847   0.381  22.405  0.8042  0.6905  2.1041
  145SAPE   C2615916   3.685   0.388  22.281  0.1398 -0.0291  0.1279
  145SAPE   H6R15917   3.752   0.350  22.202  1.0422 -1.1176  1.3789
  145SAPE   C2715918   3.545   0.405  22.238 -0.4357  0.9406  0.0974
  145SAPE   H7R15919   3.543   0.415  22.127 -1.1545 -0.1421 -0.0066
  145SAPE   H7S15920   3.504   0.497  22.285 -2.3939  0.7884 -1.1819
  145SAPE   C2815921   3.445   0.297  22.277  0.3707  0.3049 -0.0262
  145SAPE   H8R15922   3.495   0.220  22.337 -3.1343 -2.6454 -0.5292
  145SAPE   C2915923   3.314   0.285  22.263 -0.0775 -0.0466 -0.2785
  145SAPE   H9R15924   3.263   0.195  22.302  5.0161 -2.8695  0.8120
  145SAPE  C21015925   3.227   0.380  22.185 -0.4408 -0.5412 -0.3220
  145SAPE  H10R15926   3.273   0.480  22.170  1.6487 -1.6266 -1.5522
  145SAPE  H10S15927   3.132   0.379  22.244 -1.5080 -0.7114 -1.9735
  145SAPE  C21115928   3.194   0.331  22.048 -0.0280  0.1405  0.1546
  145SAPE  H11R15929   3.285   0.333  21.985 -0.2501 -0.1578 -0.1807
  145SAPE  C21215930   3.076   0.300  21.994  0.0838 -0.0647  0.0228
  145SAPE  H12R15931   3.072   0.257  21.892 -0.5752 -1.8354  0.7432
  145SAPE  C21315932   2.945   0.312  22.068  0.7016  0.0428  0.4605
  145SAPE  H13R15933   2.864   0.345  21.999  0.9599  0.3514  0.2995
  145SAPE  H13S15934   2.946   0.391  22.147  1.9281 -0.4075  0.9178
  145SAPE  C21415935   2.907   0.180  22.137 -0.8436 -0.2863 -0.0192
  145SAPE  H14R15936   2.970   0.163  22.225 -0.1880 -2.5748 -0.8694
  145SAPE  C21515937   2.789   0.115  22.131 -0.2300  0.3739 -0.6118
  145SAPE  H15R15938   2.781   0.016  22.180  0.2918 -0.1306 -1.5151
  145SAPE  C21615939   2.661   0.153  22.052 -0.3907  0.0234 -0.0665
  145SAPE  H16R15940   2.629   0.074  21.980 -0.7920 -0.9244  1.1332
  145SAPE  H16S15941   2.675   0.249  21.998  2.1126 -1.5939 -2.5765
  145SAPE  C21715942   2.555   0.166  22.159 -0.0539 -0.0905 -0.2379
  145SAPE  H17R15943   2.542   0.071  22.215 -2.1231 -0.5456 -1.3766
  145SAPE  H17S15944   2.454   0.171  22.112 -0.3120  0.5580  0.3853
  145SAPE  C21815945   2.580   0.286  22.253  0.1852 -0.2685  0.6154
  145SAPE  H18R15946   2.582   0.379  22.192  0.1187 -1.2667 -0.9827
  145SAPE  H18S15947   2.677   0.288  22.308  1.9851 -0.6340 -2.3175
  145SAPE  C21915948   2.463   0.301  22.360 -0.0503  0.6820  0.0495
  145SAPE  H19R15949   2.494   0.362  22.448 -1.2551 -0.6479  1.4542
  145SAPE  H19S15950   2.442   0.200  22.403  1.1498  0.8223  1.0073
  145SAPE  C22015951   2.347   0.371  22.303 -0.1287  0.3210 -0.4027
  145SAPE  H20R15952   2.368   0.480  22.310 -0.4616  0.3087  1.2621
  145SAPE  H20S15953   2.256   0.354  22.364  0.7395  1.2651  1.2408
  145SAPE  H20T15954   2.317   0.345  22.200 -2.9134  1.6980 -0.0337
  145SAPE   C3315955   3.524   1.332  22.601  0.1830  0.6271  0.1248
  145SAPE   H3X15956   3.585   1.400  22.537 -1.7344 -1.0920 -3.8879
  145SAPE   H3Y15957   3.460   1.397  22.665 -1.7205 -1.4684  0.4524
  145SAPE   C3415958   3.429   1.245  22.520 -0.2153 -0.2240 -0.3875
  145SAPE   H4X15959   3.378   1.169  22.584 -0.1196  0.0666  0.0320
  145SAPE   H4Y15960   3.494   1.190  22.449  1.1457  1.7979 -0.7944
  145SAPE   C3515961   3.326   1.319  22.435 -0.1582  0.1432  0.1536
  145SAPE   H5X15962   3.389   1.372  22.361  1.5433 -0.6831  0.9525
  145SAPE   H5Y15963   3.258   1.385  22.494 -1.8450 -0.0901 -1.4352
  145SAPE   C3615964   3.231   1.219  22.369  0.6552 -0.5212  0.3200
  145SAPE   H6X15965   3.178   1.158  22.445 -1.0815 -1.6652 -1.7061
  145SAPE   H6Y15966   3.284   1.149  22.301  1.0415 -1.4857  1.5555
  145SAPE   C3715967   3.124   1.290  22.283 -0.0970 -0.0213  0.0163
  145SAPE   H7X15968   3.181   1.346  22.206 -0.3952  0.6487  0.2662
  145SAPE   H7Y15969   3.060   1.350  22.352 -0.7012 -1.9309  1.1983
  145SAPE   C3815970   3.040   1.182  22.205 -0.5805 -0.3145 -0.8212
  145SAPE   H8X15971   2.981   1.112  22.269 -0.3650 -0.2490 -0.5483
  145SAPE   H8Y15972   3.106   1.120  22.141  0.5615 -0.1654  0.1619
  145SAPE   C3915973   2.940   1.257  22.116  1.0088  0.1988  0.2972
  145SAPE   H9X15974   2.994   1.295  22.026 -1.4345 -2.5994 -2.6092
  145SAPE   H9Y15975   2.887   1.336  22.173 -0.5514 -0.6339  0.0493
  145SAPE  C31015976   2.840   1.158  22.062 -0.5350  0.0798 -0.5027
  145SAPE  H10X15977   2.804   1.108  22.154 -0.8505  0.1570 -0.5848
  145SAPE  H10Y15978   2.889   1.081  21.999  1.9965 -0.2815  1.7158
  145SAPE  C31115979   2.715   1.223  22.002 -0.4417  0.2201  0.2428
  145SAPE  H11X15980   2.754   1.276  21.912 -0.5530 -0.9297 -0.5044
  145SAPE  H11Y15981   2.673   1.303  22.067 -2.0656 -0.1853 -0.2686
  145SAPE  C31215982   2.606   1.129  21.961  1.4501  0.1473  0.1052
  145SAPE  H12X15983   2.518   1.195  21.946  0.2327 -1.4113  0.1445
  145SAPE  H12Y15984   2.581   1.066  22.049  1.1926  2.3141  1.6603
  145SAPE  C31315985   2.610   1.050  21.826  0.3786 -0.1525  0.1932
  145SAPE  H13X15986   2.692   0.977  21.838  1.0625  0.0415 -2.4869
  145SAPE  H13Y15987   2.638   1.130  21.754 -2.2213  1.5620  0.9392
  145SAPE  C31415988   2.481   0.970  21.780 -0.1399  0.4530 -0.5167
  145SAPE  H14X15989   2.481   0.937  21.674  2.1258 -0.9742 -0.1596
  145SAPE  H14Y15990   2.401   1.044  21.800  1.0573  1.6067  0.1668
  145SAPE  C31515991   2.446   0.852  21.866  0.0845  0.0091  0.3652
  145SAPE  H15X15992   2.462   0.875  21.973 -1.4431  1.1857  0.3642
  145SAPE  H15Y15993   2.517   0.772  21.835  0.7526  0.8247 -0.2590
  145SAPE  C31615994   2.303   0.792  21.857 -0.2335 -0.0490 -0.2134
  145SAPE  H16X15995   2.276   0.745  21.760 -2.6884  0.1901  0.2903
  145SAPE  H16Y15996   2.241   0.881  21.879  2.2949  1.7224  0.0982
  145SAPE  C31715997   2.267   0.692  21.972  0.4833 -0.6382  0.0880
  145SAPE  H17X15998   2.165   0.654  21.948  0.3859 -1.0383  1.0756
  145SAPE  H17Y15999   2.266   0.736  22.074  1.5404  0.2619 -0.2717
  145SAPE  C31816000   2.351   0.561  21.966 -0.4571  0.0203 -0.4398
  145SAPE  H18X16001   2.450   0.566  22.017 -0.2881 -2.5265 -0.3884
  145SAPE  H18Y16002   2.370   0.536  21.860 -2.8743 -0.7731 -0.7551
  145SAPE  H18Z16003   2.293   0.475  22.007 -1.0252  0.2269 -0.7971
  146SAPE     N16004   2.445   2.730  27.148 -0.9027 -0.1014  0.5044
  146SAPE   HN116005   2.439   2.633  27.184 -2.0893  0.0936  0.8747
  146SAPE   HN216006   2.531   2.774  27.186 -1.3062  0.6888  0.5180
  146SAPE   HN316007   2.374   2.790  27.194  0.0814 -0.2552  2.3396
  146SAPE   C1216008   2.434   2.752  26.999  0.6628 -0.0826  0.1968
  146SAPE  H12A16009   2.335   2.710  26.971  1.4568 -0.9270 -1.4746
  146SAPE  H12B16010   2.515   2.706  26.938  1.2341  1.1165  0.0155
  146SAPE   C1116011   2.421   2.901  26.957 -0.6974 -0.9115 -0.2012
  146SAPE  H11A16012   2.408   2.935  26.852 -0.4661  0.7119  0.2611
  146SAPE  H11B16013   2.518   2.948  26.983 -0.1711 -0.6435 -2.4316
  146SAPE     P16014   2.307   3.061  27.142  0.3963 -0.2103  0.6037
  146SAPE   O1316015   2.166   3.088  27.173 -0.0876 -0.1280 -0.1434
  146SAPE   O1416016   2.388   2.998  27.250  0.0700 -0.5968 -0.0219
  146SAPE   O1216017   2.310   2.956  27.024  0.5098 -0.3410 -0.3592
  146SAPE   O1116018   2.375   3.192  27.083 -0.1376  0.8319 -0.5895
  146SAPE    C116019   2.299   3.290  27.017  0.7623 -0.4686  0.2649
  146SAPE    HA16020   2.227   3.344  27.083  1.5024 -0.5716  1.1770
  146SAPE    HB16021   2.367   3.375  26.995 -1.5972  0.7915 -2.8835
  146SAPE    C216022   2.243   3.245  26.882  0.2305 -0.3760  0.1350
  146SAPE    HS16023   2.162   3.170  26.896 -1.8506  1.4480 -1.5240
  146SAPE   O2116024   2.344   3.189  26.801  0.2704  0.6996  0.6270
  146SAPE   C2116025   2.432   3.265  26.749  0.0475  0.1388  0.9728
  146SAPE   O2216026   2.435   3.386  26.757  0.3233 -0.1610 -0.2007
  146SAPE   C2216027   2.542   3.179  26.680  0.2540  0.2296  1.0224
  146SAPE   H2R16028   2.500   3.078  26.662 -1.4305  1.2060 -0.9969
  146SAPE   H2S16029   2.563   3.222  26.580  0.0504  1.3901  1.4554
  146SAPE    C316030   2.154   3.355  26.812  0.8543 -0.2229  0.5681
  146SAPE    HX16031   2.220   3.442  26.792 -1.6328  2.0309  1.6118
  146SAPE    HY16032   2.077   3.395  26.880 -0.9986 -1.7081 -0.5612
  146SAPE   O3116033   2.085   3.309  26.693 -0.3441  0.5270  0.1286
  146SAPE   C3116034   1.969   3.238  26.713 -0.3513  0.3027 -0.3342
  146SAPE   O3216035   1.916   3.208  26.814  0.3672 -0.0440 -0.5738
  146SAPE   C3216036   1.913   3.186  26.578  0.7691  0.3229  0.4297
  146SAPE   H2X16037   2.005   3.158  26.522  0.6256  2.0907 -0.7907
  146SAPE   H2Y16038   1.868   3.269  26.519 -0.9795  0.8243  2.3230
  146SAPE   C2316039   2.668   3.190  26.757  0.4857  0.0118 -0.7605
  146SAPE   H3R16040   2.642   3.152  26.858 -0.1126 -0.7786 -1.2040
  146SAPE   H3S16041   2.679   3.298  26.779 -1.1414 -0.3120  2.1413
  146SAPE   C2416042   2.795   3.120  26.695 -0.1378 -0.8686 -0.0647
  146SAPE   H4R16043   2.834   3.188  26.615  0.7427 -0.0284  1.0493
  146SAPE   H4S16044   2.749   3.028  26.654 -1.4443 -0.1251 -0.3434
  146SAPE   C2516045   2.902   3.083  26.797  0.2777 -0.1392  0.0532
  146SAPE   H5R16046   2.987   3.152  26.815  0.7890 -0.2923 -1.5668
  146SAPE   C2616047   2.896   2.974  26.879 -0.8202  0.1803  0.2548
  146SAPE   H6R16048   2.981   2.971  26.950 -1.7148  0.4800  1.3677
  146SAPE   C2716049   2.792   2.866  26.882  0.1187 -0.1395  0.2668
  146SAPE   H7R16050   2.762   2.833  26.780 -0.3781  0.8481  0.0731
  146SAPE   H7S16051   2.702   2.919  26.920  0.9734  1.3692  0.2619
  146SAPE   C2816052   2.828   2.748  26.967 -0.1178 -0.2083  0.2826
  146SAPE   H8R16053   2.841   2.767  27.074  0.3905 -0.2213  0.2242
  146SAPE   C2916054   2.838   2.622  26.932 -0.8002  0.0606 -0.5685
  146SAPE   H9R16055   2.879   2.555  27.009  1.9643  1.5947 -0.5653
  146SAPE  C21016056   2.813   2.566  26.793 -0.1817 -0.7329  0.0454
  146SAPE  H10R16057   2.724   2.613  26.747 -0.6833 -0.8275  0.8889
  146SAPE  H10S16058   2.794   2.456  26.797 -0.9169 -0.6165 -0.1300
  146SAPE  C21116059   2.928   2.581  26.692  0.4542 -0.2871 -0.7709
  146SAPE  H11R16060   3.023   2.614  26.735 -0.3946  0.7638  0.3816
  146SAPE  C21216061   2.919   2.582  26.557  0.0366  0.2182 -0.4443
  146SAPE  H12R16062   3.014   2.579  26.502 -0.2127  0.6146 -0.8968
  146SAPE  C21316063   2.799   2.573  26.475  0.0610 -0.1267 -0.3623
  146SAPE  H13R16064   2.796   2.672  26.425  2.0341 -0.5993 -1.5178
  146SAPE  H13S16065   2.706   2.564  26.535 -1.0770 -0.0911 -2.0430
  146SAPE  C21416066   2.809   2.468  26.367  0.5680 -0.1489 -0.0509
  146SAPE  H14R16067   2.893   2.401  26.393  1.8682  2.2557  2.6271
  146SAPE  C21516068   2.745   2.451  26.250 -0.5551 -0.3594  0.2795
  146SAPE  H15R16069   2.762   2.358  26.194 -0.5209 -0.0620 -0.2089
  146SAPE  C21616070   2.629   2.538  26.195 -0.1457  0.3204 -0.3322
  146SAPE  H16R16071   2.648   2.643  26.226  1.5868 -0.3736  1.1672
  146SAPE  H16S16072   2.543   2.501  26.255  1.1236  0.3643  1.5987
  146SAPE  C21716073   2.616   2.529  26.041 -0.1845 -0.8188  0.1100
  146SAPE  H17R16074   2.588   2.424  26.018 -2.3350 -0.3748  0.5382
  146SAPE  H17S16075   2.710   2.571  25.998 -0.4070 -1.0725 -0.6579
  146SAPE  C21816076   2.498   2.608  25.983 -0.5745 -0.4433 -0.2509
  146SAPE  H18R16077   2.397   2.575  26.017 -0.9022  0.5635 -0.2159
  146SAPE  H18S16078   2.497   2.601  25.872 -0.2408 -0.1950 -0.2721
  146SAPE  C21916079   2.506   2.762  26.008  0.5387  0.6534  0.3411
  146SAPE  H19R16080   2.493   2.775  26.118 -0.2646 -1.4224  0.5379
  146SAPE  H19S16081   2.418   2.813  25.963  1.9385  2.1508 -0.8098
  146SAPE  C22016082   2.639   2.821  25.969  1.0203 -0.1268 -0.4065
  146SAPE  H20R16083   2.666   2.783  25.868 -2.0925 -0.2300 -1.3053
  146SAPE  H20S16084   2.716   2.783  26.039  0.5033  1.1074  0.8690
  146SAPE  H20T16085   2.641   2.932  25.957  0.4057  0.0194  0.7379
  146SAPE   C3316086   1.813   3.069  26.593  0.8726  0.3824  0.0801
  146SAPE   H3X16087   1.717   3.104  26.638  1.3332 -0.2029  1.5854
  146SAPE   H3Y16088   1.850   2.991  26.662 -2.5156 -1.3616  0.1513
  146SAPE   C3416089   1.789   2.989  26.457 -0.1981 -0.0798 -0.2230
  146SAPE   H4X16090   1.881   2.937  26.423  1.0747  1.6188  0.5027
  146SAPE   H4Y16091   1.758   3.056  26.374 -1.5844 -0.0099  0.3279
  146SAPE   C3516092   1.680   2.877  26.466  0.3967  0.1550  0.2558
  146SAPE   H5X16093   1.609   2.911  26.545  1.1678  1.1972  0.5232
  146SAPE   H5Y16094   1.721   2.779  26.498  0.4157 -0.1393 -0.6452
  146SAPE   C3616095   1.587   2.845  26.347 -0.4930  0.8258 -0.1122
  146SAPE   H6X16096   1.533   2.937  26.317  0.4012  0.2493 -3.9973
  146SAPE   H6Y16097   1.516   2.767  26.382  3.0654 -2.6383  0.2079
  146SAPE   C3716098   1.662   2.791  26.220  0.3216  0.5948 -0.3012
  146SAPE   H7X16099   1.715   2.882  26.183  0.1123  1.6284  1.7630
  146SAPE   H7Y16100   1.581   2.766  26.149 -0.9640  0.4502  1.1603
  146SAPE   C3816101   1.761   2.674  26.236 -0.0046 -0.5520  0.6469
  146SAPE   H8X16102   1.712   2.587  26.284 -0.8149 -0.9865 -0.9197
  146SAPE   H8Y16103   1.844   2.706  26.302 -1.2530  2.5084  0.8838
  146SAPE   C3916104   1.795   2.614  26.095  0.9955 -0.3710 -0.7056
  146SAPE   H9X16105   1.707   2.595  26.031  1.6399 -2.1663 -1.1244
  146SAPE   H9Y16106   1.838   2.515  26.121  1.0603 -0.0387  0.5542
  146SAPE  C31016107   1.904   2.700  26.035  0.1361  0.3373  0.5890
  146SAPE  H10X16108   1.973   2.728  26.118  0.4507  1.0864  0.0839
  146SAPE  H10Y16109   1.863   2.798  26.003  0.3043 -0.2759 -1.6450
  146SAPE  C31116110   1.987   2.622  25.925  0.3542  0.2340  0.2081
  146SAPE  H11X16111   2.047   2.543  25.976 -1.0191 -0.7051  0.4006
  146SAPE  H11Y16112   2.060   2.689  25.874 -0.1278  0.3689 -0.3052
  146SAPE  C31216113   1.898   2.574  25.805  0.1943 -0.7815 -0.3461
  146SAPE  H12X16114   1.852   2.668  25.768  4.1714  0.6526 -2.1824
  146SAPE  H12Y16115   1.832   2.498  25.851 -0.3061  0.5990  1.3618
  146SAPE  C31316116   1.975   2.514  25.687 -0.2409  0.0371  0.0014
  146SAPE  H13X16117   2.056   2.452  25.731  0.2381  0.7708  0.1775
  146SAPE  H13Y16118   2.028   2.593  25.631  0.0201  0.4993  0.8920
  146SAPE  C31416119   1.877   2.435  25.598  0.7594  0.3223  0.6375
  146SAPE  H14X16120   1.788   2.489  25.560  0.2289  0.4782  2.0691
  146SAPE  H14Y16121   1.825   2.355  25.655  1.5021 -0.5168  0.1657
  146SAPE  C31516122   1.948   2.374  25.471 -0.3594  0.4663 -1.0028
  146SAPE  H15X16123   2.028   2.305  25.504 -0.8107  0.3040 -0.2006
  146SAPE  H15Y16124   1.986   2.453  25.404  0.3311  0.3659 -0.7365
  146SAPE  C31616125   1.848   2.304  25.381  0.7466 -0.5819 -0.4025
  146SAPE  H16X16126   1.785   2.384  25.334  0.0074 -0.6237  0.4945
  146SAPE  H16Y16127   1.778   2.247  25.446  0.8303  1.2156  1.3885
  146SAPE  C31716128   1.900   2.226  25.261  0.4066 -0.1417  0.6013
  146SAPE  H17X16129   1.942   2.130  25.298  0.9545  0.3423  1.2541
  146SAPE  H17Y16130   1.990   2.278  25.220  0.8600 -0.0555  1.6905
  146SAPE  C31816131   1.791   2.197  25.162  0.3317  0.1685  0.0802
  146SAPE  H18X16132   1.704   2.158  25.220  0.4644 -0.2508 -0.0029
  146SAPE  H18Y16133   1.825   2.110  25.101  1.4366 -0.8726  2.0782
  146SAPE  H18Z16134   1.758   2.278  25.094  0.1952 -1.4563 -1.9051
  147SAPE     N16135   1.512   1.683  14.733 -0.3797  0.2212 -0.8148
  147SAPE   HN116136   1.482   1.761  14.794  1.9034  0.4352  0.1468
  147SAPE   HN216137   1.430   1.631  14.697 -0.1533  0.8139 -2.2588
  147SAPE   HN316138   1.576   1.621  14.787 -0.3196  0.1101 -1.0095
  147SAPE   C1216139   1.576   1.723  14.601  0.0425 -0.1443  0.8336
  147SAPE  H12A16140   1.594   1.833  14.601 -0.7277 -0.0078  0.4600
  147SAPE  H12B16141   1.504   1.699  14.520 -2.2903 -0.9630  3.0044
  147SAPE   C1116142   1.707   1.650  14.595  0.0032 -0.1381  0.2449
  147SAPE  H11A16143   1.765   1.682  14.684 -1.8085 -1.4078  2.0140
  147SAPE  H11B16144   1.767   1.689  14.510 -0.0857 -0.6850 -0.0719
  147SAPE     P16145   1.661   1.422  14.468  0.1479  0.5772  0.3753
  147SAPE   O1316146   1.547   1.476  14.389 -0.1556  0.0573 -0.1623
  147SAPE   O1416147   1.787   1.417  14.397 -0.4225  0.1306  0.1880
  147SAPE   O1216148   1.690   1.507  14.601  0.1784  0.2114  0.1764
  147SAPE   O1116149   1.618   1.283  14.516 -0.3553 -0.0933  0.5020
  147SAPE    C116150   1.641   1.229  14.647  0.2202  0.2997 -0.2204
  147SAPE    HA16151   1.619   1.297  14.732  2.2224  0.3205  0.3126
  147SAPE    HB16152   1.570   1.144  14.660  1.6005 -0.5737  2.1178
  147SAPE    C216153   1.781   1.176  14.674 -0.7695 -0.2196 -0.3854
  147SAPE    HS16154   1.789   1.127  14.773  0.9139  2.8982  1.1472
  147SAPE   O2116155   1.876   1.281  14.668 -0.2428 -0.3597 -0.5809
  147SAPE   C2116156   1.894   1.362  14.774 -0.3883 -0.2565  0.4958
  147SAPE   O2216157   1.837   1.361  14.877  0.0442  0.1226  0.1279
  147SAPE   C2216158   1.998   1.467  14.742 -0.5946 -0.0354  0.5831
  147SAPE   H2R16159   1.978   1.494  14.637  1.4230 -0.6948 -0.0219
  147SAPE   H2S16160   1.977   1.553  14.810  1.7070  0.1191  1.1831
  147SAPE    C316161   1.827   1.067  14.571  0.5594 -0.7333 -0.2086
  147SAPE    HX16162   1.827   1.122  14.474 -1.3076  1.9976  1.2219
  147SAPE    HY16163   1.746   0.991  14.569  0.4061 -0.5596 -0.7426
  147SAPE   O3116164   1.946   1.005  14.614  0.2036 -0.6717 -0.0722
  147SAPE   C3116165   2.057   1.064  14.581  0.4046 -0.2535 -0.3350
  147SAPE   O3216166   2.068   1.158  14.502 -0.0980  0.2111  0.3328
  147SAPE   C3216167   2.167   1.012  14.667 -0.4416  0.0704  0.7840
  147SAPE   H2X16168   2.176   0.901  14.664  0.0827  0.1290 -0.5848
  147SAPE   H2Y16169   2.137   1.043  14.769  0.3613 -1.5063  1.5395
  147SAPE   C2316170   2.138   1.414  14.758 -0.1612  0.1956 -1.0091
  147SAPE   H3R16171   2.218   1.478  14.718  0.3818 -0.1876 -0.5480
  147SAPE   H3S16172   2.156   1.322  14.697  0.0941  0.4226 -1.2761
  147SAPE   C2416173   2.167   1.390  14.906  0.9729 -0.4718  0.5010
  147SAPE   H4R16174   2.271   1.351  14.907  2.2483  2.6370  0.9745
  147SAPE   H4S16175   2.101   1.305  14.935 -0.9354  0.2993 -1.3024
  147SAPE   C2516176   2.153   1.511  14.996  0.2435  0.3220  0.0820
  147SAPE   H5R16177   2.203   1.599  14.952  2.6145 -1.1666 -0.3979
  147SAPE   C2616178   2.089   1.510  15.113 -0.3080  0.2711  0.4961
  147SAPE   H6R16179   2.081   1.605  15.168  1.5589  0.7498  0.0082
  147SAPE   C2716180   2.023   1.396  15.186 -0.1116 -0.0553  0.1105
  147SAPE   H7R16181   1.945   1.353  15.119 -0.0865  0.5901 -0.3498
  147SAPE   H7S16182   1.960   1.446  15.263 -2.6408  1.5684 -2.7865
  147SAPE   C2816183   2.121   1.289  15.236 -0.2741 -0.7581  0.4578
  147SAPE   H8R16184   2.132   1.197  15.176  0.7050 -0.1594 -0.3015
  147SAPE   C2916185   2.188   1.306  15.355  0.2621  0.8138  0.1511
  147SAPE   H9R16186   2.251   1.220  15.383 -0.3476  0.2408 -0.2258
  147SAPE  C21016187   2.163   1.413  15.460 -0.3262 -0.2297 -0.3703
  147SAPE  H10R16188   2.157   1.371  15.562  1.3549 -1.8230 -0.8713
  147SAPE  H10S16189   2.056   1.441  15.458 -0.3222  0.0241  1.5071
  147SAPE  C21116190   2.248   1.535  15.458  0.7603 -0.2348  0.4211
  147SAPE  H11R16191   2.228   1.604  15.375  1.0441 -1.0694 -0.3528
  147SAPE  C21216192   2.342   1.575  15.546  0.4803  0.0406 -0.7325
  147SAPE  H12R16193   2.404   1.665  15.528 -0.1081  1.2443  2.5260
  147SAPE  C21316194   2.399   1.491  15.656  0.5151  0.7166  0.4824
  147SAPE  H13R16195   2.321   1.464  15.730  1.5075 -1.2557  0.8533
  147SAPE  H13S16196   2.466   1.547  15.724 -0.3322  0.5606  1.4763
  147SAPE  C21416197   2.485   1.367  15.620  0.0848 -0.7423  0.2782
  147SAPE  H14R16198   2.568   1.388  15.551 -0.0400 -1.0579  0.0301
  147SAPE  C21516199   2.461   1.241  15.657  1.0002 -0.2917  0.2325
  147SAPE  H15R16200   2.524   1.162  15.614  0.6278 -0.2289 -0.4442
  147SAPE  C21616201   2.345   1.192  15.739 -0.3246 -0.4316  0.1402
  147SAPE  H16R16202   2.248   1.192  15.686 -0.5730  1.4265  0.5189
  147SAPE  H16S16203   2.322   1.265  15.820 -1.4780 -0.7034  0.0762
  147SAPE  C21716204   2.353   1.062  15.804 -0.1318 -0.3989 -0.4885
  147SAPE  H17R16205   2.276   1.066  15.883  1.7052 -1.2179  1.4410
  147SAPE  H17S16206   2.448   1.060  15.862 -0.9738 -0.1343  0.9391
  147SAPE  C21816207   2.333   0.933  15.721  0.1052  0.6098 -0.4604
  147SAPE  H18R16208   2.412   0.919  15.644 -0.4578 -0.5582 -0.8471
  147SAPE  H18S16209   2.230   0.934  15.681  0.1460  3.1291 -0.6734
  147SAPE  C21916210   2.343   0.809  15.805 -0.1374  0.1062 -0.2156
  147SAPE  H19R16211   2.335   0.723  15.736 -0.3183  2.7671 -3.7762
  147SAPE  H19S16212   2.262   0.808  15.881  1.1750  0.1990  1.2241
  147SAPE  C22016213   2.476   0.796  15.882 -0.0360  0.3319  0.5705
  147SAPE  H20R16214   2.564   0.788  15.814  0.3503  0.4908  1.0488
  147SAPE  H20S16215   2.469   0.706  15.947 -0.9907 -1.3733 -1.7409
  147SAPE  H20T16216   2.497   0.889  15.938 -0.4583  1.3526 -0.9047
  147SAPE   C3316217   2.303   1.072  14.631  0.1607 -0.0412  0.3281
  147SAPE   H3X16218   2.312   1.182  14.644  0.9511  0.2458 -2.2042
  147SAPE   H3Y16219   2.327   1.048  14.525  0.2770  0.0221  0.3395
  147SAPE   C3416220   2.418   1.021  14.711 -0.1437 -0.1423 -0.2395
  147SAPE   H4X16221   2.509   1.085  14.706 -0.6330  0.9775  2.8850
  147SAPE   H4Y16222   2.430   0.913  14.689 -1.9356 -1.1153  2.9098
  147SAPE   C3516223   2.392   1.025  14.867 -0.6480  0.2725 -0.0826
  147SAPE   H5X16224   2.322   0.943  14.895 -2.2815  2.0137  1.1110
  147SAPE   H5Y16225   2.331   1.112  14.898  1.6485  1.8915  0.1473
  147SAPE   C3616226   2.517   1.012  14.950 -0.1159  0.1137  0.6012
  147SAPE   H6X16227   2.565   1.112  14.943  0.2564 -0.0164  1.2586
  147SAPE   H6Y16228   2.580   0.928  14.912 -2.2654 -1.0181 -0.6685
  147SAPE   C3716229   2.493   0.979  15.096  0.1127  0.1832  0.4728
  147SAPE   H7X16230   2.590   0.948  15.141  0.1078  1.0100  1.0865
  147SAPE   H7Y16231   2.422   0.895  15.108  0.0332  0.3121  0.9516
  147SAPE   C3816232   2.433   1.101  15.177  0.3986  0.1490 -0.2923
  147SAPE   H8X16233   2.445   1.068  15.283  2.7589 -0.2994 -0.6405
  147SAPE   H8Y16234   2.329   1.107  15.139  0.9746 -1.3939 -2.2855
  147SAPE   C3916235   2.503   1.234  15.155 -0.6010 -0.1516 -0.0698
  147SAPE   H9X16236   2.445   1.319  15.198  0.2341  0.2275  0.3460
  147SAPE   H9Y16237   2.520   1.276  15.054  3.0418  0.4268  0.6261
  147SAPE  C31016238   2.653   1.241  15.206  0.3627 -0.1930  0.6121
  147SAPE  H10X16239   2.714   1.178  15.137  0.1298 -1.1804  1.2765
  147SAPE  H10Y16240   2.658   1.186  15.303  1.7057 -1.5997 -0.1984
  147SAPE  C31116241   2.707   1.386  15.211  0.4572  0.0303  0.5591
  147SAPE  H11X16242   2.639   1.439  15.281  2.6298  2.1552  1.2063
  147SAPE  H11Y16243   2.702   1.426  15.108 -1.4669  0.1640  0.6684
  147SAPE  C31216244   2.849   1.391  15.267 -0.4966  0.9577 -0.6657
  147SAPE  H12X16245   2.898   1.338  15.182 -1.5898 -1.0983 -0.0876
  147SAPE  H12Y16246   2.856   1.326  15.357  1.6167 -0.5304 -1.8232
  147SAPE  C31316247   2.918   1.525  15.303  0.4114 -0.5708 -0.6718
  147SAPE  H13X16248   2.913   1.597  15.219 -0.1541 -0.3074 -0.4209
  147SAPE  H13Y16249   3.022   1.499  15.330  0.0320 -2.6825 -1.0939
  147SAPE  C31416250   2.850   1.597  15.416  0.0655  0.3476 -0.5088
  147SAPE  H14X16251   2.747   1.619  15.380 -1.0839 -1.4000  1.4599
  147SAPE  H14Y16252   2.905   1.692  15.433 -0.2425  0.1508  2.0530
  147SAPE  C31516253   2.837   1.516  15.548 -0.4237 -0.4827  0.8877
  147SAPE  H15X16254   2.934   1.472  15.583  0.8604  0.2309 -1.5701
  147SAPE  H15Y16255   2.777   1.431  15.510 -0.4503  0.0344 -0.2474
  147SAPE  C31616256   2.780   1.599  15.659 -0.2785  0.5460 -0.0727
  147SAPE  H16X16257   2.675   1.622  15.631 -0.5556  0.2174  0.6448
  147SAPE  H16Y16258   2.830   1.698  15.666  0.1971  0.2937  0.1921
  147SAPE  C31716259   2.796   1.520  15.786  0.0820  0.0358 -0.7349
  147SAPE  H17X16260   2.901   1.491  15.809 -0.7058 -1.8676  0.7701
  147SAPE  H17Y16261   2.735   1.429  15.771 -0.7887  0.0877  1.8873
  147SAPE  C31816262   2.729   1.600  15.895 -0.3015 -0.4183 -0.4906
  147SAPE  H18X16263   2.620   1.613  15.879 -0.6134  3.9611  3.0000
  147SAPE  H18Y16264   2.769   1.704  15.905 -1.1311 -0.1966  0.7890
  147SAPE  H18Z16265   2.734   1.542  15.990 -2.4936  1.1022  0.6316
  148SAPE     N16266   1.121   1.164  16.181  0.7003 -0.4912 -0.5457
  148SAPE   HN116267   1.199   1.227  16.152  1.3320 -0.2752  1.5035
  148SAPE   HN216268   1.127   1.157  16.284  1.6586  1.1324 -0.4508
  148SAPE   HN316269   1.128   1.069  16.140  0.9096 -1.5841  1.8627
  148SAPE   C1216270   0.985   1.235  16.168 -0.1498 -0.0682  0.3181
  148SAPE  H12A16271   0.913   1.210  16.248 -1.4413 -2.9646 -1.5660
  148SAPE  H12B16272   0.949   1.193  16.071  0.3911  3.3661 -1.5490
  148SAPE   C1116273   0.984   1.386  16.138 -0.1270  0.4753 -0.1942
  148SAPE  H11A16274   1.026   1.439  16.226 -0.2246  0.5795 -0.2112
  148SAPE  H11B16275   0.879   1.419  16.153 -0.3118 -0.8164  1.7404
  148SAPE     P16276   0.956   1.453  15.892  0.2244 -0.4093 -0.3813
  148SAPE   O1316277   1.042   1.516  15.789  0.0125 -0.6091  0.2007
  148SAPE   O1416278   0.890   1.328  15.848  0.2575 -0.0490 -0.5582
  148SAPE   O1216279   1.040   1.426  16.017 -0.0317  0.3543  0.0689
  148SAPE   O1116280   0.847   1.563  15.926 -0.1762  0.1109  0.2403
  148SAPE    C116281   0.895   1.672  16.012  0.3333 -0.2617  0.1373
  148SAPE    HA16282   0.965   1.638  16.092  0.0913  1.1393  0.9805
  148SAPE    HB16283   0.946   1.750  15.951 -2.4804  2.2049  0.7408
  148SAPE    C216284   0.775   1.731  16.091  0.3955 -0.4341 -0.1587
  148SAPE    HS16285   0.803   1.804  16.171  0.9038  0.9316 -1.5234
  148SAPE   O2116286   0.700   1.626  16.143 -0.1540  0.9502 -0.2977
  148SAPE   C2116287   0.659   1.639  16.275  0.2176 -0.3210 -0.0686
  148SAPE   O2216288   0.655   1.739  16.342 -0.1690 -0.2369 -0.2852
  148SAPE   C2216289   0.635   1.493  16.312 -0.4207 -0.4066 -0.1356
  148SAPE   H2R16290   0.638   1.435  16.217  3.3504  1.1109 -1.1146
  148SAPE   H2S16291   0.727   1.463  16.367  0.4362  0.8617 -0.8406
  148SAPE    C316292   0.687   1.819  16.001  0.0680  0.2168 -0.1868
  148SAPE    HX16293   0.678   1.757  15.909  2.0362  1.5368 -1.3361
  148SAPE    HY16294   0.740   1.913  15.976  0.2839 -0.0199 -0.6149
  148SAPE   O3116295   0.551   1.849  16.045  0.5279 -0.1008 -0.2715
  148SAPE   C3116296   0.548   1.941  16.145 -0.3710  0.4811  0.1113
  148SAPE   O3216297   0.647   1.999  16.187  0.0954  0.3717  0.0644
  148SAPE   C3216298   0.418   1.931  16.213 -0.0701 -0.3709 -0.4602
  148SAPE   H2X16299   0.432   1.850  16.288  0.4086 -0.0365 -0.1737
  148SAPE   H2Y16300   0.339   1.906  16.140 -0.6353 -1.1438  0.3877
  148SAPE   C2316301   0.516   1.470  16.398 -0.1684  0.3153 -0.0850
  148SAPE   H3R16302   0.498   1.550  16.473  2.0388 -1.1555  2.1681
  148SAPE   H3S16303   0.526   1.376  16.455 -0.2634 -0.9532 -2.0716
  148SAPE   C2416304   0.383   1.470  16.327  0.5357  0.5372  0.7221
  148SAPE   H4R16305   0.389   1.393  16.247  0.2585  0.9304  0.3196
  148SAPE   H4S16306   0.376   1.571  16.282  5.0903  0.5458 -0.4885
  148SAPE   C2516307   0.263   1.440  16.414  0.3682  0.3974  0.0704
  148SAPE   H5R16308   0.273   1.358  16.487  3.1187 -0.0564 -0.6763
  148SAPE   C2616309   0.148   1.514  16.409  0.0976  0.1453  0.4702
  148SAPE   H6R16310   0.060   1.488  16.470 -0.0991  3.0722  1.5581
  148SAPE   C2716311   0.120   1.628  16.311  0.2777  0.1802 -0.1633
  148SAPE   H7R16312   0.173   1.603  16.217 -1.1675 -2.7391 -0.2982
  148SAPE   H7S16313   0.152   1.726  16.353 -1.5974  0.5739  0.4517
  148SAPE   C2816314  -0.035   1.624  16.284 -0.2374 -0.2965  0.3168
  148SAPE   H8R16315  -0.076   1.554  16.210  2.2814  0.9241 -2.4330
  148SAPE   C2916316  -0.116   1.709  16.351 -0.0340  0.1261  0.1448
  148SAPE   H9R16317  -0.211   1.733  16.300  1.0865  2.6903 -0.8955
  148SAPE  C21016318  -0.076   1.807  16.460 -0.3518 -0.2301 -0.9976
  148SAPE  H10R16319  -0.038   1.901  16.416  1.4661 -0.3909  0.1203
  148SAPE  H10S16320   0.014   1.769  16.513 -1.2974 -0.6145  0.4173
  148SAPE  C21116321  -0.191   1.836  16.559  0.7431 -0.2091 -0.2273
  148SAPE  H11R16322  -0.215   1.752  16.626 -2.0410 -2.1286 -3.3147
  148SAPE  C21216323  -0.271   1.951  16.566 -0.2104  0.4072  0.5255
  148SAPE  H12R16324  -0.355   1.964  16.637 -0.9189 -1.6699  0.1390
  148SAPE  C21316325  -0.265   2.057  16.461 -0.0020  0.1722  0.0819
  148SAPE  H13R16326  -0.200   2.040  16.372 -1.5471  0.1229 -1.0872
  148SAPE  H13S16327  -0.233   2.149  16.514  1.0500  0.1011 -0.4000
  148SAPE  C21416328  -0.404   2.087  16.422  0.1451 -0.8672  0.5085
  148SAPE  H14R16329  -0.463   2.142  16.497 -1.0345  0.3338 -1.2179
  148SAPE  C21516330  -0.471   2.048  16.308 -1.1791 -0.2949 -0.9324
  148SAPE  H15R16331  -0.575   2.081  16.300 -1.5532 -0.8399  1.0865
  148SAPE  C21616332  -0.406   1.984  16.185  0.1876 -0.0340 -0.6941
  148SAPE  H16R16333  -0.485   1.916  16.145 -1.3961  1.3135  0.0124
  148SAPE  H16S16334  -0.316   1.924  16.210 -0.4061 -0.2835  0.9536
  148SAPE  C21716335  -0.361   2.079  16.066  0.2569 -0.2897 -0.4565
  148SAPE  H17R16336  -0.343   2.023  15.972  0.2084  0.3726 -0.8653
  148SAPE  H17S16337  -0.266   2.129  16.094 -0.0331  0.6054 -1.0197
  148SAPE  C21816338  -0.458   2.193  16.029 -0.6680  0.1320  0.1482
  148SAPE  H18R16339  -0.455   2.274  16.104 -1.6075  0.1175  0.2196
  148SAPE  H18S16340  -0.560   2.148  16.019 -0.1867 -1.2390  1.1065
  148SAPE  C21916341  -0.412   2.265  15.902  0.1860  0.0615  0.4594
  148SAPE  H19R16342  -0.498   2.328  15.868 -0.7636 -0.6016  1.5438
  148SAPE  H19S16343  -0.390   2.193  15.821 -4.4333  1.1392 -2.1542
  148SAPE  C22016344  -0.296   2.361  15.914 -0.0933 -0.6820  0.4373
  148SAPE  H20R16345  -0.326   2.457  15.961  0.9381  0.9785 -2.0897
  148SAPE  H20S16346  -0.262   2.393  15.813 -2.8879 -1.4737 -0.8660
  148SAPE  H20T16347  -0.214   2.313  15.972 -0.7636 -2.3668  0.0429
  148SAPE   C3316348   0.379   2.054  16.305  0.3752  0.1818  0.2338
  148SAPE   H3X16349   0.347   2.143  16.246 -0.3155  0.2992  0.7680
  148SAPE   H3Y16350   0.470   2.081  16.363 -0.1189  1.8033  0.3070
  148SAPE   C3416351   0.271   2.016  16.405  0.6619 -0.1750 -0.5181
  148SAPE   H4X16352   0.301   1.920  16.453  0.4282 -0.0801 -0.1835
  148SAPE   H4Y16353   0.176   2.000  16.349  0.0676  1.1814  0.0507
  148SAPE   C3516354   0.257   2.124  16.503 -0.2266 -0.3597  0.5000
  148SAPE   H5X16355   0.271   2.225  16.458 -1.0501 -0.9451 -1.1325
  148SAPE   H5Y16356   0.341   2.105  16.574 -0.6852 -1.9172  0.6482
  148SAPE   C3616357   0.116   2.114  16.569  0.0935 -0.4220  0.1480
  148SAPE   H6X16358   0.103   2.009  16.602 -0.1350 -0.4953 -0.1650
  148SAPE   H6Y16359   0.033   2.131  16.497 -1.4869 -0.2930  1.9542
  148SAPE   C3716360   0.110   2.231  16.676  0.3998  0.4608  0.0330
  148SAPE   H7X16361   0.123   2.332  16.631 -1.1729  1.0568  0.8404
  148SAPE   H7Y16362   0.198   2.210  16.740  0.0993 -3.2967 -0.5807
  148SAPE   C3816363  -0.029   2.222  16.745 -0.6430  0.2752 -0.2387
  148SAPE   H8X16364  -0.040   2.116  16.777 -0.5942  0.3878  0.1542
  148SAPE   H8Y16365  -0.099   2.231  16.660 -0.2514 -2.9811 -1.0357
  148SAPE   C3916366  -0.056   2.310  16.861  0.1753 -0.0783  0.3409
  148SAPE   H9X16367  -0.037   2.415  16.832 -2.4170  0.5687  0.7531
  148SAPE   H9Y16368   0.010   2.280  16.945  1.5145 -1.6698 -1.1890
  148SAPE  C31016369  -0.201   2.308  16.907 -0.0751 -0.3564  0.1551
  148SAPE  H10X16370  -0.217   2.378  16.992  2.5678 -0.4191  0.7816
  148SAPE  H10Y16371  -0.228   2.208  16.947 -0.1346  0.0390  1.1310
  148SAPE  C31116372  -0.298   2.346  16.787 -0.6929 -0.0960 -0.3070
  148SAPE  H11X16373  -0.273   2.297  16.690  0.0766 -0.0561 -0.1273
  148SAPE  H11Y16374  -0.275   2.454  16.776 -0.5678 -0.1068 -0.1350
  148SAPE  C31216375  -0.447   2.316  16.806  0.1191  0.3132  0.2657
  148SAPE  H12X16376  -0.510   2.355  16.724 -3.0258 -1.3413  1.7154
  148SAPE  H12Y16377  -0.496   2.359  16.896 -1.3414 -0.0255 -0.3380
  148SAPE  C31316378  -0.485   2.168  16.822 -0.2894 -0.3312 -0.3165
  148SAPE  H13X16379  -0.447   2.139  16.922  0.8940  2.6305  0.2124
  148SAPE  H13Y16380  -0.436   2.105  16.745 -1.0834 -3.6107  1.6832
  148SAPE  C31416381  -0.633   2.150  16.804 -0.0332 -0.1789 -0.3926
  148SAPE  H14X16382  -0.653   2.141  16.695  0.2473  0.6322 -0.5226
  148SAPE  H14Y16383  -0.695   2.231  16.849 -1.6842 -0.9954 -1.1279
  148SAPE  C31516384  -0.679   2.013  16.858  0.3545  0.8689  0.3907
  148SAPE  H15X16385  -0.668   2.008  16.968  1.6921 -0.5700  0.2369
  148SAPE  H15Y16386  -0.613   1.932  16.818 -1.5262 -1.6293  2.0619
  148SAPE  C31616387  -0.815   1.986  16.803  0.0159 -0.2846 -0.3195
  148SAPE  H16X16388  -0.828   2.009  16.695  0.4975  0.4505 -0.2356
  148SAPE  H16Y16389  -0.898   2.053  16.835 -2.4460 -2.8075 -1.0737
  148SAPE  C31716390  -0.855   1.842  16.829 -0.0140  0.3661 -0.4166
  148SAPE  H17X16391  -0.806   1.777  16.754  2.3163  1.1813  0.2949
  148SAPE  H17Y16392  -0.965   1.833  16.815 -0.0511  0.9520 -0.5381
  148SAPE  C31816393  -0.814   1.786  16.968  0.3413 -0.5554  0.5915
  148SAPE  H18X16394  -0.705   1.779  16.988  0.9586  0.4085 -2.0364
  148SAPE  H18Y16395  -0.844   1.679  16.963 -0.6496 -0.4803  3.2466
  148SAPE  H18Z16396  -0.864   1.834  17.055  2.0598 -1.1508  1.9718
  149SAPE     N16397   1.456   0.834  17.464 -0.1794 -0.0512 -0.1676
  149SAPE   HN116398   1.394   0.775  17.404 -0.1245  2.0922 -2.4820
  149SAPE   HN216399   1.537   0.779  17.497 -0.7269 -1.1561 -0.5946
  149SAPE   HN316400   1.412   0.878  17.547 -0.1621 -0.9092  0.3051
  149SAPE   C1216401   1.516   0.931  17.366 -0.7931  0.0677 -0.7712
  149SAPE  H12A16402   1.526   0.890  17.264 -0.8052 -1.2239 -0.2660
  149SAPE  H12B16403   1.616   0.967  17.401 -1.1266 -0.2815  0.6055
  149SAPE   C1116404   1.419   1.051  17.368  0.0039  0.2117  0.4327
  149SAPE  H11A16405   1.319   1.019  17.331  0.6011 -0.1910 -0.8779
  149SAPE  H11B16406   1.451   1.120  17.287 -2.2117  0.7892 -0.0376
  149SAPE     P16407   1.320   1.111  17.616  0.5066  0.2024 -0.2536
  149SAPE   O1316408   1.302   0.970  17.656 -0.7177 -0.4955 -0.0020
  149SAPE   O1416409   1.366   1.195  17.722  0.6551 -0.3053  0.4387
  149SAPE   O1216410   1.430   1.116  17.496  0.2293 -0.6411 -0.3708
  149SAPE   O1116411   1.189   1.168  17.551 -0.1663 -0.7385  0.0956
  149SAPE    C116412   1.180   1.282  17.466  0.8130 -0.2582 -0.3782
  149SAPE    HA16413   1.234   1.365  17.516 -0.3227 -0.5082  1.3871
  149SAPE    HB16414   1.219   1.261  17.364 -0.7090 -1.8852 -0.6814
  149SAPE    C216415   1.038   1.337  17.447 -0.5106 -0.5269  0.0693
  149SAPE    HS16416   1.041   1.408  17.361 -0.5139 -0.4351  0.1440
  149SAPE   O2116417   0.992   1.399  17.566  0.1990 -0.3595 -0.4866
  149SAPE   C2116418   1.011   1.530  17.570  0.1601 -0.1923 -0.0563
  149SAPE   O2216419   1.073   1.594  17.486  0.1620 -0.3157  0.2282
  149SAPE   C2216420   0.952   1.602  17.692  0.3548  0.5838  0.4448
  149SAPE   H2R16421   0.961   1.540  17.783 -0.6031  1.1311  0.9324
  149SAPE   H2S16422   1.018   1.692  17.690  0.2042  0.7036  0.8288
  149SAPE    C316423   0.926   1.239  17.401 -0.0284  0.5146 -1.0672
  149SAPE    HX16424   0.906   1.188  17.498 -2.0861  2.1522 -0.5435
  149SAPE    HY16425   0.953   1.162  17.326 -0.9337 -0.7301 -0.1607
  149SAPE   O3116426   0.814   1.317  17.361 -0.0248 -0.5344 -0.0809
  149SAPE   C3116427   0.702   1.286  17.419  0.1546  0.3722 -0.2633
  149SAPE   O3216428   0.683   1.189  17.491 -0.0216  0.0933 -0.2292
  149SAPE   C3216429   0.590   1.383  17.379  0.1024  0.5189 -0.5091
  149SAPE   H2X16430   0.621   1.481  17.422 -0.9533  0.1629  1.1689
  149SAPE   H2Y16431   0.486   1.380  17.419 -0.4826  0.1415 -2.0126
  149SAPE   C2316432   0.807   1.643  17.649  0.3448  0.2187 -0.2566
  149SAPE   H3R16433   0.737   1.559  17.666  2.5274 -1.3712  1.5410
  149SAPE   H3S16434   0.791   1.666  17.541  0.6481  0.7445 -0.1944
  149SAPE   C2416435   0.751   1.762  17.745 -0.8643 -0.3882  0.2375
  149SAPE   H4R16436   0.821   1.845  17.725  1.1760 -2.2918 -1.0605
  149SAPE   H4S16437   0.769   1.732  17.850  0.0333 -1.6886 -0.2546
  149SAPE   C2516438   0.610   1.806  17.711  0.0207  0.4428  0.4863
  149SAPE   H5R16439   0.593   1.820  17.604 -4.1195 -0.4066  0.8633
  149SAPE   C2616440   0.497   1.784  17.781 -0.6160  0.3769  0.0106
  149SAPE   H6R16441   0.408   1.826  17.732 -0.1782 -0.5018 -1.5945
  149SAPE   C2716442   0.488   1.748  17.924  1.3655  0.1735  0.1310
  149SAPE   H7R16443   0.453   1.837  17.981  2.2991 -0.0575  1.1095
  149SAPE   H7S16444   0.575   1.710  17.983  1.1576  1.0790  1.0595
  149SAPE   C2816445   0.378   1.636  17.936 -0.2914  0.4948 -0.3292
  149SAPE   H8R16446   0.348   1.576  17.849 -0.4115 -1.5383  1.0388
  149SAPE   C2916447   0.321   1.595  18.053  0.3530 -0.0177  0.0043
  149SAPE   H9R16448   0.245   1.516  18.047 -1.0413  1.1917  0.9156
  149SAPE  C21016449   0.365   1.635  18.193  0.6059  0.3306 -0.1391
  149SAPE  H10R16450   0.269   1.685  18.215 -0.5619  0.0200 -3.9531
  149SAPE  H10S16451   0.447   1.710  18.197  0.4185  0.6323 -1.5664
  149SAPE  C21116452   0.391   1.522  18.290 -0.9984 -0.7547  0.3892
  149SAPE  H11R16453   0.499   1.510  18.308 -0.4339  0.2474 -1.8970
  149SAPE  C21216454   0.302   1.448  18.349 -0.1584  0.1628 -0.3023
  149SAPE  H12R16455   0.339   1.379  18.426 -3.1747 -0.3638  0.8038
  149SAPE  C21316456   0.152   1.449  18.323 -0.1813 -0.6195 -0.2923
  149SAPE  H13R16457   0.107   1.358  18.279  1.8848 -2.0530  0.4066
  149SAPE  H13S16458   0.132   1.525  18.244  1.6916  0.1371 -0.0903
  149SAPE  C21416459   0.078   1.461  18.456 -0.1703 -0.5802 -0.5761
  149SAPE  H14R16460   0.092   1.372  18.519  1.8259 -0.4007 -0.6805
  149SAPE  C21516461  -0.027   1.543  18.484  0.3206 -0.0406  0.1992
  149SAPE  H15R16462  -0.067   1.543  18.587  0.4507 -1.0625  0.2547
  149SAPE  C21616463  -0.089   1.645  18.387 -0.1143 -0.5455 -0.1339
  149SAPE  H16R16464  -0.037   1.652  18.289 -1.4101  0.1907 -0.8006
  149SAPE  H16S16465  -0.089   1.746  18.435 -1.9498 -0.8445  0.5929
  149SAPE  C21716466  -0.232   1.610  18.348  0.0015 -0.1349  1.4865
  149SAPE  H17R16467  -0.299   1.564  18.424  0.0783 -2.1105  0.4224
  149SAPE  H17S16468  -0.227   1.540  18.262  0.5902 -0.9416  2.1628
  149SAPE  C21816469  -0.295   1.741  18.279 -0.5773  0.1821  0.1376
  149SAPE  H18R16470  -0.238   1.758  18.186 -1.8114  0.9415 -0.5115
  149SAPE  H18S16471  -0.283   1.816  18.360  1.0661 -0.0716  0.1644
  149SAPE  C21916472  -0.446   1.720  18.251 -0.7906  0.1295  0.4898
  149SAPE  H19R16473  -0.496   1.817  18.236 -0.7434 -0.3136 -3.5160
  149SAPE  H19S16474  -0.495   1.666  18.335 -1.2121 -2.2021 -1.1408
  149SAPE  C22016475  -0.474   1.635  18.121 -0.5665  0.1037 -0.4582
  149SAPE  H20R16476  -0.576   1.592  18.112 -0.9583  0.6681  1.0041
  149SAPE  H20S16477  -0.412   1.543  18.129  0.5700  0.8645 -0.2782
  149SAPE  H20T16478  -0.431   1.681  18.030  0.8804 -0.9317 -0.3479
  149SAPE   C3316479   0.556   1.396  17.226 -0.0397  0.0155 -0.3674
  149SAPE   H3X16480   0.645   1.417  17.164 -1.0917  1.6121 -1.4051
  149SAPE   H3Y16481   0.494   1.487  17.214  1.5355  0.9355 -1.8618
  149SAPE   C3416482   0.477   1.269  17.178 -0.7244 -0.5528  0.1153
  149SAPE   H4X16483   0.380   1.281  17.231 -0.5415 -0.1859  0.3639
  149SAPE   H4Y16484   0.536   1.183  17.215  0.6429  0.4894  0.4313
  149SAPE   C3516485   0.474   1.268  17.023  0.2203 -0.2767  0.0943
  149SAPE   H5X16486   0.584   1.266  17.005  0.4236  1.3017  0.9291
  149SAPE   H5Y16487   0.442   1.363  16.976  0.4378  0.3752  1.2226
  149SAPE   C3616488   0.412   1.150  16.949 -0.4047  0.3762  0.3964
  149SAPE   H6X16489   0.465   1.054  16.965  0.8495  0.9021 -0.4384
  149SAPE   H6Y16490   0.416   1.175  16.841  2.0690  2.4931  0.8909
  149SAPE   C3716491   0.264   1.117  16.982  0.8635  0.7175  0.4608
  149SAPE   H7X16492   0.249   1.109  17.092  0.5263  0.0601  0.3677
  149SAPE   H7Y16493   0.234   1.026  16.927  0.8561  1.6214 -1.0737
  149SAPE   C3816494   0.169   1.220  16.928  0.3198  0.3814  0.1674
  149SAPE   H8X16495   0.141   1.205  16.822 -0.1029  4.3533 -0.4514
  149SAPE   H8Y16496   0.226   1.314  16.910  1.5690 -0.6707 -1.7612
  149SAPE   C3916497   0.041   1.223  17.020  0.5910  1.2812  0.9912
  149SAPE   H9X16498   0.013   1.123  17.060  0.7322  0.3595 -1.0563
  149SAPE   H9Y16499  -0.049   1.260  16.967  0.4557 -0.9468 -0.4849
  149SAPE  C31016500   0.050   1.335  17.123 -0.1010 -0.3828 -0.6560
  149SAPE  H10X16501   0.077   1.433  17.079  1.9731 -0.5139  0.2126
  149SAPE  H10Y16502   0.128   1.310  17.197  0.8289  1.1296 -1.0766
  149SAPE  C31116503  -0.091   1.342  17.185 -0.1328  0.6924 -0.2715
  149SAPE  H11X16504  -0.127   1.243  17.218  2.1065 -0.8674 -2.2250
  149SAPE  H11Y16505  -0.168   1.367  17.110 -2.3267  1.1978  2.0189
  149SAPE  C31216506  -0.103   1.440  17.307  0.0024  0.2618 -0.8580
  149SAPE  H12X16507  -0.047   1.536  17.302  1.7392 -0.2502  4.0010
  149SAPE  H12Y16508  -0.065   1.394  17.400 -1.4308 -2.2421 -1.4226
  149SAPE  C31316509  -0.253   1.484  17.333 -0.6638  0.0917  0.4443
  149SAPE  H13X16510  -0.298   1.526  17.240  1.3060  3.8664  0.9771
  149SAPE  H13Y16511  -0.255   1.578  17.392 -2.2069  1.0669 -1.0699
  149SAPE  C31416512  -0.328   1.383  17.412 -0.2746  0.7084  0.3486
  149SAPE  H14X16513  -0.282   1.339  17.502  0.4564 -0.6813 -0.6591
  149SAPE  H14Y16514  -0.336   1.285  17.360 -0.4779  2.2856 -2.8683
  149SAPE  C31516515  -0.473   1.423  17.454  0.4723  0.6255  0.1430
  149SAPE  H15X16516  -0.485   1.530  17.479 -0.4048 -0.0170  2.9155
  149SAPE  H15Y16517  -0.491   1.379  17.555 -0.8002  1.1671  0.1809
  149SAPE  C31616518  -0.582   1.389  17.351 -0.0823 -0.3881 -1.2995
  149SAPE  H16X16519  -0.552   1.292  17.307  0.6851 -0.4369 -0.6753
  149SAPE  H16Y16520  -0.577   1.464  17.269 -0.3073  0.4696 -0.5469
  149SAPE  C31716521  -0.723   1.378  17.413  0.1809 -0.7127  0.4599
  149SAPE  H17X16522  -0.748   1.468  17.474  2.4098  0.4496 -0.2200
  149SAPE  H17Y16523  -0.728   1.293  17.483  2.1200 -1.0032  0.2763
  149SAPE  C31816524  -0.832   1.366  17.295  0.1085  0.5243  0.0099
  149SAPE  H18X16525  -0.825   1.269  17.243  0.9792  0.1939  0.7206
  149SAPE  H18Y16526  -0.835   1.453  17.226 -0.8619  1.4788  1.1985
  149SAPE  H18Z16527  -0.933   1.364  17.342 -0.6923  2.8757 -1.4411
  150SAPE     N16528   1.752   3.431  16.753  0.8362 -0.8040  0.2361
  150SAPE   HN116529   1.662   3.396  16.790 -0.5174  2.6425  0.5772
  150SAPE   HN216530   1.738   3.533  16.745 -2.2751 -1.1572  0.1792
  150SAPE   HN316531   1.749   3.395  16.655 -3.8061 -0.9155  0.1999
  150SAPE   C1216532   1.874   3.397  16.822  0.1929 -0.1167 -0.3225
  150SAPE  H12A16533   1.955   3.467  16.792 -0.4770  0.3592 -1.0277
  150SAPE  H12B16534   1.887   3.291  16.793  1.0522  0.1196 -0.8283
  150SAPE   C1116535   1.854   3.397  16.976 -0.1417  0.7112 -0.2529
  150SAPE  H11A16536   1.952   3.373  17.022 -0.6388 -0.4196  0.2623
  150SAPE  H11B16537   1.782   3.315  17.000  0.8407  0.1280  0.7847
  150SAPE     P16538   1.829   3.577  17.166 -0.0893 -0.1251  0.0596
  150SAPE   O1316539   1.788   3.718  17.177  0.2129 -0.2322 -0.2692
  150SAPE   O1416540   1.761   3.492  17.260  0.7138  0.4280  0.4888
  150SAPE   O1216541   1.797   3.522  17.018 -0.0168  0.0229  0.2682
  150SAPE   O1116542   1.988   3.560  17.178 -0.4430 -0.0405  0.2734
  150SAPE    C116543   2.071   3.654  17.102  0.4123  0.2972  0.3539
  150SAPE    HA16544   2.101   3.624  16.999  1.2922 -0.3624  0.7837
  150SAPE    HB16545   2.016   3.749  17.086  2.6921  1.6837  0.1852
  150SAPE    C216546   2.198   3.689  17.177  0.0002  0.6232  0.2890
  150SAPE    HS16547   2.263   3.755  17.116  0.4237 -0.9362 -0.9873
  150SAPE   O2116548   2.269   3.577  17.226 -0.5579  0.1695 -0.1427
  150SAPE   C2116549   2.348   3.515  17.142  0.0301 -0.3964  0.3068
  150SAPE   O2216550   2.344   3.539  17.017  0.2779  0.8280 -0.4943
  150SAPE   C2216551   2.428   3.404  17.210  0.3926  0.3160 -0.3444
  150SAPE   H2R16552   2.515   3.456  17.256 -0.2276  0.3079  0.8884
  150SAPE   H2S16553   2.359   3.367  17.289  0.4586  0.4892 -0.2027
  150SAPE    C316554   2.156   3.785  17.293 -0.9054  0.2846  0.1629
  150SAPE    HX16555   2.100   3.721  17.365 -0.7275  1.0651  1.0207
  150SAPE    HY16556   2.080   3.853  17.248 -0.7553  0.3956  0.0758
  150SAPE   O3116557   2.270   3.857  17.354  0.6112 -0.2722 -0.0704
  150SAPE   C3116558   2.279   3.977  17.307 -0.1946  0.2248 -0.4037
  150SAPE   O3216559   2.206   4.029  17.225 -0.6363  0.0373  0.2784
  150SAPE   C3216560   2.389   4.044  17.388 -0.1961  0.5097  0.1314
  150SAPE   H2X16561   2.407   4.148  17.355  1.4196  0.5254  0.9914
  150SAPE   H2Y16562   2.481   3.982  17.376 -0.4851  0.1467 -0.2498
  150SAPE   C2316563   2.469   3.296  17.108 -1.1532 -0.3662 -0.6288
  150SAPE   H3R16564   2.516   3.338  17.017 -1.7262  2.8929  0.4345
  150SAPE   H3S16565   2.372   3.263  17.065 -1.2795  1.4494 -1.8414
  150SAPE   C2416566   2.549   3.186  17.182  0.4169  0.4016 -0.4444
  150SAPE   H4R16567   2.487   3.136  17.260  0.5192  0.2629 -0.4517
  150SAPE   H4S16568   2.635   3.241  17.225 -1.2567  0.2416  3.6514
  150SAPE   C2516569   2.602   3.085  17.084 -0.6532  0.0985  0.0535
  150SAPE   H5R16570   2.522   3.024  17.041  2.3198 -4.2321  0.0067
  150SAPE   C2616571   2.732   3.060  17.054 -0.3853 -0.1510  0.0821
  150SAPE   H6R16572   2.763   2.983  16.982  0.9484  0.0026  0.4619
  150SAPE   C2716573   2.853   3.144  17.106  0.1810  0.3960  0.6035
  150SAPE   H7R16574   2.901   3.090  17.190 -1.1283 -1.3959  0.2630
  150SAPE   H7S16575   2.814   3.239  17.147 -3.4460 -0.7319  0.0955
  150SAPE   C2816576   2.961   3.156  17.003 -0.6274  0.1443  0.4802
  150SAPE   H8R16577   3.002   3.058  16.974 -0.1205  0.6320 -0.5048
  150SAPE   C2916578   3.019   3.267  16.951  0.3816 -0.1631  0.9890
  150SAPE   H9R16579   3.085   3.262  16.863 -0.4784  0.7363  0.2670
  150SAPE  C21016580   2.984   3.403  16.994 -0.0078  0.7904 -0.3410
  150SAPE  H10R16581   3.067   3.437  17.060 -0.5043  1.0005  0.1812
  150SAPE  H10S16582   2.897   3.433  17.056 -1.6108  0.2545 -2.2040
  150SAPE  C21116583   2.957   3.490  16.877  0.7007  0.0561  0.6447
  150SAPE  H11R16584   2.859   3.465  16.834  1.4382  0.9053 -1.6989
  150SAPE  C21216585   3.011   3.609  16.831  0.2926 -0.4077 -1.2045
  150SAPE  H12R16586   2.987   3.641  16.728  1.9565  3.5218 -0.5157
  150SAPE  C21316587   3.142   3.664  16.896  0.6214 -0.4400 -0.3321
  150SAPE  H13R16588   3.223   3.594  16.865  0.1435 -0.6118 -1.2459
  150SAPE  H13S16589   3.142   3.657  17.006 -0.6637  3.4795  0.0840
  150SAPE  C21416590   3.162   3.816  16.857  0.1733 -0.1643  0.1017
  150SAPE  H14R16591   3.132   3.882  16.940 -0.8736  0.2496 -0.5766
  150SAPE  C21516592   3.197   3.858  16.734 -0.4254 -0.0348  0.7738
  150SAPE  H15R16593   3.212   3.965  16.715  1.8175 -0.7356 -2.0186
  150SAPE  C21616594   3.229   3.777  16.609  0.2268 -0.0905 -0.1387
  150SAPE  H16R16595   3.214   3.668  16.628  0.3124 -0.5151 -2.2492
  150SAPE  H16S16596   3.339   3.791  16.601  0.2189  1.6256  1.7603
  150SAPE  C21716597   3.143   3.811  16.489  0.2284  0.0303  0.3454
  150SAPE  H17R16598   3.035   3.792  16.507  0.3422  0.8052  2.0032
  150SAPE  H17S16599   3.173   3.745  16.405 -1.1338  0.9368 -0.9204
  150SAPE  C21816600   3.158   3.949  16.429  0.0696  0.2891  0.1744
  150SAPE  H18R16601   3.263   3.941  16.392  0.2921  0.9146  0.6483
  150SAPE  H18S16602   3.141   4.019  16.514 -0.8773 -1.7142  1.7163
  150SAPE  C21916603   3.056   3.976  16.317 -0.5907  0.9809  0.2586
  150SAPE  H19R16604   2.959   3.939  16.358 -1.0792 -0.2105 -1.8531
  150SAPE  H19S16605   3.085   3.924  16.223 -0.1963 -1.7730  1.7727
  150SAPE  C22016606   3.038   4.126  16.297  0.4459  0.2282 -0.1363
  150SAPE  H20R16607   2.959   4.146  16.222  0.8141  2.6729  0.0473
  150SAPE  H20S16608   3.141   4.158  16.269  1.4924 -0.8546  2.2028
  150SAPE  H20T16609   3.012   4.188  16.385 -0.9846  1.3476 -1.3058
  150SAPE   C3316610   2.358   4.043  17.537  0.0413  0.3192 -0.1712
  150SAPE   H3X16611   2.370   3.946  17.589  0.6324  0.7635  0.5431
  150SAPE   H3Y16612   2.261   4.092  17.558  0.4022  2.3662 -2.7394
  150SAPE   C3416613   2.458   4.142  17.607  0.2027  0.1411 -0.4983
  150SAPE   H4X16614   2.437   4.133  17.716 -1.4855 -1.4693 -0.9102
  150SAPE   H4Y16615   2.454   4.246  17.569  0.2427  0.0870 -0.6518
  150SAPE   C3516616   2.604   4.096  17.598  0.9112 -0.1503 -0.1458
  150SAPE   H5X16617   2.649   4.102  17.496  1.3645 -2.1562 -0.1077
  150SAPE   H5Y16618   2.596   3.989  17.626 -1.1998  0.3227  1.3003
  150SAPE   C3616619   2.700   4.172  17.690 -1.0469 -0.4643  0.2581
  150SAPE   H6X16620   2.729   4.267  17.639 -3.1251 -0.7828 -1.6826
  150SAPE   H6Y16621   2.793   4.111  17.681 -1.5511 -0.9006 -4.2201
  150SAPE   C3716622   2.671   4.190  17.843  0.4559 -0.1151  0.1775
  150SAPE   H7X16623   2.649   4.088  17.883 -0.8113  0.4333  0.9213
  150SAPE   H7Y16624   2.582   4.254  17.859 -1.1113 -1.6786 -1.7164
  150SAPE   C3816625   2.783   4.255  17.917 -0.1957  0.0805 -0.2756
  150SAPE   H8X16626   2.768   4.284  18.023  2.3461  2.2376 -0.4177
  150SAPE   H8Y16627   2.810   4.352  17.870 -0.7311 -0.1640 -1.1119
  150SAPE   C3916628   2.910   4.164  17.914  0.1183  0.8110  0.1480
  150SAPE   H9X16629   2.940   4.156  17.808 -1.8407 -2.0183 -0.2966
  150SAPE   H9Y16630   2.882   4.067  17.960  1.1121  1.5260  2.3907
  150SAPE  C31016631   3.028   4.234  17.986 -0.3893  0.0798  0.1143
  150SAPE  H10X16632   3.024   4.212  18.095 -0.5344  0.4222  0.1802
  150SAPE  H10Y16633   3.014   4.344  17.981  0.7049  0.2443  0.3325
  150SAPE  C31116634   3.161   4.198  17.907  0.6632  0.0205 -0.6372
  150SAPE  H11X16635   3.129   4.231  17.806 -2.1081  0.3198  0.2681
  150SAPE  H11Y16636   3.185   4.089  17.910  0.7613  0.0515  2.0439
  150SAPE  C31216637   3.292   4.258  17.956  0.1395 -0.0338  0.0428
  150SAPE  H12X16638   3.342   4.192  18.030  0.4636  0.0023 -0.1405
  150SAPE  H12Y16639   3.268   4.355  18.004 -2.0479 -0.5447  0.0805
  150SAPE  C31316640   3.400   4.273  17.852  0.5744  0.7937 -0.1935
  150SAPE  H13X16641   3.363   4.343  17.774 -3.0880  1.4519  1.9285
  150SAPE  H13Y16642   3.415   4.172  17.808  1.4552  0.7006  0.2961
  150SAPE  C31416643   3.527   4.321  17.916 -0.1729 -0.1058 -1.1844
  150SAPE  H14X16644   3.523   4.430  17.939  2.2815 -0.7252  3.1999
  150SAPE  H14Y16645   3.602   4.327  17.834  0.0924  1.5575 -0.8674
  150SAPE  C31516646   3.580   4.251  18.045 -0.3325  0.8294  0.5245
  150SAPE  H15X16647   3.590   4.143  18.022  0.5648  1.1480 -0.6668
  150SAPE  H15Y16648   3.500   4.266  18.121 -0.4898  1.4932  0.2424
  150SAPE  C31616649   3.709   4.310  18.094 -0.8921 -0.0139  0.0827
  150SAPE  H16X16650   3.710   4.420  18.084 -2.3114 -0.0013 -0.0607
  150SAPE  H16Y16651   3.792   4.279  18.027 -0.8448 -2.1629  1.0440
  150SAPE  C31716652   3.757   4.266  18.237 -0.4543  0.7070  0.0762
  150SAPE  H17X16653   3.795   4.163  18.218 -1.3423  0.6683 -1.7590
  150SAPE  H17Y16654   3.659   4.269  18.290 -0.5268 -0.6575  0.0562
  150SAPE  C31816655   3.865   4.357  18.306  0.3620  0.5801  0.2152
  150SAPE  H18X16656   3.955   4.334  18.246  0.2456  1.8667 -0.4908
  150SAPE  H18Y16657   3.880   4.327  18.412 -0.4632 -1.2021 -0.1351
  150SAPE  H18Z16658   3.832   4.463  18.300  0.8716  0.6638 -1.9735
  151SAPE     N16659   1.639   1.938  18.481  0.0562  0.6896 -0.4027
  151SAPE   HN116660   1.709   1.878  18.528  2.6468  2.5252 -1.6607
  151SAPE   HN216661   1.642   2.035  18.518  0.5264  0.3206  0.5452
  151SAPE   HN316662   1.545   1.904  18.509  0.4448 -1.0356 -1.0221
  151SAPE   C1216663   1.662   1.936  18.333 -0.5295 -0.4050 -0.5419
  151SAPE  H12A16664   1.702   1.841  18.294  0.5620  0.1012 -0.6807
  151SAPE  H12B16665   1.737   2.015  18.313  1.8345 -2.2172  0.6453
  151SAPE   C1116666   1.521   1.966  18.265 -0.2882  0.9603  0.4895
  151SAPE  H11A16667   1.555   1.968  18.159  2.2288 -3.9579  0.9157
  151SAPE  H11B16668   1.489   2.067  18.299  2.8262  1.6567  1.6833
  151SAPE     P16669   1.352   1.775  18.197  0.6190  0.1515 -0.2037
  151SAPE   O1316670   1.422   1.769  18.068  0.3226 -0.7004 -1.0027
  151SAPE   O1416671   1.318   1.642  18.261 -0.2468 -0.2826  0.5621
  151SAPE   O1216672   1.437   1.859  18.296 -0.3646 -0.6596  0.0593
  151SAPE   O1116673   1.221   1.853  18.183  0.0236 -0.5119 -0.3263
  151SAPE    C116674   1.181   1.969  18.259 -1.2614  0.2293  0.0321
  151SAPE    HA16675   1.258   2.049  18.266 -1.1693  0.0523  1.1542
  151SAPE    HB16676   1.103   2.025  18.203 -1.7341  0.7488  1.1967
  151SAPE    C216677   1.117   1.934  18.401 -0.5711 -0.3891  0.3303
  151SAPE    HS16678   1.190   1.869  18.453 -0.0475  0.5086  0.7417
  151SAPE   O2116679   0.991   1.872  18.372 -0.5144 -0.5258 -0.0937
  151SAPE   C2116680   0.970   1.753  18.421  0.5736 -0.5089 -1.0760
  151SAPE   O2216681   1.026   1.706  18.518 -0.3655 -0.0931 -0.2407
  151SAPE   C2216682   0.862   1.690  18.346 -0.2588 -0.3712  0.3638
  151SAPE   H2R16683   0.801   1.636  18.422 -2.0400  1.8928  0.6503
  151SAPE   H2S16684   0.792   1.770  18.312  0.4516  0.9345  1.8663
  151SAPE    C316685   1.093   2.059  18.476  0.0539 -0.4711  0.6513
  151SAPE    HX16686   1.032   2.126  18.411  0.7549 -1.5214 -1.1521
  151SAPE    HY16687   1.192   2.104  18.497 -0.9077  1.5819  1.0582
  151SAPE   O3116688   1.047   2.032  18.608 -0.6028 -0.4202 -0.4592
  151SAPE   C3116689   1.005   2.139  18.679  0.6711  0.0546  0.0254
  151SAPE   O3216690   1.003   2.253  18.633  0.2054 -0.0819  0.0075
  151SAPE   C3216691   0.951   2.098  18.817  0.1715 -0.2825  0.2119
  151SAPE   H2X16692   0.845   2.131  18.822  0.1404 -0.2661 -0.5697
  151SAPE   H2Y16693   1.013   2.158  18.887  1.5645 -2.9074  1.3638
  151SAPE   C2316694   0.912   1.603  18.232  0.2673  0.3986 -0.1907
  151SAPE   H3R16695   0.982   1.526  18.271 -2.5978 -2.4516 -0.2380
  151SAPE   H3S16696   0.971   1.674  18.170 -1.2654  0.5141 -1.5679
  151SAPE   C2416697   0.806   1.544  18.137  0.0767  0.2904 -0.4001
  151SAPE   H4R16698   0.743   1.626  18.097 -1.2904 -1.0676 -1.1338
  151SAPE   H4S16699   0.734   1.483  18.197  1.6776 -0.2876  1.0193
  151SAPE   C2516700   0.870   1.462  18.025 -0.6884 -0.1982  0.8395
  151SAPE   H5R16701   0.979   1.477  18.020 -1.0617  3.1668  0.5319
  151SAPE   C2616702   0.818   1.374  17.935 -0.4878 -0.7585  0.0221
  151SAPE   H6R16703   0.881   1.318  17.864  2.3196  2.1769 -0.0308
  151SAPE   C2716704   0.668   1.343  17.934 -0.0351  0.5060 -0.4867
  151SAPE   H7R16705   0.607   1.432  17.960 -0.7612  0.5122 -2.0846
  151SAPE   H7S16706   0.644   1.267  18.011 -0.1047 -1.3200 -2.2045
  151SAPE   C2816707   0.625   1.289  17.803 -0.2876  0.0891 -0.1505
  151SAPE   H8R16708   0.695   1.314  17.722  1.0781  1.6175  1.4069
  151SAPE   C2916709   0.506   1.233  17.772  0.6910 -0.5080 -0.3479
  151SAPE   H9R16710   0.483   1.203  17.668  0.1293 -1.5926  0.0765
  151SAPE  C21016711   0.400   1.199  17.878 -0.9078  0.6478  0.7397
  151SAPE  H10R16712   0.322   1.278  17.888 -1.7505  0.0082 -0.5441
  151SAPE  H10S16713   0.450   1.186  17.977  1.6090 -1.1335 -0.6640
  151SAPE  C21116714   0.336   1.064  17.857  0.0431  0.8263  0.0747
  151SAPE  H11R16715   0.409   0.982  17.842  1.5531  2.2976 -1.0593
  151SAPE  C21216716   0.207   1.032  17.870 -0.4440  0.5439 -0.0846
  151SAPE  H12R16717   0.174   0.931  17.842 -0.4686  1.3419 -3.3214
  151SAPE  C21316718   0.097   1.130  17.873  0.6569 -0.2705 -0.8454
  151SAPE  H13R16719   0.071   1.167  17.772  0.4430  2.4406  0.1174
  151SAPE  H13S16720   0.141   1.227  17.907  3.5543 -1.6571 -0.3267
  151SAPE  C21416721  -0.014   1.095  17.969  0.0897 -0.8456 -0.6281
  151SAPE  H14R16722   0.003   1.002  18.025  0.1077 -1.2810 -1.3611
  151SAPE  C21516723  -0.113   1.173  18.017 -0.3911 -0.1479 -0.1230
  151SAPE  H15R16724  -0.177   1.132  18.096 -0.6054 -1.4612 -0.9443
  151SAPE  C21616725  -0.155   1.310  17.976 -0.5965  0.2517 -0.2958
  151SAPE  H16R16726  -0.090   1.340  17.891 -0.0102  0.9110  0.3765
  151SAPE  H16S16727  -0.142   1.378  18.062  2.1008 -0.9240  0.3181
  151SAPE  C21716728  -0.302   1.334  17.937 -0.0699 -0.1067  0.5774
  151SAPE  H17R16729  -0.310   1.434  17.888  1.3108 -0.8284 -1.1868
  151SAPE  H17S16730  -0.366   1.339  18.028 -2.4407  1.6972 -1.0568
  151SAPE  C21816731  -0.360   1.229  17.842 -0.7247  0.6489 -1.0063
  151SAPE  H18R16732  -0.334   1.126  17.873 -0.4253  0.9595 -0.2053
  151SAPE  H18S16733  -0.305   1.238  17.746  1.6310  0.1642  0.2101
  151SAPE  C21916734  -0.508   1.242  17.836  0.2294  0.0107 -0.1957
  151SAPE  H19R16735  -0.536   1.344  17.800  3.6926  1.5301  0.9837
  151SAPE  H19S16736  -0.544   1.209  17.935 -2.4380 -0.0743 -1.1242
  151SAPE  C22016737  -0.563   1.138  17.743  0.0267  0.2764  0.4078
  151SAPE  H20R16738  -0.674   1.141  17.750 -0.0514 -1.2603  0.1781
  151SAPE  H20S16739  -0.546   1.156  17.635 -2.0481  0.3789  0.0456
  151SAPE  H20T16740  -0.534   1.035  17.772 -0.9094 -0.2555 -0.4617
  151SAPE   C3316741   0.981   1.952  18.854 -0.5643  0.0918 -1.2912
  151SAPE   H3X16742   1.088   1.922  18.849 -0.5662 -0.2234  0.2621
  151SAPE   H3Y16743   0.949   1.879  18.776 -0.3193 -3.7313  1.8852
  151SAPE   C3416744   0.940   1.902  18.990  0.0495  0.2936  0.0157
  151SAPE   H4X16745   0.957   1.793  18.989 -2.3592 -0.1168 -0.9746
  151SAPE   H4Y16746   0.830   1.912  18.992 -0.2256 -2.0531 -0.6109
  151SAPE   C3516747   1.012   1.964  19.115 -0.2177  0.1296 -0.0660
  151SAPE   H5X16748   0.978   1.909  19.205  1.8636 -0.7684  0.2364
  151SAPE   H5Y16749   0.973   2.066  19.131 -2.0225 -0.4119 -0.7717
  151SAPE   C3616750   1.165   1.968  19.112  0.6199 -0.1168 -0.1079
  151SAPE   H6X16751   1.209   2.033  19.034  0.9422 -1.0216 -0.7056
  151SAPE   H6Y16752   1.186   1.861  19.088 -0.9937 -0.1183 -1.8159
  151SAPE   C3716753   1.219   2.016  19.245  0.2207 -0.7257 -0.7157
  151SAPE   H7X16754   1.189   1.954  19.333  0.1085  0.3359  0.0111
  151SAPE   H7Y16755   1.179   2.116  19.272 -1.9051 -1.5739 -0.4984
  151SAPE   C3816756   1.371   2.034  19.260  0.3525  0.1302 -0.0207
  151SAPE   H8X16757   1.404   2.089  19.169  1.6212 -0.7975 -0.1500
  151SAPE   H8Y16758   1.428   1.939  19.254 -0.2731 -0.1907 -1.5185
  151SAPE   C3916759   1.416   2.117  19.386 -0.1851  0.8044 -0.0375
  151SAPE   H9X16760   1.387   2.224  19.375 -0.6636  0.4926 -2.3131
  151SAPE   H9Y16761   1.527   2.114  19.390  0.1528 -1.7348 -4.3493
  151SAPE  C31016762   1.349   2.061  19.512  0.3811 -0.4762  0.9808
  151SAPE  H10X16763   1.360   1.950  19.512 -0.7729 -0.6062 -0.2549
  151SAPE  H10Y16764   1.240   2.081  19.517  0.5709  0.4380  1.9490
  151SAPE  C31116765   1.404   2.121  19.638 -0.0731  0.7706  0.0477
  151SAPE  H11X16766   1.400   2.232  19.640  3.0102  0.9486  0.1299
  151SAPE  H11Y16767   1.512   2.095  19.636 -0.1738  0.3549 -0.7174
  151SAPE  C31216768   1.329   2.058  19.759  0.0139  0.0246  0.3532
  151SAPE  H12X16769   1.352   1.950  19.747 -0.4087 -0.1320  0.9152
  151SAPE  H12Y16770   1.217   2.055  19.759 -0.0046 -0.3333 -1.4119
  151SAPE  C31316771   1.375   2.122  19.890 -0.1670 -0.1277  0.1885
  151SAPE  H13X16772   1.362   2.233  19.890  0.8289  0.0206 -1.1738
  151SAPE  H13Y16773   1.485   2.107  19.895  0.6912  4.5452  0.3268
  151SAPE  C31416774   1.301   2.057  20.006  0.5956 -0.1832  0.6205
  151SAPE  H14X16775   1.301   1.947  19.990  0.7109 -0.0187 -0.6492
  151SAPE  H14Y16776   1.195   2.085  19.986  1.2204  2.8249  0.9148
  151SAPE  C31516777   1.359   2.116  20.135  0.0110  0.1301 -0.5308
  151SAPE  H15X16778   1.284   2.094  20.214  0.1485  4.1208  0.9332
  151SAPE  H15Y16779   1.350   2.226  20.139 -0.1264  0.0793  1.6045
  151SAPE  C31616780   1.492   2.061  20.182  0.2051  0.7107  0.8028
  151SAPE  H16X16781   1.567   2.134  20.143 -1.0908  0.8306 -1.6770
  151SAPE  H16Y16782   1.507   1.958  20.144 -0.7560  1.2086 -1.0709
  151SAPE  C31716783   1.496   2.069  20.337  0.2181 -0.3667  0.4045
  151SAPE  H17X16784   1.415   2.001  20.371 -2.3672  1.1534 -2.3090
  151SAPE  H17Y16785   1.487   2.172  20.377  3.6189 -0.5131  1.9509
  151SAPE  C31816786   1.630   2.023  20.382  0.7761  0.4912 -0.2048
  151SAPE  H18X16787   1.644   2.045  20.490 -1.7943  2.2104 -0.1170
  151SAPE  H18Y16788   1.703   2.084  20.325 -0.3428  0.1251 -2.1222
  151SAPE  H18Z16789   1.645   1.914  20.369  0.2797  0.4706 -0.6175
  152SAPE     N16790   4.250   2.175  12.958  0.0291 -0.4882 -0.5560
  152SAPE   HN116791   4.278   2.124  12.872 -2.0836 -0.4873 -1.3050
  152SAPE   HN216792   4.326   2.154  13.025 -0.4729  2.3590  1.0791
  152SAPE   HN316793   4.162   2.132  12.994 -0.7794  0.4432 -1.3317
  152SAPE   C1216794   4.220   2.320  12.927 -0.1911 -0.1776 -0.1028
  152SAPE  H12A16795   4.276   2.348  12.835  1.0327  0.8169  0.9054
  152SAPE  H12B16796   4.266   2.384  13.005 -4.4767  2.0614  0.8754
  152SAPE   C1116797   4.071   2.346  12.915  0.0822  0.2734  0.3880
  152SAPE  H11A16798   4.057   2.456  12.908 -4.6626 -0.2524 -2.8553
  152SAPE  H11B16799   4.017   2.313  13.006 -0.5597  2.4259  0.8402
  152SAPE     P16800   3.945   2.140  12.798  0.2339  0.2071  0.4134
  152SAPE   O1316801   3.799   2.170  12.808  0.4586  0.0868 -0.0912
  152SAPE   O1416802   3.994   2.061  12.682 -0.3431  0.0914  0.9015
  152SAPE   O1216803   4.013   2.287  12.795 -0.3344  0.5070 -0.2096
  152SAPE   O1116804   4.002   2.087  12.941  0.1424  0.5897  0.6216
  152SAPE    C116805   3.979   1.941  12.964 -0.3621 -0.7930 -0.9160
  152SAPE    HA16806   3.949   1.880  12.876 -0.3266 -0.8172 -0.9116
  152SAPE    HB16807   4.076   1.894  12.990 -0.5218  0.0178  1.3791
  152SAPE    C216808   3.889   1.923  13.089  0.0201 -0.1664  0.5483
  152SAPE    HS16809   3.908   1.821  13.127  1.0511  1.1078  3.8442
  152SAPE   O2116810   3.751   1.938  13.040  0.1751  0.0361  0.3694
  152SAPE   C2116811   3.656   1.882  13.108 -0.0967 -0.7820  0.5669
  152SAPE   O2216812   3.670   1.817  13.210  0.3735  0.0444 -0.5514
  152SAPE   C2216813   3.526   1.910  13.041  0.0494  0.0155 -0.2277
  152SAPE   H2R16814   3.506   2.016  13.068 -0.0092 -0.4906  1.9280
  152SAPE   H2S16815   3.527   1.900  12.930  1.6022 -1.0670 -0.1459
  152SAPE    C316816   3.934   2.025  13.202 -0.3552  0.3599 -0.1098
  152SAPE    HX16817   3.945   2.131  13.172 -0.9744  1.1394  2.1733
  152SAPE    HY16818   4.035   1.987  13.230 -0.9662  0.6957  2.9334
  152SAPE   O3116819   3.862   2.021  13.322 -0.1398 -0.4133 -0.4029
  152SAPE   C3116820   3.762   2.100  13.340  0.3695 -0.1341 -0.2319
  152SAPE   O3216821   3.728   2.185  13.269  0.6353 -0.2233  0.0090
  152SAPE   C3216822   3.702   2.071  13.482  0.2034  0.3709 -0.0542
  152SAPE   H2X16823   3.674   2.170  13.522  0.7242  0.5106 -0.0360
  152SAPE   H2Y16824   3.783   2.035  13.549  0.2679 -0.2247 -0.4408
  152SAPE   C2316825   3.416   1.827  13.106  0.0128 -0.4404  0.1796
  152SAPE   H3R16826   3.449   1.735  13.159 -0.9900 -0.2634  1.1697
  152SAPE   H3S16827   3.353   1.787  13.024 -0.9446  1.3276 -0.0103
  152SAPE   C2416828   3.329   1.913  13.206  0.1867 -0.0627  0.8515
  152SAPE   H4R16829   3.411   1.946  13.273  0.4665  0.7784  0.1218
  152SAPE   H4S16830   3.256   1.842  13.250  0.8834  0.3539  2.7647
  152SAPE   C2516831   3.254   2.036  13.143 -0.2643 -0.4801 -0.4235
  152SAPE   H5R16832   3.164   2.001  13.091 -0.8234 -2.3458  1.6338
  152SAPE   C2616833   3.284   2.166  13.168 -1.3368  0.8526 -0.3079
  152SAPE   H6R16834   3.223   2.247  13.124  0.9200  1.0213 -3.4975
  152SAPE   C2716835   3.385   2.218  13.268 -0.4860  0.0445 -0.2091
  152SAPE   H7R16836   3.487   2.174  13.260 -0.5506 -0.3120  0.7428
  152SAPE   H7S16837   3.356   2.186  13.371  2.0166  1.6563  1.0943
  152SAPE   C2816838   3.395   2.371  13.275 -0.5160 -0.5349 -0.1160
  152SAPE   H8R16839   3.394   2.412  13.172 -2.0801 -3.3145 -1.3160
  152SAPE   C2916840   3.429   2.444  13.379  0.6334  0.5897 -0.3144
  152SAPE   H9R16841   3.427   2.554  13.371  0.6409  0.6909  0.8421
  152SAPE  C21016842   3.420   2.393  13.519  0.1157 -0.5999 -0.3529
  152SAPE  H10R16843   3.501   2.319  13.537  0.5344  0.1609  1.0777
  152SAPE  H10S16844   3.326   2.335  13.535 -0.4621  0.2459 -0.6507
  152SAPE  C21116845   3.426   2.508  13.625  0.4538 -0.0909 -0.1566
  152SAPE  H11R16846   3.323   2.545  13.636  0.2376 -0.9922  1.2584
  152SAPE  C21216847   3.534   2.551  13.701 -0.3377  0.2272  0.5948
  152SAPE  H12R16848   3.522   2.637  13.770  0.8265  1.9100 -1.1859
  152SAPE  C21316849   3.673   2.490  13.676  0.5120  0.1644 -0.3834
  152SAPE  H13R16850   3.707   2.534  13.579 -0.3186 -0.9524 -1.2074
  152SAPE  H13S16851   3.661   2.386  13.639  3.9599 -0.1131 -1.0599
  152SAPE  C21416852   3.769   2.510  13.787  0.4012 -0.2633  0.2711
  152SAPE  H14R16853   3.839   2.594  13.773 -1.3962  1.1238 -0.8752
  152SAPE  C21516854   3.761   2.440  13.900 -0.5711  0.6962  0.9196
  152SAPE  H15R16855   3.831   2.455  13.983  0.1005 -3.0614  1.2427
  152SAPE  C21616856   3.668   2.329  13.921 -0.1131  0.0248 -0.0288
  152SAPE  H16R16857   3.642   2.270  13.831  0.2171  0.1754 -0.2253
  152SAPE  H16S16858   3.565   2.360  13.949 -0.4737 -1.8413  0.8812
  152SAPE  C21716859   3.721   2.222  14.029  0.6793  0.4085 -0.2268
  152SAPE  H17R16860   3.757   2.266  14.124  0.4659 -1.6093  0.8500
  152SAPE  H17S16861   3.813   2.190  13.977  0.8065  3.6593 -2.3247
  152SAPE  C21816862   3.626   2.106  14.061  0.5999 -0.6336 -0.0169
  152SAPE  H18R16863   3.589   2.053  13.970 -1.0910 -0.6637  0.6526
  152SAPE  H18S16864   3.538   2.150  14.113 -0.6779 -1.9147 -0.9873
  152SAPE  C21916865   3.690   2.003  14.152  0.1265  0.8044  0.4104
  152SAPE  H19R16866   3.715   2.076  14.233 -1.1693  1.4540  0.2400
  152SAPE  H19S16867   3.784   1.958  14.114 -0.7752 -1.8497  1.1156
  152SAPE  C22016868   3.590   1.901  14.212 -0.3675 -0.4254 -0.0904
  152SAPE  H20R16869   3.646   1.833  14.279  1.2460  1.1853  0.2851
  152SAPE  H20S16870   3.538   1.852  14.126 -3.3655  2.7094 -0.2801
  152SAPE  H20T16871   3.504   1.950  14.263 -0.4490  0.2643 -0.8634
  152SAPE   C3316872   3.586   1.975  13.495 -0.3054 -0.6198 -0.4011
  152SAPE   H3X16873   3.629   1.878  13.465  1.1879 -0.7488  1.8667
  152SAPE   H3Y16874   3.506   2.016  13.430 -0.1104 -0.3244 -0.4583
  152SAPE   C3416875   3.538   1.953  13.637  0.7398 -0.3304  0.2126
  152SAPE   H4X16876   3.436   1.997  13.642  1.0221  0.9746 -3.0078
  152SAPE   H4Y16877   3.607   1.999  13.710  0.5248  1.6677 -0.7568
  152SAPE   C3516878   3.542   1.809  13.672  0.4106 -0.7456  0.0697
  152SAPE   H5X16879   3.643   1.769  13.648  0.9016  0.6798 -0.3033
  152SAPE   H5Y16880   3.472   1.754  13.605 -0.1309 -1.9924  1.6035
  152SAPE   C3616881   3.497   1.775  13.816  0.3085  0.0626  0.6616
  152SAPE   H6X16882   3.395   1.807  13.845  0.1659 -0.7381  1.0804
  152SAPE   H6Y16883   3.554   1.836  13.889 -0.0323  0.1125  0.8889
  152SAPE   C3716884   3.516   1.628  13.852 -0.6530 -0.4145 -0.5958
  152SAPE   H7X16885   3.457   1.556  13.791 -0.3736 -0.6047 -0.6421
  152SAPE   H7Y16886   3.479   1.619  13.957  1.6111  1.8350  0.4952
  152SAPE   C3816887   3.667   1.583  13.853 -0.7829  0.9611  0.3068
  152SAPE   H8X16888   3.721   1.654  13.919 -2.2550  2.2017  0.2381
  152SAPE   H8Y16889   3.706   1.599  13.750 -1.8533 -0.8599 -0.4255
  152SAPE   C3916890   3.683   1.437  13.873  0.6436 -0.6978  0.0040
  152SAPE   H9X16891   3.614   1.404  13.953 -0.4452 -0.4374 -0.8044
  152SAPE   H9Y16892   3.787   1.410  13.902  0.6554 -1.0726 -0.3752
  152SAPE  C31016893   3.650   1.350  13.742  0.5689 -0.1108 -0.1657
  152SAPE  H10X16894   3.670   1.411  13.651 -1.0600 -0.2799 -0.6781
  152SAPE  H10Y16895   3.540   1.330  13.740  0.2287  1.6507 -1.4834
  152SAPE  C31116896   3.699   1.209  13.743 -0.1976 -0.1838  0.3343
  152SAPE  H11X16897   3.683   1.179  13.848  0.2271  0.6087  0.6341
  152SAPE  H11Y16898   3.810   1.202  13.730 -0.2485 -0.3738 -0.0206
  152SAPE  C31216899   3.631   1.112  13.646 -0.5674 -0.1611 -0.0526
  152SAPE  H12X16900   3.653   1.137  13.540 -1.6500 -2.9903 -1.0401
  152SAPE  H12Y16901   3.520   1.112  13.659 -0.4444  1.7633  1.3949
  152SAPE  C31316902   3.678   0.957  13.662  0.0661 -0.5693 -0.3534
  152SAPE  H13X16903   3.789   0.949  13.666 -0.0829 -2.3286  1.3754
  152SAPE  H13Y16904   3.641   0.897  13.577 -0.9097  0.1143 -0.4234
  152SAPE  C31416905   3.633   0.889  13.788 -0.0199 -0.0346 -0.2888
  152SAPE  H14X16906   3.523   0.878  13.795  0.0545 -1.0480 -0.4592
  152SAPE  H14Y16907   3.681   0.941  13.874 -0.5365 -0.8742  0.5222
  152SAPE  C31516908   3.671   0.738  13.810 -0.9903 -0.6770 -0.1820
  152SAPE  H15X16909   3.617   0.681  13.732 -0.2791  0.6743 -1.7047
  152SAPE  H15Y16910   3.629   0.703  13.907  0.2226  0.3389  0.7489
  152SAPE  C31616911   3.818   0.695  13.800 -0.3281 -0.0802  0.3809
  152SAPE  H16X16912   3.875   0.779  13.845 -1.0737  1.8488 -2.0077
  152SAPE  H16Y16913   3.845   0.689  13.693  0.4397  0.4921  0.5371
  152SAPE  C31716914   3.832   0.561  13.877 -0.2439 -0.4329  0.1272
  152SAPE  H17X16915   3.741   0.500  13.858 -1.0898  0.6984  0.3754
  152SAPE  H17Y16916   3.811   0.580  13.985  1.9008 -0.0472  0.5057
  152SAPE  C31816917   3.962   0.492  13.865 -0.9179 -0.1127  0.7669
  152SAPE  H18X16918   3.979   0.470  13.758 -2.2255 -0.6475  0.6517
  152SAPE  H18Y16919   3.967   0.392  13.913  1.5757 -0.9526 -1.0178
  152SAPE  H18Z16920   4.045   0.554  13.906 -1.0558 -0.4507  1.5735
  153SAPE     N16921   1.364   4.299  17.199 -0.7848 -0.1936  0.7093
  153SAPE   HN116922   1.411   4.374  17.145 -1.9888  0.6440  0.7925
  153SAPE   HN216923   1.358   4.213  17.141  1.3062  0.2539 -0.2835
  153SAPE   HN316924   1.278   4.330  17.250 -1.0588 -0.5258  0.4539
  153SAPE   C1216925   1.451   4.264  17.320  0.5795 -0.0752  0.7035
  153SAPE  H12A16926   1.508   4.358  17.338 -0.7020  1.6041 -2.9875
  153SAPE  H12B16927   1.526   4.186  17.292  0.2748  0.4126 -1.7007
  153SAPE   C1116928   1.367   4.226  17.438  0.6785  0.0222 -0.3585
  153SAPE  H11A16929   1.433   4.175  17.511 -0.5985  2.7721  2.9962
  153SAPE  H11B16930   1.288   4.151  17.418 -1.3408  2.0974 -0.5878
  153SAPE     P16931   1.167   4.393  17.472 -0.1137  0.4444 -0.0982
  153SAPE   O1316932   1.150   4.509  17.562  0.1353 -0.0077  0.5156
  153SAPE   O1416933   1.145   4.418  17.329 -0.5080  0.9521 -0.5593
  153SAPE   O1216934   1.315   4.346  17.496 -0.1617 -0.1570  0.5368
  153SAPE   O1116935   1.085   4.261  17.528  0.3582  0.0302 -0.5751
  153SAPE    C116936   1.013   4.160  17.459 -0.7677 -0.5458 -0.0516
  153SAPE    HA16937   1.051   4.162  17.355  1.5769 -0.0200  0.7546
  153SAPE    HB16938   1.042   4.057  17.487 -0.5703 -0.1814  1.1278
  153SAPE    C216939   0.858   4.176  17.466 -0.2526  0.2216  0.7906
  153SAPE    HS16940   0.816   4.114  17.385 -2.3227  0.2723  1.7687
  153SAPE   O2116941   0.803   4.309  17.474  0.3864  0.1288  0.3970
  153SAPE   C2116942   0.796   4.376  17.369  0.2765 -0.3599  1.0820
  153SAPE   O2216943   0.813   4.333  17.252 -0.0862  0.0611  0.2107
  153SAPE   C2216944   0.747   4.520  17.408 -0.4529 -0.3307 -0.0062
  153SAPE   H2R16945   0.835   4.582  17.436  0.5758 -2.2998  1.3650
  153SAPE   H2S16946   0.699   4.576  17.326 -0.0305 -1.7109 -1.2314
  153SAPE    C316947   0.819   4.103  17.600 -0.1259 -0.5386  0.2306
  153SAPE    HX16948   0.862   4.170  17.677 -0.7775 -0.2287  0.3366
  153SAPE    HY16949   0.869   4.004  17.603  0.3644 -0.2605  1.9747
  153SAPE   O3116950   0.675   4.077  17.603  0.7206  0.4746 -0.1009
  153SAPE   C3116951   0.608   4.138  17.696 -0.0569 -0.3140 -0.1638
  153SAPE   O3216952   0.656   4.194  17.797  0.1941 -0.5560  0.0832
  153SAPE   C3216953   0.460   4.103  17.680 -0.4451 -0.2015 -0.0248
  153SAPE   H2X16954   0.432   4.016  17.743 -1.6415 -0.2798 -0.6314
  153SAPE   H2Y16955   0.437   4.088  17.572 -1.9947  0.8919  0.1372
  153SAPE   C2316956   0.648   4.527  17.528 -0.2289 -0.4727 -0.6260
  153SAPE   H3R16957   0.711   4.482  17.608  0.0650 -2.1859 -1.7657
  153SAPE   H3S16958   0.558   4.463  17.517 -0.8424 -0.1959  1.9504
  153SAPE   C2416959   0.608   4.671  17.571  0.4977  0.2238  0.0109
  153SAPE   H4R16960   0.708   4.719  17.586  2.5523 -3.8701  0.9560
  153SAPE   H4S16961   0.562   4.658  17.671  0.5304 -0.9687 -0.1196
  153SAPE   C2516962   0.515   4.732  17.472  0.4845  0.3885  0.1591
  153SAPE   H5R16963   0.567   4.793  17.396  1.2916 -0.6678 -0.1632
  153SAPE   C2616964   0.386   4.695  17.455  0.2836 -0.3494 -0.3852
  153SAPE   H6R16965   0.321   4.736  17.377  0.1312  0.1693  0.0071
  153SAPE   C2716966   0.299   4.612  17.546 -0.0824 -0.6184 -0.0828
  153SAPE   H7R16967   0.359   4.574  17.632 -1.7308 -3.4517 -0.0564
  153SAPE   H7S16968   0.256   4.533  17.481 -3.9869  0.8626  0.4076
  153SAPE   C2816969   0.189   4.690  17.616  0.6955  0.6452  1.1856
  153SAPE   H8R16970   0.220   4.744  17.707  3.2955 -0.1418  0.8578
  153SAPE   C2916971   0.066   4.704  17.565  0.2036 -0.3053 -0.8319
  153SAPE   H9R16972  -0.004   4.771  17.618  2.4709  1.3148  0.3207
  153SAPE  C21016973  -0.005   4.650  17.444  0.2377 -0.6045  1.1589
  153SAPE  H10R16974  -0.085   4.577  17.468  0.0218 -1.0039 -0.6226
  153SAPE  H10S16975   0.065   4.598  17.376  1.2541  2.3447 -0.2177
  153SAPE  C21116976  -0.060   4.761  17.358  0.1480  0.3317  0.2013
  153SAPE  H11R16977   0.009   4.838  17.320  0.1642  0.1042 -0.2386
  153SAPE  C21216978  -0.195   4.782  17.330 -0.3817 -0.4697 -0.3997
  153SAPE  H12R16979  -0.216   4.864  17.260 -0.3466 -0.7702 -0.7649
  153SAPE  C21316980  -0.320   4.716  17.392 -0.2109 -0.3926 -0.1393
  153SAPE  H13R16981  -0.302   4.696  17.500 -0.3836  0.6059  0.0857
  153SAPE  H13S16982  -0.343   4.617  17.348 -1.9646  1.1110 -2.8210
  153SAPE  C21416983  -0.439   4.800  17.380  0.3983  0.5045 -0.1466
  153SAPE  H14R16984  -0.497   4.797  17.287 -1.9991  1.7447  1.2221
  153SAPE  C21516985  -0.491   4.885  17.464 -0.6861 -0.1434 -0.4632
  153SAPE  H15R16986  -0.586   4.937  17.448  0.2095  1.9920  0.6748
  153SAPE  C21616987  -0.425   4.922  17.598 -0.3622 -0.4549  0.8319
  153SAPE  H16R16988  -0.317   4.937  17.575 -1.2563  4.1738 -1.8650
  153SAPE  H16S16989  -0.442   4.838  17.668  1.3420 -3.6996 -2.3170
  153SAPE  C21716990  -0.460   5.053  17.674 -0.0421  0.0587 -0.1380
  153SAPE  H17R16991  -0.465   5.134  17.598 -0.8429  0.0577 -0.0971
  153SAPE  H17S16992  -0.391   5.080  17.756 -1.6468  1.4115  0.8199
  153SAPE  C21816993  -0.596   5.047  17.750 -0.6323 -0.0965  0.0342
  153SAPE  H18R16994  -0.617   4.957  17.811  2.2997 -0.9891 -0.1350
  153SAPE  H18S16995  -0.668   5.043  17.666 -1.2306 -0.4837  0.5616
  153SAPE  C21916996  -0.626   5.172  17.826 -0.2309  0.4754  0.0059
  153SAPE  H19R16997  -0.729   5.159  17.867  0.3375 -1.3017  0.9894
  153SAPE  H19S16998  -0.616   5.262  17.762 -2.9788  0.8931  0.0333
  153SAPE  C22016999  -0.538   5.175  17.951 -0.3313  0.2733 -0.0989
  153SAPE  H20R17000  -0.427   5.178  17.938 -0.4365  0.1517 -1.1454
  153SAPE  H20S17001  -0.569   5.098  18.024  0.9822 -0.7191 -0.5339
  153SAPE  H20T17002  -0.566   5.264  18.010 -2.8027 -0.1102 -0.5831
  153SAPE   C3317003   0.370   4.226  17.720  0.0780 -0.6660 -1.1309
  153SAPE   H3X17004   0.408   4.321  17.679 -1.2060  0.8968  1.0792
  153SAPE   H3Y17005   0.372   4.243  17.830  1.3690  1.9698 -1.5084
  153SAPE   C3417006   0.224   4.198  17.689 -0.2491  0.7606 -0.6038
  153SAPE   H4X17007   0.195   4.105  17.743  1.6857  0.3239 -0.2585
  153SAPE   H4Y17008   0.213   4.169  17.582 -1.4450 -1.0244 -0.0359
  153SAPE   C3517009   0.138   4.318  17.726 -0.4669 -0.2524 -0.0161
  153SAPE   H5X17010   0.183   4.409  17.681  0.0642 -0.8093 -0.6305
  153SAPE   H5Y17011   0.134   4.343  17.834 -0.7821  1.3654 -0.3634
  153SAPE   C3617012  -0.005   4.287  17.700 -0.4163  0.1424  0.7972
  153SAPE   H6X17013  -0.034   4.199  17.761 -0.4541  0.0899  0.7046
  153SAPE   H6Y17014  -0.031   4.262  17.594  0.8124 -1.5455  0.8515
  153SAPE   C3717015  -0.108   4.399  17.743 -0.0432  0.2066  0.9523
  153SAPE   H7X17016  -0.075   4.499  17.710 -0.4659 -0.8093 -2.9657
  153SAPE   H7Y17017  -0.123   4.401  17.853 -0.2644  0.0900  0.9234
  153SAPE   C3817018  -0.241   4.374  17.669  0.9449 -0.8344 -0.1661
  153SAPE   H8X17019  -0.281   4.276  17.703  3.5242 -1.1979  2.2200
  153SAPE   H8Y17020  -0.225   4.402  17.563 -0.5253  0.3861 -0.1001
  153SAPE   C3917021  -0.345   4.483  17.710  0.3033  0.8482  0.5562
  153SAPE   H9X17022  -0.300   4.584  17.698  1.3560  0.2053 -1.5042
  153SAPE   H9Y17023  -0.382   4.478  17.814 -2.2504  1.8364 -0.2318
  153SAPE  C31017024  -0.465   4.482  17.619  0.4666  0.1593  0.5834
  153SAPE  H10X17025  -0.436   4.503  17.514 -0.3499  0.2143  0.3611
  153SAPE  H10Y17026  -0.531   4.564  17.656  0.6026 -0.0298  1.2570
  153SAPE  C31117027  -0.554   4.355  17.627  0.6078 -0.2989  0.8635
  153SAPE  H11X17028  -0.577   4.336  17.734  1.6855  1.8385  1.5250
  153SAPE  H11Y17029  -0.493   4.271  17.587  0.9416  1.9662 -4.1708
  153SAPE  C31217030  -0.682   4.374  17.543  0.1718 -0.0586  0.6527
  153SAPE  H12X17031  -0.742   4.457  17.586  1.3794  0.9903  0.3845
  153SAPE  H12Y17032  -0.729   4.275  17.557  0.6660 -0.4100 -0.1099
  153SAPE  C31317033  -0.666   4.398  17.390 -0.6787 -0.4538  0.3519
  153SAPE  H13X17034  -0.661   4.299  17.340  0.3385 -0.1507 -0.1692
  153SAPE  H13Y17035  -0.580   4.462  17.362  0.9718 -2.4253  0.7160
  153SAPE  C31417036  -0.783   4.467  17.320 -0.8053  0.1029 -0.3509
  153SAPE  H14X17037  -0.755   4.482  17.213 -0.8279 -1.0402 -0.5354
  153SAPE  H14Y17038  -0.801   4.569  17.360  0.0478  0.5370 -1.0369
  153SAPE  C31517039  -0.907   4.376  17.312 -0.1102 -0.5987  1.0776
  153SAPE  H15X17040  -0.981   4.399  17.391 -1.8434 -0.6240 -0.4596
  153SAPE  H15Y17041  -0.885   4.268  17.324  0.1152 -0.5127  1.4409
  153SAPE  C31617042  -0.976   4.390  17.168  0.0882 -0.0628  0.1184
  153SAPE  H16X17043  -0.904   4.364  17.088 -1.4736  2.6420 -2.3136
  153SAPE  H16Y17044  -1.001   4.497  17.155  2.8188  0.8688  1.7628
  153SAPE  C31717045  -1.102   4.301  17.150 -0.6617 -0.2749 -0.0151
  153SAPE  H17X17046  -1.161   4.334  17.238 -0.2792  2.2595 -0.6223
  153SAPE  H17Y17047  -1.070   4.196  17.165  2.7779  0.5472 -0.5315
  153SAPE  C31817048  -1.170   4.315  17.008 -0.1959  0.2751 -0.0202
  153SAPE  H18X17049  -1.210   4.419  16.999  2.1177  1.2573  0.4510
  153SAPE  H18Y17050  -1.246   4.234  17.002 -2.1184  1.9436  0.5525
  153SAPE  H18Z17051  -1.103   4.290  16.923  0.4945  0.6394  0.4136
  154SAPE     N17052   1.424   0.808  15.024  0.1813  0.0767  0.0010
  154SAPE   HN117053   1.455   0.783  15.120 -0.5601 -1.4767 -0.1264
  154SAPE   HN217054   1.443   0.910  15.015  0.6301 -0.0611 -0.6504
  154SAPE   HN317055   1.321   0.795  15.022  0.1724  0.2137 -1.1263
  154SAPE   C1217056   1.499   0.722  14.928 -0.8750  0.9239 -0.0195
  154SAPE  H12A17057   1.433   0.699  14.842 -0.7478  0.3553  0.0325
  154SAPE  H12B17058   1.523   0.622  14.970  1.4131  1.3632 -0.1474
  154SAPE   C1117059   1.631   0.783  14.882 -0.5268 -0.7085 -0.3729
  154SAPE  H11A17060   1.704   0.774  14.964  0.4897  0.3261 -1.1309
  154SAPE  H11B17061   1.618   0.890  14.852  2.1593 -0.6234 -1.5019
  154SAPE     P17062   1.734   0.563  14.770  0.1162  0.6433  0.5465
  154SAPE   O1317063   1.796   0.549  14.902 -0.3294  0.7419  0.3815
  154SAPE   O1417064   1.612   0.477  14.742  0.0896 -0.3256  0.0132
  154SAPE   O1217065   1.680   0.711  14.762 -0.4870 -0.4929  0.4092
  154SAPE   O1117066   1.847   0.551  14.657  1.0432 -0.9030  0.1333
  154SAPE    C117067   1.870   0.655  14.560 -0.0376  0.3313 -0.4166
  154SAPE    HA17068   1.788   0.661  14.485  1.6487  0.5097 -2.3209
  154SAPE    HB17069   1.881   0.753  14.610  1.1759 -0.6764  1.3944
  154SAPE    C217070   1.999   0.637  14.470 -0.7798 -0.3431 -0.8490
  154SAPE    HS17071   1.997   0.533  14.431 -1.0463 -0.3951 -0.6973
  154SAPE   O2117072   2.122   0.653  14.547 -0.1324  0.1653 -0.2451
  154SAPE   C2117073   2.167   0.576  14.639 -0.5177 -0.4500  0.3685
  154SAPE   O2217074   2.120   0.475  14.686 -0.2174 -0.2254 -0.3765
  154SAPE   C2217075   2.303   0.627  14.676 -0.7750 -0.2430  0.0769
  154SAPE   H2R17076   2.297   0.720  14.735 -0.7028  0.5984 -1.2040
  154SAPE   H2S17077   2.346   0.554  14.748  0.3272  1.6641  1.4595
  154SAPE    C317078   1.989   0.733  14.352 -0.2393  0.1121  0.5655
  154SAPE    HX17079   1.982   0.836  14.394  0.6927  0.0865  0.8136
  154SAPE    HY17080   1.905   0.715  14.281 -0.6300  1.3708  0.6763
  154SAPE   O3117081   2.102   0.720  14.256 -0.4643  0.2227 -0.1309
  154SAPE   C3117082   2.190   0.826  14.244  0.1435 -0.2065 -0.0877
  154SAPE   O3217083   2.166   0.939  14.287  0.5690  0.2744 -0.5643
  154SAPE   C3217084   2.316   0.798  14.162 -0.2976  0.4680  0.4695
  154SAPE   H2X17085   2.305   0.851  14.065 -1.6418 -1.0941 -0.2960
  154SAPE   H2Y17086   2.335   0.691  14.137  0.5746  1.1613 -2.2176
  154SAPE   C2317087   2.395   0.635  14.557 -0.6902 -0.4368  0.1314
  154SAPE   H3R17088   2.474   0.710  14.577  0.4854 -1.1251 -1.6131
  154SAPE   H3S17089   2.345   0.677  14.467 -0.3763 -1.7252 -0.6824
  154SAPE   C2417090   2.457   0.497  14.512  0.1823  0.4183  0.2398
  154SAPE   H4R17091   2.495   0.520  14.410 -0.8075  1.3984  0.0585
  154SAPE   H4S17092   2.385   0.413  14.515  1.9095 -1.0904  1.2178
  154SAPE   C2517093   2.569   0.465  14.611  0.3206 -0.0802  0.4484
  154SAPE   H5R17094   2.621   0.549  14.660  1.2222 -0.8093  0.7676
  154SAPE   C2617095   2.615   0.340  14.636 -0.2293  0.2900  0.3517
  154SAPE   H6R17096   2.706   0.333  14.696  1.5152 -0.5792 -2.2376
  154SAPE   C2717097   2.571   0.201  14.601 -0.3342 -0.3536 -0.7580
  154SAPE   H7R17098   2.623   0.168  14.509  2.2399  0.8312  0.1765
  154SAPE   H7S17099   2.461   0.203  14.583 -1.1661 -2.0824  3.0255
  154SAPE   C2817100   2.580   0.098  14.707 -0.2842 -0.1378  0.7611
  154SAPE   H8R17101   2.550   0.122  14.810 -0.6099 -1.0910  0.9017
  154SAPE   C2917102   2.587  -0.031  14.690  0.0735  0.8249  0.2681
  154SAPE   H9R17103   2.589  -0.089  14.784  0.1340  2.4867  1.3227
  154SAPE  C21017104   2.598  -0.111  14.565  0.3034 -0.0947  0.2376
  154SAPE  H10R17105   2.708  -0.117  14.550  0.2891  2.4504 -1.5942
  154SAPE  H10S17106   2.567  -0.068  14.467 -0.4471 -1.2465 -0.0591
  154SAPE  C21117107   2.527  -0.240  14.587  0.3926 -0.0915  0.8323
  154SAPE  H11R17108   2.449  -0.228  14.664 -0.1649 -1.2018  0.4614
  154SAPE  C21217109   2.541  -0.359  14.525 -0.1866  0.4190  0.2680
  154SAPE  H12R17110   2.477  -0.444  14.553  0.2277  0.1993  0.5563
  154SAPE  C21317111   2.640  -0.397  14.416 -0.6461 -0.3628 -0.1284
  154SAPE  H13R17112   2.734  -0.428  14.466  0.1358 -0.5908 -1.6931
  154SAPE  H13S17113   2.661  -0.307  14.353 -2.4648 -0.2294 -0.6201
  154SAPE  C21417114   2.608  -0.505  14.319  0.1724 -0.4084 -0.1034
  154SAPE  H14R17115   2.615  -0.481  14.212 -2.1312 -0.4771 -0.3286
  154SAPE  C21517116   2.588  -0.638  14.347 -0.7244 -0.2221  0.1425
  154SAPE  H15R17117   2.581  -0.707  14.262  1.1585  0.2114 -0.4190
  154SAPE  C21617118   2.579  -0.714  14.476  0.3748 -0.1262  0.1862
  154SAPE  H16R17119   2.592  -0.637  14.556 -1.1208  0.6933 -0.3359
  154SAPE  H16S17120   2.656  -0.794  14.474  2.6154  1.9097 -0.3293
  154SAPE  C21717121   2.441  -0.775  14.509 -0.4766  0.3167 -0.4234
  154SAPE  H17R17122   2.370  -0.695  14.479 -0.0017  1.9644  2.4269
  154SAPE  H17S17123   2.427  -0.780  14.619 -2.2430  0.4172 -0.6138
  154SAPE  C21817124   2.406  -0.912  14.444  0.3840 -0.2773 -0.2263
  154SAPE  H18R17125   2.482  -0.985  14.479  0.8379  0.2194 -0.1672
  154SAPE  H18S17126   2.425  -0.907  14.335 -0.1718 -0.8957 -0.3595
  154SAPE  C21917127   2.264  -0.955  14.474 -0.0162  0.2376 -0.1448
  154SAPE  H19R17128   2.246  -1.050  14.421 -1.0527  0.8053 -0.8493
  154SAPE  H19S17129   2.197  -0.880  14.426 -2.3839 -1.1630  0.8248
  154SAPE  C22017130   2.232  -0.956  14.618  0.0663 -0.1811 -0.5514
  154SAPE  H20R17131   2.293  -1.027  14.678 -0.6736  0.3443  0.8704
  154SAPE  H20S17132   2.129  -0.996  14.632  0.6675 -1.3139  0.8791
  154SAPE  H20T17133   2.226  -0.850  14.651 -1.7618  0.1441 -1.7517
  154SAPE   C3317134   2.446   0.858  14.231 -0.6746 -0.2754 -0.2738
  154SAPE   H3X17135   2.532   0.791  14.210 -0.2084 -0.3148  1.5361
  154SAPE   H3Y17136   2.433   0.856  14.341  2.6477  0.1191  0.2356
  154SAPE   C3417137   2.475   1.003  14.191 -0.4827 -0.3131  0.0762
  154SAPE   H4X17138   2.414   1.068  14.257  0.8708  0.7921  0.2885
  154SAPE   H4Y17139   2.436   1.033  14.091 -2.3960  2.5267  1.5181
  154SAPE   C3517140   2.621   1.054  14.218  0.5366 -0.3014 -0.8351
  154SAPE   H5X17141   2.681   1.010  14.136  2.3432  0.0240  0.2492
  154SAPE   H5Y17142   2.658   1.017  14.316  0.7756  2.3402  0.1636
  154SAPE   C3617143   2.642   1.212  14.223  0.9710 -0.0910  0.2035
  154SAPE   H6X17144   2.540   1.254  14.237 -0.9599 -3.0270 -3.1561
  154SAPE   H6Y17145   2.676   1.245  14.123  0.6726 -0.7980 -0.1397
  154SAPE   C3717146   2.749   1.259  14.324 -0.0942 -0.3148 -0.0075
  154SAPE   H7X17147   2.779   1.362  14.294 -0.3561  0.1287  1.2088
  154SAPE   H7Y17148   2.831   1.185  14.316  0.0207 -0.1718 -0.1452
  154SAPE   C3817149   2.704   1.264  14.470  0.3412  0.3713  0.3659
  154SAPE   H8X17150   2.674   1.160  14.496 -0.1298  0.9564  2.3389
  154SAPE   H8Y17151   2.612   1.326  14.475  0.6404  0.9179 -0.6023
  154SAPE   C3917152   2.801   1.316  14.578  0.4492  0.7185 -0.0279
  154SAPE   H9X17153   2.742   1.340  14.669 -0.2798  0.0504 -0.3136
  154SAPE   H9Y17154   2.836   1.416  14.543 -1.8727  0.6845 -2.8151
  154SAPE  C31017155   2.918   1.221  14.601  0.1247  0.7932 -0.5868
  154SAPE  H10X17156   2.973   1.233  14.506 -0.4149 -0.6690 -1.1086
  154SAPE  H10Y17157   2.896   1.114  14.623  3.2439 -0.0308 -1.1145
  154SAPE  C31117158   3.021   1.251  14.714  0.0500 -1.2932  0.2028
  154SAPE  H11X17159   2.977   1.255  14.816  1.2568  0.1169  0.7019
  154SAPE  H11Y17160   3.056   1.353  14.686 -1.9452 -0.4230  0.6852
  154SAPE  C31217161   3.151   1.168  14.734  0.8068 -0.9216  0.2586
  154SAPE  H12X17162   3.194   1.143  14.634  0.0773  0.8561 -0.5557
  154SAPE  H12Y17163   3.124   1.082  14.798  1.1851 -1.3341 -0.1278
  154SAPE  C31317164   3.256   1.253  14.806  0.5307 -0.4211  0.7756
  154SAPE  H13X17165   3.215   1.308  14.893  1.9670  3.6474 -0.8776
  154SAPE  H13Y17166   3.275   1.335  14.734 -0.4168 -0.5876  0.3132
  154SAPE  C31417167   3.389   1.185  14.839  0.4669  0.3228  0.1658
  154SAPE  H14X17168   3.419   1.133  14.746  1.0265  1.8684 -0.5578
  154SAPE  H14Y17169   3.362   1.109  14.916  1.5472 -0.0327  0.2100
  154SAPE  C31517170   3.503   1.272  14.892  0.3040 -0.0319  0.0346
  154SAPE  H15X17171   3.443   1.355  14.937 -0.7811  0.2100 -1.7665
  154SAPE  H15Y17172   3.555   1.313  14.803  0.8036 -1.9979 -0.6270
  154SAPE  C31617173   3.598   1.198  14.985  0.4321 -0.0057 -0.0235
  154SAPE  H16X17174   3.612   1.099  14.937 -2.0377  0.0105 -0.9151
  154SAPE  H16Y17175   3.560   1.190  15.089 -0.5914  0.2450 -0.3636
  154SAPE  C31717176   3.739   1.267  15.002  0.1837  0.6016  0.0433
  154SAPE  H17X17177   3.727   1.372  15.036  0.9005  1.4160 -2.0553
  154SAPE  H17Y17178   3.784   1.262  14.901 -1.3873 -2.1359 -0.6105
  154SAPE  C31817179   3.844   1.209  15.097  0.0689 -0.2307 -0.2412
  154SAPE  H18X17180   3.882   1.110  15.067  0.5750  0.0820 -0.6433
  154SAPE  H18Y17181   3.801   1.213  15.199 -0.3855  0.3592 -0.4471
  154SAPE  H18Z17182   3.934   1.273  15.084  0.1495 -0.4395 -0.7129
  155SAPE     N17183   2.050   3.993  14.433 -0.1966  0.0585  0.2628
  155SAPE   HN117184   2.068   3.945  14.342  1.8317 -2.1968  1.7292
  155SAPE   HN217185   2.081   3.921  14.501  0.9909 -3.0473 -3.2228
  155SAPE   HN317186   1.948   4.014  14.442  0.5298  3.5358  2.2994
  155SAPE   C1217187   2.127   4.117  14.452 -0.0590 -0.0848 -1.1003
  155SAPE  H12A17188   2.232   4.087  14.475  0.6033  2.2199 -0.9288
  155SAPE  H12B17189   2.094   4.166  14.546  0.3514 -0.9694 -0.4801
  155SAPE   C1117190   2.132   4.195  14.326  0.9681  0.0057  0.5347
  155SAPE  H11A17191   2.195   4.285  14.345  0.4116  0.5449 -0.0960
  155SAPE  H11B17192   2.023   4.216  14.311  0.6465 -1.1761  1.1366
  155SAPE     P17193   2.192   4.208  14.079  0.1776  0.3469 -0.1075
  155SAPE   O1317194   2.237   4.120  13.969 -0.3249  0.8404 -0.4933
  155SAPE   O1417195   2.076   4.302  14.062 -0.1026 -0.0005 -0.2024
  155SAPE   O1217196   2.179   4.126  14.212  0.0290  0.4136  0.7191
  155SAPE   O1117197   2.307   4.298  14.116 -0.5737  0.2643  0.0957
  155SAPE    C117198   2.418   4.252  14.198 -0.0415 -0.2333  0.2043
  155SAPE    HA17199   2.404   4.290  14.301  0.9934 -0.6266  0.4925
  155SAPE    HB17200   2.421   4.142  14.210 -0.3995 -0.3513 -0.7040
  155SAPE    C217201   2.548   4.318  14.147  0.1838 -0.0882  0.2341
  155SAPE    HS17202   2.626   4.298  14.224  0.2146 -0.7459  0.0451
  155SAPE   O2117203   2.521   4.459  14.119  0.9166  0.1938  0.3133
  155SAPE   C2117204   2.633   4.530  14.146  0.3588 -0.1243  0.0792
  155SAPE   O2217205   2.743   4.490  14.141 -0.2130  0.1272  0.3062
  155SAPE   C2217206   2.590   4.676  14.163  0.2583 -0.0875  0.4854
  155SAPE   H2R17207   2.521   4.708  14.083 -0.4455 -0.6252  0.8689
  155SAPE   H2S17208   2.564   4.691  14.270  0.8474  0.9561  0.5022
  155SAPE    C317209   2.591   4.257  14.015  0.4878 -0.2708  0.1648
  155SAPE    HX17210   2.625   4.337  13.945 -0.6180 -0.2219 -0.3308
  155SAPE    HY17211   2.497   4.221  13.968 -0.0043 -0.8717  1.5470
  155SAPE   O3117212   2.689   4.151  14.043 -0.2967 -0.4271  0.3593
  155SAPE   C3117213   2.791   4.136  13.955 -0.2933  0.0298 -0.2374
  155SAPE   O3217214   2.808   4.201  13.853  0.3187  0.0602  0.1121
  155SAPE   C3217215   2.892   4.024  14.007  0.1801  0.1554  0.3935
  155SAPE   H2X17216   2.931   3.981  13.913  1.7155  0.8030  0.7053
  155SAPE   H2Y17217   2.824   3.949  14.054 -0.4855  1.0444  0.8864
  155SAPE   C2317218   2.703   4.777  14.129  0.7722 -0.2914  0.1217
  155SAPE   H3R17219   2.740   4.751  14.028  0.9614 -1.0658  0.3817
  155SAPE   H3S17220   2.789   4.758  14.196  1.3894  0.2033 -0.5158
  155SAPE   C2417221   2.664   4.933  14.132 -0.1088  0.7233  0.3802
  155SAPE   H4R17222   2.769   4.969  14.139  0.2514 -0.3388  0.6616
  155SAPE   H4S17223   2.604   4.968  14.218  0.7974  1.5955  0.6684
  155SAPE   C2517224   2.591   4.966  14.008  0.0354 -0.6708 -0.1191
  155SAPE   H5R17225   2.483   4.944  14.017 -0.0247 -0.6920 -0.8154
  155SAPE   C2617226   2.640   5.012  13.890  0.2047 -0.1466  0.4423
  155SAPE   H6R17227   2.567   5.027  13.809  0.5110 -1.2352 -0.0539
  155SAPE   C2717228   2.784   5.038  13.860 -0.8277  0.4882 -0.4154
  155SAPE   H7R17229   2.849   4.957  13.900 -1.0530  1.2796  1.6656
  155SAPE   H7S17230   2.819   5.126  13.917  2.0631 -0.3545 -0.7154
  155SAPE   C2817231   2.814   5.075  13.712 -0.1076  0.1571  0.3018
  155SAPE   H8R17232   2.725   5.105  13.655 -1.5722 -1.9435  1.3648
  155SAPE   C2917233   2.938   5.073  13.660 -0.0494 -0.2685 -0.7281
  155SAPE   H9R17234   2.945   5.105  13.555  1.3690  0.7308 -0.3489
  155SAPE  C21017235   3.059   5.030  13.729  0.0202 -0.7890 -0.7517
  155SAPE  H10R17236   3.035   4.934  13.779 -2.6949  0.0255 -0.2952
  155SAPE  H10S17237   3.071   5.098  13.816 -2.5634  1.2670 -1.8520
  155SAPE  C21117238   3.175   4.995  13.640 -0.0477  0.1755  0.9680
  155SAPE  H11R17239   3.170   5.004  13.530  1.5745  0.6570  0.9170
  155SAPE  C21217240   3.292   4.961  13.694  0.2534  0.0922 -0.3616
  155SAPE  H12R17241   3.370   4.913  13.633  1.7687  0.3317  1.3035
  155SAPE  C21317242   3.320   4.948  13.847 -0.5217 -0.5713 -0.5190
  155SAPE  H13R17243   3.269   5.034  13.894 -0.9713 -0.1192 -1.8092
  155SAPE  H13S17244   3.428   4.974  13.858 -0.9809  0.8950  0.7737
  155SAPE  C21417245   3.288   4.819  13.920  0.5516 -0.3595  0.0104
  155SAPE  H14R17246   3.349   4.731  13.893  0.0344 -0.0439 -2.4396
  155SAPE  C21517247   3.186   4.800  14.006 -0.5763  0.2609  0.2319
  155SAPE  H15R17248   3.155   4.709  14.059 -2.2077  0.9214  0.4713
  155SAPE  C21617249   3.096   4.910  14.052  0.1858  1.1616 -0.1004
  155SAPE  H16R17250   2.990   4.876  14.046  0.2377  1.0499 -0.3707
  155SAPE  H16S17251   3.102   5.005  13.994 -1.0328  0.5301 -1.3156
  155SAPE  C21717252   3.127   4.934  14.204  0.3745  1.0377  0.4038
  155SAPE  H17R17253   3.111   5.041  14.229  2.8294  1.3118  1.1077
  155SAPE  H17S17254   3.233   4.902  14.218  0.4315  0.5331 -1.0581
  155SAPE  C21817255   3.043   4.839  14.291  0.2265 -0.2151 -0.8048
  155SAPE  H18R17256   3.032   4.738  14.246 -0.6758 -0.1586 -0.7345
  155SAPE  H18S17257   2.946   4.893  14.295  0.1286 -0.4596  1.1482
  155SAPE  C21917258   3.076   4.828  14.442 -0.5985 -0.1168  0.9445
  155SAPE  H19R17259   3.075   4.934  14.476 -1.9807 -0.2529  1.4031
  155SAPE  H19S17260   3.173   4.773  14.445  0.1448  0.8625 -1.7080
  155SAPE  C22017261   2.973   4.748  14.519 -0.3816 -1.1580  0.1073
  155SAPE  H20R17262   3.011   4.743  14.624  0.4063  0.6872 -0.0638
  155SAPE  H20S17263   2.964   4.645  14.479 -1.0956 -0.8210 -0.6153
  155SAPE  H20T17264   2.874   4.797  14.509  0.7527  1.3563  0.5264
  155SAPE   C3317265   3.018   4.071  14.092 -0.4370  0.5302  0.5617
  155SAPE   H3X17266   3.080   4.139  14.029 -2.2612  0.3154 -1.5738
  155SAPE   H3Y17267   3.088   3.988  14.116 -0.0580  0.5274 -0.4886
  155SAPE   C3417268   2.976   4.135  14.222  0.6568 -0.4418  0.5292
  155SAPE   H4X17269   2.912   4.062  14.276  0.0471 -0.4339 -0.1723
  155SAPE   H4Y17270   2.901   4.213  14.200 -0.6644 -1.6984  0.4647
  155SAPE   C3517271   3.093   4.190  14.309  0.3371  0.9323  0.3989
  155SAPE   H5X17272   3.162   4.104  14.318 -1.3027 -0.2870  2.1329
  155SAPE   H5Y17273   3.061   4.214  14.413  0.0056 -0.2806  0.5855
  155SAPE   C3617274   3.166   4.315  14.255 -0.5025  0.4937 -0.3343
  155SAPE   H6X17275   3.093   4.398  14.250 -1.5082 -0.0367  3.2013
  155SAPE   H6Y17276   3.217   4.282  14.161  0.6462 -1.9581  1.0455
  155SAPE   C3717277   3.281   4.339  14.352 -0.5162 -0.4603 -0.2828
  155SAPE   H7X17278   3.367   4.380  14.295  0.0277  0.6695  1.2742
  155SAPE   H7Y17279   3.308   4.245  14.405 -0.4639  0.0354  0.5826
  155SAPE   C3817280   3.245   4.436  14.461  0.3262 -0.1948  0.1684
  155SAPE   H8X17281   3.159   4.399  14.520 -2.4375  2.3861 -1.9224
  155SAPE   H8Y17282   3.204   4.532  14.422  0.5894  0.4065  1.2973
  155SAPE   C3917283   3.362   4.483  14.535 -0.4942 -0.3295 -0.8243
  155SAPE   H9X17284   3.336   4.570  14.599  1.4374  0.9108 -1.6142
  155SAPE   H9Y17285   3.439   4.528  14.468 -0.6861  0.4852 -0.5094
  155SAPE  C31017286   3.428   4.378  14.619 -0.5228 -0.8341  0.5224
  155SAPE  H10X17287   3.451   4.285  14.563 -0.0058 -0.5153  0.2072
  155SAPE  H10Y17288   3.353   4.358  14.699 -0.4737 -1.6254  0.3852
  155SAPE  C31117289   3.556   4.425  14.686  0.6221  0.1643  0.1741
  155SAPE  H11X17290   3.585   4.355  14.766  0.2490 -1.6660 -1.2294
  155SAPE  H11Y17291   3.541   4.527  14.727 -0.4344  0.7135 -1.4752
  155SAPE  C31217292   3.671   4.434  14.583 -0.0728  0.5548  0.3432
  155SAPE  H12X17293   3.743   4.494  14.642  0.1020 -0.3272  1.0492
  155SAPE  H12Y17294   3.653   4.500  14.496  0.9819  1.4266  0.7627
  155SAPE  C31317295   3.744   4.313  14.538  0.6101 -0.1834 -0.9579
  155SAPE  H13X17296   3.713   4.280  14.437  1.7745 -1.1392 -1.0302
  155SAPE  H13Y17297   3.708   4.232  14.605  0.2761  0.5435 -0.2372
  155SAPE  C31417298   3.895   4.329  14.541  0.8148  0.1313  0.6732
  155SAPE  H14X17299   3.934   4.344  14.644  0.2660  1.7257  0.6714
  155SAPE  H14Y17300   3.922   4.423  14.488 -1.4284  0.2775 -0.3060
  155SAPE  C31517301   3.970   4.214  14.473 -0.2773 -0.0737 -0.4987
  155SAPE  H15X17302   3.933   4.206  14.368 -2.6328 -0.7891  0.3268
  155SAPE  H15Y17303   3.937   4.118  14.518 -2.6104  0.7171 -0.4071
  155SAPE  C31617304   4.127   4.231  14.476  0.1658 -1.0216  0.4422
  155SAPE  H16X17305   4.152   4.227  14.584 -0.7259  0.7672  0.7426
  155SAPE  H16Y17306   4.152   4.330  14.432  2.2430 -0.4086  2.7714
  155SAPE  C31717307   4.213   4.128  14.411 -0.3852 -0.5552  0.5953
  155SAPE  H17X17308   4.167   4.102  14.313 -0.7630  0.7946  0.3849
  155SAPE  H17Y17309   4.219   4.034  14.469 -0.7400  0.7659  2.9080
  155SAPE  C31817310   4.358   4.185  14.386  0.1187 -0.1874 -0.1593
  155SAPE  H18X17311   4.412   4.169  14.482 -0.8359 -1.0253  0.2525
  155SAPE  H18Y17312   4.358   4.294  14.365  0.9703 -0.1109  0.1995
  155SAPE  H18Z17313   4.406   4.133  14.300  1.0777  1.6147 -0.7602
  156SAPE     N17314   1.258   0.815  17.869 -0.1515  0.4982  0.0819
  156SAPE   HN117315   1.329   0.864  17.928  1.0829 -0.8156 -0.2563
  156SAPE   HN217316   1.253   0.861  17.776 -0.5637 -1.3999 -0.8750
  156SAPE   HN317317   1.162   0.830  17.905 -0.7063 -1.0471 -0.6993
  156SAPE   C1217318   1.292   0.674  17.842 -0.2650  0.1426 -0.0969
  156SAPE  H12A17319   1.296   0.627  17.942 -1.0080  0.7058  0.2077
  156SAPE  H12B17320   1.397   0.676  17.808  0.2281 -1.7118  1.2001
  156SAPE   C1117321   1.191   0.614  17.750  0.4499 -0.6909 -0.1276
  156SAPE  H11A17322   1.089   0.592  17.787 -0.0474 -2.0832 -2.1310
  156SAPE  H11B17323   1.223   0.514  17.714 -0.4612 -0.7012 -0.9692
  156SAPE     P17324   1.138   0.652  17.491 -0.6009  0.3551  0.5014
  156SAPE   O1317325   1.232   0.699  17.390 -0.2822  0.3266  0.2611
  156SAPE   O1417326   1.117   0.508  17.485  0.2949  0.3089  0.1811
  156SAPE   O1217327   1.178   0.701  17.637  0.0950  0.0921 -0.0576
  156SAPE   O1117328   1.004   0.715  17.462  0.3773 -1.4679 -0.0804
  156SAPE    C117329   0.970   0.853  17.507 -0.1509  0.0752 -0.1154
  156SAPE    HA17330   1.058   0.921  17.511  0.6192 -0.7715 -1.8460
  156SAPE    HB17331   0.907   0.906  17.433  1.1795 -1.3293 -2.3678
  156SAPE    C217332   0.902   0.850  17.651 -0.6604 -0.0538  0.0712
  156SAPE    HS17333   0.976   0.803  17.720  1.0897  0.6562 -1.2478
  156SAPE   O2117334   0.772   0.779  17.632 -0.0317 -0.0590 -0.6171
  156SAPE   C2117335   0.736   0.712  17.740 -0.2983  0.8172  0.6903
  156SAPE   O2217336   0.808   0.679  17.836 -0.4370  0.6629  0.1841
  156SAPE   C2217337   0.579   0.687  17.724 -0.5031 -0.0036  0.4504
  156SAPE   H2R17338   0.533   0.786  17.743  0.3166  0.3326  0.7162
  156SAPE   H2S17339   0.561   0.649  17.621 -0.7198  0.0663  0.4632
  156SAPE    C317340   0.882   0.988  17.713  0.5947  0.1266  0.2215
  156SAPE    HX17341   0.820   1.050  17.644  0.8709 -0.1670 -0.3032
  156SAPE    HY17342   0.975   1.048  17.722  0.3120  0.7744 -0.9176
  156SAPE   O3117343   0.810   0.967  17.840  0.2008 -0.8692 -0.0105
  156SAPE   C3117344   0.898   0.930  17.935  0.6509  0.4666  0.8829
  156SAPE   O3217345   1.021   0.922  17.915 -0.2770  0.2371 -0.0935
  156SAPE   C3217346   0.821   0.888  18.060 -0.4955  0.4507  0.5511
  156SAPE   H2X17347   0.867   0.923  18.155 -1.4786 -2.3053  2.1749
  156SAPE   H2Y17348   0.817   0.777  18.065 -0.0341  0.4045  0.0349
  156SAPE   C2317349   0.519   0.587  17.830  0.9075 -0.4678  0.2447
  156SAPE   H3R17350   0.532   0.629  17.932  3.0457 -1.8561  0.6020
  156SAPE   H3S17351   0.572   0.493  17.807  0.2278 -0.5203 -1.2423
  156SAPE   C2417352   0.368   0.568  17.800 -0.0175  0.1816 -0.5743
  156SAPE   H4R17353   0.352   0.505  17.710 -0.0576 -0.6553  0.0084
  156SAPE   H4S17354   0.318   0.668  17.798 -1.6373 -0.5449  0.7163
  156SAPE   C2517355   0.311   0.480  17.911  0.3615 -0.3360 -0.5855
  156SAPE   H5R17356   0.335   0.373  17.906  3.2410  0.1513  0.8450
  156SAPE   C2617357   0.216   0.523  17.999  0.3402  0.1283 -0.1240
  156SAPE   H6R17358   0.181   0.441  18.063  1.3131 -0.4800 -0.3440
  156SAPE   C2717359   0.152   0.661  18.028  0.0216  0.1039 -0.2340
  156SAPE   H7R17360   0.213   0.749  17.997 -0.9078  0.3679 -1.3835
  156SAPE   H7S17361   0.136   0.678  18.136  0.5778  1.6004 -0.3552
  156SAPE   C2817362   0.027   0.656  17.949 -0.0789  0.3681  0.0890
  156SAPE   H8R17363   0.036   0.622  17.845  1.3415  0.2582  0.2294
  156SAPE   C2917364  -0.096   0.686  17.999  0.9034 -0.4359  0.0446
  156SAPE   H9R17365  -0.178   0.691  17.927  0.2355  0.6222  0.8420
  156SAPE  C21017366  -0.126   0.749  18.136  0.2935 -0.4442  0.0437
  156SAPE  H10R17367  -0.056   0.834  18.154  1.8392 -1.2267 -1.9002
  156SAPE  H10S17368  -0.111   0.667  18.209 -0.1488 -3.0939 -2.6428
  156SAPE  C21117369  -0.272   0.807  18.154 -0.4502 -0.3453  0.4740
  156SAPE  H11R17370  -0.301   0.895  18.095 -0.7791 -0.0596  1.0481
  156SAPE  C21217371  -0.356   0.779  18.252 -0.1137 -0.2383 -0.3610
  156SAPE  H12R17372  -0.455   0.827  18.263 -0.1343 -0.4939  0.7278
  156SAPE  C21317373  -0.330   0.684  18.357 -0.5300  0.2465  0.2555
  156SAPE  H13R17374  -0.276   0.594  18.320  0.0369  1.1031 -1.0744
  156SAPE  H13S17375  -0.433   0.650  18.383 -0.9735  0.7736 -0.7563
  156SAPE  C21417376  -0.264   0.721  18.486 -0.0112 -0.2160  0.5716
  156SAPE  H14R17377  -0.310   0.810  18.531 -0.3387 -0.8649  1.5697
  156SAPE  C21517378  -0.158   0.671  18.545 -0.2092  0.6520 -0.1263
  156SAPE  H15R17379  -0.120   0.711  18.640  1.9078  1.9473 -1.4493
  156SAPE  C21617380  -0.074   0.552  18.498  0.4353  0.1994  0.1749
  156SAPE  H16R17381  -0.114   0.512  18.402 -1.0957 -2.2720  1.7112
  156SAPE  H16S17382  -0.089   0.476  18.577 -1.4072 -1.2890 -1.4859
  156SAPE  C21717383   0.074   0.584  18.485  0.5780 -0.2181 -0.2000
  156SAPE  H17R17384   0.108   0.620  18.584  1.9105 -0.1719 -0.6510
  156SAPE  H17S17385   0.080   0.648  18.394 -1.3141 -2.4127 -2.0151
  156SAPE  C21817386   0.145   0.460  18.442 -0.0458 -0.0938 -0.5062
  156SAPE  H18R17387   0.090   0.419  18.355  0.1499  0.0113 -0.6780
  156SAPE  H18S17388   0.124   0.387  18.524  1.0206  0.0534 -0.0895
  156SAPE  C21917389   0.286   0.473  18.397 -0.2463 -0.1691  0.3508
  156SAPE  H19R17390   0.291   0.546  18.314  1.4903 -0.6154  0.0215
  156SAPE  H19S17391   0.317   0.375  18.355 -0.4123  0.0554 -0.2996
  156SAPE  C22017392   0.380   0.527  18.509  0.7820  0.0881 -0.1320
  156SAPE  H20R17393   0.482   0.544  18.470  0.6814  2.4200  0.5103
  156SAPE  H20S17394   0.384   0.455  18.594  3.0473 -1.0431 -1.1101
  156SAPE  H20T17395   0.342   0.623  18.549  1.1789  1.0712 -2.0471
  156SAPE   C3317396   0.677   0.937  18.055 -0.0322 -0.1313  0.4813
  156SAPE   H3X17397   0.610   0.900  17.974  0.8207  0.8613 -0.7170
  156SAPE   H3Y17398   0.668   1.047  18.057 -0.8384 -0.1921  0.7300
  156SAPE   C3417399   0.597   0.901  18.183 -0.0275 -0.3056  0.5639
  156SAPE   H4X17400   0.643   0.918  18.282  1.2687 -1.0941  0.1206
  156SAPE   H4Y17401   0.580   0.791  18.187  0.2215 -0.3213  1.2403
  156SAPE   C3517402   0.459   0.964  18.188  0.0072 -0.6803 -0.1450
  156SAPE   H5X17403   0.394   0.923  18.107 -0.0352 -0.5034 -0.2006
  156SAPE   H5Y17404   0.462   1.074  18.179 -2.6232 -0.4550  0.8796
  156SAPE   C3617405   0.383   0.941  18.314  0.0109 -0.4594  0.2579
  156SAPE   H6X17406   0.441   0.982  18.400 -1.1549 -0.2017  0.9444
  156SAPE   H6Y17407   0.401   0.831  18.325  3.6818 -0.1679 -1.4484
  156SAPE   C3717408   0.244   0.992  18.308 -0.3180  0.1659  0.0926
  156SAPE   H7X17409   0.194   0.923  18.237  0.1683  1.9462 -2.1066
  156SAPE   H7Y17410   0.247   1.098  18.272  1.1244  0.6676  1.5785
  156SAPE   C3817411   0.181   0.970  18.445 -0.1761 -0.7994  0.0120
  156SAPE   H8X17412   0.223   1.054  18.505  0.5369  0.2917 -1.8936
  156SAPE   H8Y17413   0.216   0.870  18.478  0.1671 -0.5182  0.5253
  156SAPE   C3917414   0.031   0.972  18.452 -0.4333  0.4419  0.3208
  156SAPE   H9X17415  -0.001   0.969  18.559 -1.5658 -0.5643 -0.0250
  156SAPE   H9Y17416  -0.024   0.890  18.401  1.2529 -0.7387  0.3114
  156SAPE  C31017417  -0.038   1.106  18.406 -0.5237  0.4937  0.3670
  156SAPE  H10X17418  -0.021   1.111  18.297 -2.1346  0.2016  0.0794
  156SAPE  H10Y17419   0.024   1.188  18.447  0.9737  0.5825 -1.9149
  156SAPE  C31117420  -0.190   1.105  18.444  0.3143  0.2567  0.2699
  156SAPE  H11X17421  -0.206   1.100  18.554 -0.0446 -2.9855  0.1844
  156SAPE  H11Y17422  -0.241   1.016  18.401  1.1238  0.3847 -1.0144
  156SAPE  C31217423  -0.262   1.232  18.396  0.6294  0.1617  0.7389
  156SAPE  H12X17424  -0.231   1.233  18.289 -0.0589 -0.1140  0.5305
  156SAPE  H12Y17425  -0.221   1.314  18.458 -0.0991 -1.6138  3.7984
  156SAPE  C31317426  -0.416   1.212  18.415 -0.1099  0.4112 -0.6272
  156SAPE  H13X17427  -0.457   1.210  18.519 -0.4206  0.2014 -0.7516
  156SAPE  H13Y17428  -0.430   1.104  18.392  1.8423  0.7474 -3.9315
  156SAPE  C31417429  -0.502   1.298  18.323 -0.2243  0.1184  0.0394
  156SAPE  H14X17430  -0.473   1.292  18.216 -1.3793  1.6263 -0.3952
  156SAPE  H14Y17431  -0.501   1.404  18.359  2.2152  0.8555 -1.9422
  156SAPE  C31517432  -0.645   1.240  18.331  0.5656 -0.1591  0.0246
  156SAPE  H15X17433  -0.672   1.243  18.439  0.5481 -2.2723  0.1246
  156SAPE  H15Y17434  -0.640   1.143  18.278 -1.0502 -0.6208  0.6422
  156SAPE  C31617435  -0.743   1.333  18.261  0.2892 -0.2791 -0.1781
  156SAPE  H16X17436  -0.737   1.437  18.301  2.4833 -1.1484  2.0151
  156SAPE  H16Y17437  -0.846   1.297  18.282  1.2443 -2.8712  0.4624
  156SAPE  C31717438  -0.744   1.328  18.104  0.0537 -0.3178 -0.2871
  156SAPE  H17X17439  -0.639   1.330  18.066 -0.3544 -0.9185 -1.4989
  156SAPE  H17Y17440  -0.791   1.417  18.058  0.1630 -1.3155 -2.4807
  156SAPE  C31817441  -0.823   1.206  18.045  0.3650 -1.0121 -0.1652
  156SAPE  H18X17442  -0.796   1.114  18.101 -0.3444 -1.5463 -0.6971
  156SAPE  H18Y17443  -0.822   1.199  17.935  0.1725  1.4398 -0.3863
  156SAPE  H18Z17444  -0.931   1.226  18.059  0.0155 -1.3911 -2.1170
  157SAPE     N17445   1.981   3.207  18.777  1.0476  0.4460 -0.1722
  157SAPE   HN117446   1.941   3.116  18.748  1.3924 -0.3493  1.7097
  157SAPE   HN217447   1.924   3.238  18.858  0.2452 -1.7285  0.1679
  157SAPE   HN317448   1.993   3.272  18.696  2.9898  0.5543  0.1556
  157SAPE   C1217449   2.115   3.157  18.820 -0.2027 -0.4697 -0.0582
  157SAPE  H12A17450   2.173   3.248  18.849 -1.3260  0.7675 -1.5277
  157SAPE  H12B17451   2.160   3.103  18.734  2.2639  2.1326 -0.5576
  157SAPE   C1117452   2.107   3.057  18.937  0.4162  0.5259  0.2378
  157SAPE  H11A17453   2.053   3.094  19.027 -0.2888  1.7736 -0.6635
  157SAPE  H11B17454   2.211   3.037  18.971 -0.6935 -1.6050  2.7387
  157SAPE     P17455   1.918   2.875  18.882  0.2059 -0.0126  0.3742
  157SAPE   O1317456   1.837   2.978  18.812 -0.4718 -0.3435  0.5151
  157SAPE   O1417457   1.910   2.740  18.829  0.3002  0.4085 -0.3651
  157SAPE   O1217458   2.063   2.930  18.884  0.4840 -0.9615 -0.1488
  157SAPE   O1117459   1.870   2.873  19.025  0.4435 -0.0559 -0.2573
  157SAPE    C117460   1.949   2.823  19.136  0.2287  0.8319  0.5440
  157SAPE    HA17461   2.004   2.732  19.103  1.8919  1.8166  0.5059
  157SAPE    HB17462   2.022   2.903  19.162  0.3354  0.0229  2.9438
  157SAPE    C217463   1.862   2.793  19.258 -0.1281  0.7348  0.3395
  157SAPE    HS17464   1.843   2.888  19.312  1.2085  1.2929 -0.1221
  157SAPE   O2117465   1.936   2.700  19.339  0.8531  0.3612 -0.1077
  157SAPE   C2117466   2.004   2.759  19.435  0.9136  0.5703  0.7687
  157SAPE   O2217467   1.992   2.876  19.464  0.2640 -0.0174 -0.1726
  157SAPE   C2217468   2.090   2.662  19.517  0.3154  0.5711  0.0079
  157SAPE   H2R17469   2.144   2.721  19.593  1.1432  0.2469 -0.3240
  157SAPE   H2S17470   2.028   2.589  19.574  2.9773 -2.1840 -0.3794
  157SAPE    C317471   1.722   2.743  19.228  0.6250 -0.1482  0.4144
  157SAPE    HX17472   1.709   2.651  19.167 -0.9034 -0.1621  0.7174
  157SAPE    HY17473   1.675   2.825  19.169  2.2009  0.5871  0.1451
  157SAPE   O3117474   1.658   2.726  19.353  0.1206 -0.3908 -0.3546
  157SAPE   C3117475   1.537   2.677  19.351  0.0113 -0.5274  0.6182
  157SAPE   O3217476   1.484   2.648  19.244  0.0286 -0.0876 -0.0866
  157SAPE   C3217477   1.480   2.650  19.490  0.1122 -0.1382 -0.1805
  157SAPE   H2X17478   1.561   2.659  19.565 -1.2222  0.2682  1.2620
  157SAPE   H2Y17479   1.448   2.543  19.493 -1.3354  0.2887  1.1334
  157SAPE   C2317480   2.188   2.586  19.427  0.5722  0.1177 -0.1136
  157SAPE   H3R17481   2.245   2.647  19.355 -0.3672 -0.7237 -1.6272
  157SAPE   H3S17482   2.116   2.525  19.368 -2.6182  3.3639  0.0502
  157SAPE   C2417483   2.273   2.481  19.507  0.1440 -0.6696 -0.6342
  157SAPE   H4R17484   2.189   2.421  19.547 -0.2007  1.0048  1.3473
  157SAPE   H4S17485   2.312   2.541  19.593 -0.9013  1.1778 -1.3758
  157SAPE   C2517486   2.377   2.402  19.425  0.4742 -0.1740 -0.1018
  157SAPE   H5R17487   2.362   2.395  19.316 -1.2832  1.2551  0.0075
  157SAPE   C2617488   2.486   2.355  19.489 -0.7221  0.1214 -0.5065
  157SAPE   H6R17489   2.574   2.312  19.441  1.1923  0.2593  2.5640
  157SAPE   C2717490   2.523   2.367  19.637  0.0198  0.2567 -0.6376
  157SAPE   H7R17491   2.511   2.476  19.652  0.5174  0.1205  0.8783
  157SAPE   H7S17492   2.627   2.340  19.662  0.0535  1.9636  1.3621
  157SAPE   C2817493   2.424   2.296  19.731 -0.1421 -0.0460  0.4738
  157SAPE   H8R17494   2.329   2.261  19.688 -0.5030 -0.7241  1.7553
  157SAPE   C2917495   2.451   2.259  19.856 -0.0996 -0.0146 -0.7867
  157SAPE   H9R17496   2.375   2.195  19.903 -0.3133  0.2742 -0.7387
  157SAPE  C21017497   2.579   2.292  19.940 -0.3684  0.3610 -0.5615
  157SAPE  H10R17498   2.568   2.360  20.027 -1.1119  1.3980 -1.4531
  157SAPE  H10S17499   2.638   2.365  19.881  0.8616 -0.6558 -0.6411
  157SAPE  C21117500   2.658   2.166  19.953 -0.3106  0.0375 -0.1409
  157SAPE  H11R17501   2.718   2.144  19.864  0.7348  1.5611  0.1305
  157SAPE  C21217502   2.676   2.095  20.065  0.0682 -0.3075 -0.0336
  157SAPE  H12R17503   2.740   2.005  20.060 -0.8566 -0.9684 -0.1637
  157SAPE  C21317504   2.604   2.117  20.194 -0.5313  0.2780  0.5241
  157SAPE  H13R17505   2.496   2.097  20.176 -0.2160 -0.4630 -0.6473
  157SAPE  H13S17506   2.625   2.216  20.240 -1.9591 -0.2688  2.5074
  157SAPE  C21417507   2.653   2.029  20.308 -0.2095 -0.3010  0.7010
  157SAPE  H14R17508   2.734   2.076  20.366  0.4208 -0.7487  0.1899
  157SAPE  C21517509   2.578   1.933  20.366 -0.7204  0.9633 -0.3668
  157SAPE  H15R17510   2.620   1.889  20.458 -1.6430  0.0146 -0.3720
  157SAPE  C21617511   2.465   1.858  20.311  0.0997  1.1563 -0.6387
  157SAPE  H16R17512   2.504   1.775  20.248 -3.1641 -0.8287 -0.3172
  157SAPE  H16S17513   2.415   1.918  20.232 -1.5515 -1.0572 -1.4015
  157SAPE  C21717514   2.358   1.807  20.413 -0.1235 -0.4683 -0.6929
  157SAPE  H17R17515   2.309   1.896  20.456 -0.6582 -1.7981  1.5749
  157SAPE  H17S17516   2.407   1.742  20.489  0.9272  0.6803 -0.3579
  157SAPE  C21817517   2.250   1.714  20.354  1.0621 -0.6161 -0.2774
  157SAPE  H18R17518   2.306   1.623  20.324  1.9456 -0.4782  0.8822
  157SAPE  H18S17519   2.209   1.767  20.265 -1.4337 -0.8203  0.6689
  157SAPE  C21917520   2.131   1.677  20.443 -0.2786  0.0453 -0.6024
  157SAPE  H19R17521   2.058   1.762  20.442 -0.6589 -0.2671 -0.1640
  157SAPE  H19S17522   2.170   1.669  20.547  3.1029 -2.9959 -1.9393
  157SAPE  C22017523   2.051   1.552  20.403  0.0980  0.0156  0.0034
  157SAPE  H20R17524   2.117   1.462  20.399 -0.0859 -0.2367  1.7689
  157SAPE  H20S17525   2.011   1.570  20.302 -0.3309  1.3539  0.4017
  157SAPE  H20T17526   1.968   1.539  20.476 -0.4437  1.3204 -0.3684
  157SAPE   C3317527   1.358   2.739  19.525  0.8484 -0.0620  0.0484
  157SAPE   H3X17528   1.290   2.758  19.439  2.3429  2.0193 -0.7458
  157SAPE   H3Y17529   1.403   2.839  19.544  2.5375 -0.8431  0.2734
  157SAPE   C3417530   1.280   2.691  19.650  0.7242 -0.6629  1.0442
  157SAPE   H4X17531   1.353   2.685  19.733  2.8883 -0.6391 -0.7615
  157SAPE   H4Y17532   1.249   2.586  19.629  0.5598  0.0075 -2.6379
  157SAPE   C3517533   1.158   2.776  19.687  0.0474  0.0080  0.3906
  157SAPE   H5X17534   1.077   2.772  19.612  0.9691 -0.9101 -0.5988
  157SAPE   H5Y17535   1.190   2.881  19.701 -1.2016  0.8441 -2.4021
  157SAPE   C3617536   1.106   2.725  19.822  0.2937  0.0229 -0.6721
  157SAPE   H6X17537   1.184   2.751  19.897  0.6578  0.1753 -1.0983
  157SAPE   H6Y17538   1.088   2.616  19.812 -1.4090  0.2943 -0.8044
  157SAPE   C3717539   0.973   2.800  19.864  0.1582 -0.2916  0.1897
  157SAPE   H7X17540   0.900   2.762  19.790  1.9632 -2.9998 -0.3707
  157SAPE   H7Y17541   0.978   2.911  19.862 -3.1935  0.0847  2.9772
  157SAPE   C3817542   0.904   2.755  19.994 -0.2588  0.6927  0.3231
  157SAPE   H8X17543   0.906   2.644  19.990  1.2344  0.7431 -1.9828
  157SAPE   H8Y17544   0.795   2.776  19.997 -1.3325 -3.8915  2.9959
  157SAPE   C3917545   0.982   2.803  20.116 -0.6737  0.2521  0.4416
  157SAPE   H9X17546   0.995   2.913  20.111  2.9462 -0.1233 -1.6425
  157SAPE   H9Y17547   1.081   2.755  20.101 -0.7657 -0.0655  0.8021
  157SAPE  C31017548   0.910   2.770  20.245 -0.7488 -0.2690 -0.2331
  157SAPE  H10X17549   0.898   2.659  20.246  0.6609 -0.5327 -2.9018
  157SAPE  H10Y17550   0.810   2.818  20.243 -0.7071 -0.2065 -1.7240
  157SAPE  C31117551   0.987   2.811  20.371  0.1205  0.7938  0.1831
  157SAPE  H11X17552   1.004   2.920  20.363  1.5584  0.5127 -1.0347
  157SAPE  H11Y17553   1.088   2.768  20.389  0.7060  2.3336  0.6509
  157SAPE  C31217554   0.902   2.780  20.496  0.2004 -0.0602  0.2379
  157SAPE  H12X17555   0.796   2.806  20.477  0.2537  0.7220  0.9216
  157SAPE  H12Y17556   0.936   2.854  20.572 -0.3711  3.0440 -2.3532
  157SAPE  C31317557   0.914   2.642  20.553  0.3140 -0.0752 -0.5958
  157SAPE  H13X17558   1.017   2.604  20.538 -0.3101 -2.3721  0.4567
  157SAPE  H13Y17559   0.846   2.581  20.490  1.1395  0.9649 -2.5854
  157SAPE  C31417560   0.866   2.615  20.702 -0.7632  0.6255 -0.3760
  157SAPE  H14X17561   0.930   2.662  20.780 -0.3725  0.0578 -0.3470
  157SAPE  H14Y17562   0.869   2.505  20.714 -0.6887  0.7303  0.6510
  157SAPE  C31517563   0.724   2.666  20.726 -0.5185  0.0962 -0.7841
  157SAPE  H15X17564   0.658   2.614  20.653  1.3220 -2.7944 -0.5393
  157SAPE  H15Y17565   0.732   2.776  20.708  1.8835  0.4842  1.9656
  157SAPE  C31617566   0.680   2.645  20.871 -0.2911  0.6195  0.5214
  157SAPE  H16X17567   0.594   2.708  20.903 -2.4011 -1.5921 -0.5173
  157SAPE  H16Y17568   0.757   2.674  20.946 -0.0384 -2.3343  1.5334
  157SAPE  C31717569   0.624   2.503  20.911 -0.3937 -0.1741 -0.4026
  157SAPE  H17X17570   0.707   2.430  20.894  0.4357  0.4703  0.6844
  157SAPE  H17Y17571   0.546   2.485  20.835 -0.4747 -0.1028 -0.3354
  157SAPE  C31817572   0.569   2.482  21.047  0.2427  0.1055 -0.2289
  157SAPE  H18X17573   0.533   2.378  21.055 -0.5540  0.5146  3.7278
  157SAPE  H18Y17574   0.487   2.551  21.075  1.2442  0.6960  1.3941
  157SAPE  H18Z17575   0.650   2.488  21.123  0.4488  1.1701 -0.5050
  158SAPE     N17576   1.638   1.308  16.628 -0.0032 -0.1732  0.1303
  158SAPE   HN117577   1.642   1.204  16.639  1.9388 -0.1901 -0.4052
  158SAPE   HN217578   1.734   1.334  16.598 -0.6441  2.4142  0.0909
  158SAPE   HN317579   1.625   1.354  16.721 -0.9201 -0.6800  0.2670
  158SAPE   C1217580   1.545   1.377  16.527 -0.5611 -0.3250 -0.5287
  158SAPE  H12A17581   1.604   1.462  16.486 -0.7583 -1.0049 -2.2953
  158SAPE  H12B17582   1.459   1.414  16.587  1.1119 -1.2712  2.7020
  158SAPE   C1117583   1.497   1.280  16.420 -0.4953  0.5926 -0.5232
  158SAPE  H11A17584   1.421   1.313  16.346  0.6622  0.0575 -1.9966
  158SAPE  H11B17585   1.450   1.193  16.470  1.4729 -1.7616 -2.4901
  158SAPE     P17586   1.695   1.299  16.241 -0.4518  0.0089 -0.8690
  158SAPE   O1317587   1.670   1.243  16.110  0.0215  0.1266 -0.1973
  158SAPE   O1417588   1.676   1.448  16.250  0.4277  0.3931 -0.2104
  158SAPE   O1217589   1.608   1.222  16.356 -0.2236  0.4232 -0.4490
  158SAPE   O1117590   1.847   1.255  16.287  0.2110  0.4239 -0.3076
  158SAPE    C117591   1.879   1.121  16.307 -0.4874 -0.2444  0.4538
  158SAPE    HA17592   1.831   1.077  16.397 -1.4955  0.1620  0.1369
  158SAPE    HB17593   1.852   1.062  16.216  0.2095 -0.0361  0.1081
  158SAPE    C217594   2.028   1.105  16.320  0.5392  0.1306 -0.2032
  158SAPE    HS17595   2.068   1.140  16.418  2.1778 -0.4107 -0.6458
  158SAPE   O2117596   2.093   1.182  16.216 -0.2929 -0.2110 -0.2423
  158SAPE   C2117597   2.169   1.286  16.249  0.2141  0.2859 -0.6280
  158SAPE   O2217598   2.224   1.302  16.358 -0.2690  0.5007 -0.2259
  158SAPE   C2217599   2.199   1.361  16.126  0.2214 -0.2639  0.1413
  158SAPE   H2R17600   2.219   1.290  16.042  0.3098  0.5458 -0.5325
  158SAPE   H2S17601   2.100   1.410  16.111 -0.4921 -2.0589 -1.5665
  158SAPE    C317602   2.075   0.960  16.312 -0.9720  0.6723  0.6759
  158SAPE    HX17603   2.053   0.940  16.205 -0.3988  0.9352  0.5070
  158SAPE    HY17604   2.025   0.889  16.382  0.8686 -2.2665 -0.7679
  158SAPE   O3117605   2.222   0.949  16.321 -0.0196  0.8349  0.0410
  158SAPE   C3117606   2.261   0.949  16.450 -0.4137  0.4076 -0.2759
  158SAPE   O3217607   2.195   0.969  16.548  0.1237 -0.2380 -0.1753
  158SAPE   C3217608   2.412   0.922  16.458 -0.6912 -0.0269 -0.5639
  158SAPE   H2X17609   2.452   1.022  16.431 -0.2295  0.5417  1.9617
  158SAPE   H2Y17610   2.452   0.839  16.396 -1.5051 -1.1849  0.4164
  158SAPE   C2317611   2.299   1.476  16.153 -0.0440  0.4425 -0.0009
  158SAPE   H3R17612   2.265   1.535  16.241  1.2664  2.7546 -0.9647
  158SAPE   H3S17613   2.293   1.548  16.069 -1.9983  0.5019  0.1484
  158SAPE   C2417614   2.445   1.431  16.195  0.2812 -0.3841  0.3044
  158SAPE   H4R17615   2.446   1.355  16.276  1.3375 -1.1509 -0.4084
  158SAPE   H4S17616   2.490   1.521  16.242 -0.6605  0.2275  0.0576
  158SAPE   C2517617   2.504   1.368  16.071 -0.0983 -0.0604  0.1746
  158SAPE   H5R17618   2.484   1.421  15.977  2.2859 -0.7480 -0.7861
  158SAPE   C2617619   2.580   1.254  16.074 -0.2939 -0.4179  0.3581
  158SAPE   H6R17620   2.621   1.214  15.980  0.2959  0.7329  0.1063
  158SAPE   C2717621   2.611   1.168  16.201 -0.4364 -0.5055 -0.1085
  158SAPE   H7R17622   2.546   1.078  16.199 -0.4138 -0.5211 -1.6050
  158SAPE   H7S17623   2.593   1.225  16.295 -0.4936  1.0744 -1.0317
  158SAPE   C2817624   2.759   1.135  16.195  0.2550 -0.4705 -0.0252
  158SAPE   H8R17625   2.827   1.203  16.142  0.0296 -0.1903  0.0360
  158SAPE   C2917626   2.813   1.023  16.237  0.0416  0.5843 -0.7957
  158SAPE   H9R17627   2.920   1.005  16.219  0.0675  0.2610 -0.3496
  158SAPE  C21017628   2.740   0.909  16.305 -0.4593  0.0691  0.1139
  158SAPE  H10R17629   2.654   0.958  16.356 -0.5063  1.8016 -1.5260
  158SAPE  H10S17630   2.797   0.860  16.387  1.1652  2.4308  0.5133
  158SAPE  C21117631   2.689   0.797  16.219 -0.1358 -0.1080 -0.9202
  158SAPE  H11R17632   2.586   0.813  16.184 -0.2203  0.6396 -0.3265
  158SAPE  C21217633   2.750   0.682  16.187  0.7219 -0.0616 -0.0901
  158SAPE  H12R17634   2.687   0.609  16.134  0.0521  0.3148  0.1718
  158SAPE  C21317635   2.883   0.636  16.237  0.4450  0.3374 -0.2479
  158SAPE  H13R17636   2.972   0.695  16.208  2.3011 -0.9317  2.3943
  158SAPE  H13S17637   2.910   0.542  16.184 -2.2341 -0.0708 -1.0459
  158SAPE  C21417638   2.900   0.616  16.391 -0.3071 -0.9114  0.3856
  158SAPE  H14R17639   2.971   0.690  16.430 -1.3492  0.7610 -0.7955
  158SAPE  C21517640   2.851   0.513  16.463 -0.8159 -0.5195 -0.4338
  158SAPE  H15R17641   2.872   0.508  16.571  0.4309 -2.2635 -0.7138
  158SAPE  C21617642   2.757   0.403  16.407 -0.1961 -0.3746 -1.0062
  158SAPE  H16R17643   2.799   0.304  16.433  3.3784  1.0638 -0.6530
  158SAPE  H16S17644   2.749   0.417  16.297 -0.7230 -0.0613 -0.9304
  158SAPE  C21717645   2.618   0.421  16.478 -0.2413  0.1094 -0.1103
  158SAPE  H17R17646   2.553   0.345  16.430  0.3916 -1.6536  1.6927
  158SAPE  H17S17647   2.576   0.520  16.448  0.4923 -0.5057 -3.5273
  158SAPE  C21817648   2.605   0.413  16.631 -0.5798  1.0175  0.3215
  158SAPE  H18R17649   2.689   0.464  16.682  0.4213  0.3400 -0.5960
  158SAPE  H18S17650   2.634   0.309  16.659 -0.6994  0.8474 -0.1593
  158SAPE  C21917651   2.471   0.456  16.681 -0.4706  0.6121 -0.1335
  158SAPE  H19R17652   2.397   0.395  16.625  0.4542 -0.0579 -0.6569
  158SAPE  H19S17653   2.441   0.562  16.663  1.8142  1.4892  0.8524
  158SAPE  C22017654   2.445   0.452  16.833  1.0602  0.9326 -0.2278
  158SAPE  H20R17655   2.494   0.362  16.877 -2.1781 -2.8921 -3.6206
  158SAPE  H20S17656   2.335   0.444  16.846  1.1980 -0.5288  0.2451
  158SAPE  H20T17657   2.480   0.544  16.884 -2.5654  2.4888 -0.2121
  158SAPE   C3317658   2.445   0.879  16.605  0.1729 -1.0970  0.4388
  158SAPE   H3X17659   2.400   0.784  16.642  0.3562 -0.5103  2.2293
  158SAPE   H3Y17660   2.417   0.968  16.665  0.4421 -1.6628  1.4323
  158SAPE   C3417661   2.596   0.861  16.635  0.4342  0.6005  0.1365
  158SAPE   H4X17662   2.653   0.952  16.609  2.5479 -0.4755  0.7922
  158SAPE   H4Y17663   2.638   0.788  16.562 -0.2734 -0.2492  0.5531
  158SAPE   C3517664   2.621   0.829  16.775  0.9430 -0.0166 -0.2269
  158SAPE   H5X17665   2.731   0.822  16.790  1.2379  0.1560 -2.0970
  158SAPE   H5Y17666   2.576   0.731  16.803 -1.0105  0.8405 -0.1661
  158SAPE   C3617667   2.576   0.928  16.881 -0.1044 -0.3347 -0.7140
  158SAPE   H6X17668   2.466   0.941  16.886  0.2467  4.7562 -0.7764
  158SAPE   H6Y17669   2.617   1.030  16.862 -1.4022  0.4363  0.4256
  158SAPE   C3717670   2.624   0.877  17.022 -0.3998  0.1716 -0.4364
  158SAPE   H7X17671   2.565   0.789  17.055 -0.2089  0.6406  1.3117
  158SAPE   H7Y17672   2.726   0.834  17.013 -0.3005  0.3881 -0.3632
  158SAPE   C3817673   2.616   0.971  17.138 -0.2230 -0.2760 -0.0483
  158SAPE   H8X17674   2.615   0.900  17.224 -0.7379 -0.1891  0.0215
  158SAPE   H8Y17675   2.514   1.013  17.126  0.1337  0.7241  0.3078
  158SAPE   C3917676   2.721   1.086  17.140  0.1041  0.2426 -0.3128
  158SAPE   H9X17677   2.682   1.156  17.217  0.9301  1.7707 -1.2271
  158SAPE   H9Y17678   2.742   1.142  17.046  1.3796  2.1924  1.0463
  158SAPE  C31017679   2.850   1.040  17.196  0.2082  0.3494 -0.0682
  158SAPE  H10X17680   2.898   0.963  17.131  1.7060  0.9689  0.2586
  158SAPE  H10Y17681   2.832   0.989  17.293 -1.0594  2.6159  0.9572
  158SAPE  C31117682   2.960   1.148  17.210 -0.3392 -0.7192  0.0582
  158SAPE  H11X17683   2.981   1.199  17.114 -2.8493  0.4461  0.0414
  158SAPE  H11Y17684   3.054   1.089  17.225  0.4057  0.6070  0.7908
  158SAPE  C31217685   2.920   1.243  17.317 -0.4399  0.0160 -0.2024
  158SAPE  H12X17686   2.903   1.192  17.414  1.5364 -2.6971 -1.1504
  158SAPE  H12Y17687   2.825   1.294  17.292 -0.2098  0.4746 -0.1510
  158SAPE  C31317688   3.037   1.341  17.338  0.5242 -0.6371  0.2608
  158SAPE  H13X17689   3.002   1.420  17.408  1.0562  1.8882 -2.1217
  158SAPE  H13Y17690   3.051   1.406  17.249  0.9316 -0.2616  0.5932
  158SAPE  C31417691   3.170   1.300  17.397  0.9276  0.7509  0.6557
  158SAPE  H14X17692   3.240   1.386  17.391 -0.5398  1.9199 -0.6966
  158SAPE  H14Y17693   3.217   1.221  17.334  1.0309  2.7035 -1.8919
  158SAPE  C31517694   3.159   1.255  17.545  0.6335 -0.3315 -0.5287
  158SAPE  H15X17695   3.192   1.149  17.543  0.1597 -0.4769 -1.9664
  158SAPE  H15Y17696   3.052   1.245  17.574  0.1105  0.5152 -2.0391
  158SAPE  C31617697   3.234   1.336  17.654  0.5831 -0.4679 -0.0982
  158SAPE  H16X17698   3.183   1.315  17.751  0.3042 -1.3718 -0.4245
  158SAPE  H16Y17699   3.228   1.444  17.629  0.9313 -0.3950  0.1276
  158SAPE  C31717700   3.390   1.313  17.657  0.3474 -0.0144 -0.0629
  158SAPE  H17X17701   3.426   1.347  17.557 -0.3647 -1.3299 -0.8114
  158SAPE  H17Y17702   3.424   1.207  17.662  0.2678 -0.0201  0.3349
  158SAPE  C31817703   3.467   1.398  17.765  0.6433 -0.2120 -0.4804
  158SAPE  H18X17704   3.418   1.373  17.862 -0.3484  0.2328 -0.8515
  158SAPE  H18Y17705   3.460   1.508  17.756 -3.3601 -0.1025  1.4194
  158SAPE  H18Z17706   3.569   1.357  17.773  0.7512 -0.3772 -2.3750
  159SAPE     N17707   2.058   1.970  18.554  0.5832 -0.2633  0.0543
  159SAPE   HN117708   2.020   1.875  18.572  0.5145 -0.4687 -1.1044
  159SAPE   HN217709   2.120   2.009  18.628  1.3558  1.9028 -1.6241
  159SAPE   HN317710   1.978   2.035  18.544 -0.2391 -1.1191  0.8980
  159SAPE   C1217711   2.130   1.958  18.424 -0.2957 -0.4818 -0.3476
  159SAPE  H12A17712   2.212   1.882  18.429  1.2665  1.1908  0.9413
  159SAPE  H12B17713   2.170   2.059  18.403  1.8537  0.3185  5.5272
  159SAPE   C1117714   2.034   1.916  18.314 -0.0132 -0.6576  0.7103
  159SAPE  H11A17715   2.085   1.919  18.216 -1.1100 -1.1563  0.1057
  159SAPE  H11B17716   1.962   1.999  18.294  3.6856  2.7212  0.0405
  159SAPE     P17717   1.971   1.675  18.230 -0.1344 -0.0325  0.0248
  159SAPE   O1317718   1.874   1.580  18.285 -0.2028 -0.2991  0.0891
  159SAPE   O1417719   1.955   1.725  18.096 -0.0903 -0.1688  0.6435
  159SAPE   O1217720   1.968   1.792  18.332  0.1729 -0.1918  0.3955
  159SAPE   O1117721   2.115   1.611  18.242  0.8851  0.2326  0.1367
  159SAPE    C117722   2.157   1.578  18.374  0.2222  0.1997 -0.4573
  159SAPE    HA17723   2.205   1.669  18.416 -1.0540  1.5951 -1.8998
  159SAPE    HB17724   2.074   1.541  18.438 -0.0040  0.4430 -0.6097
  159SAPE    C217725   2.266   1.471  18.373  0.1223  0.2852  0.5805
  159SAPE    HS17726   2.249   1.422  18.471 -0.7984  1.3582  0.9792
  159SAPE   O2117727   2.400   1.524  18.351  0.1508 -0.2909  0.2657
  159SAPE   C2117728   2.500   1.467  18.405 -0.1572 -0.3580 -0.4402
  159SAPE   O2217729   2.494   1.363  18.474  0.3867 -0.2287 -0.0379
  159SAPE   C2217730   2.625   1.545  18.378  0.2556 -0.1452 -0.5182
  159SAPE   H2R17731   2.637   1.554  18.268  4.0231  2.3379 -0.0878
  159SAPE   H2S17732   2.616   1.648  18.417  0.9458 -0.4834  0.5763
  159SAPE    C317733   2.234   1.362  18.264  0.0386  0.4052 -0.2109
  159SAPE    HX17734   2.216   1.401  18.161 -0.7781  2.1221  0.5361
  159SAPE    HY17735   2.132   1.327  18.291 -0.0508  0.1499 -0.8453
  159SAPE   O3117736   2.324   1.246  18.272 -1.0935  0.2646  0.2414
  159SAPE   C3117737   2.420   1.248  18.183  0.2164  0.3473  0.2110
  159SAPE   O3217738   2.438   1.326  18.092  0.3575 -0.0960  0.3385
  159SAPE   C3217739   2.514   1.129  18.201 -0.2706  0.5260 -0.9682
  159SAPE   H2X17740   2.453   1.045  18.240  2.0384 -0.1965  1.3481
  159SAPE   H2Y17741   2.589   1.162  18.275 -1.2706  1.0447 -0.1677
  159SAPE   C2317742   2.762   1.492  18.433 -0.0755  0.0902  0.5912
  159SAPE   H3R17743   2.751   1.443  18.533  0.1032 -1.7981 -0.2621
  159SAPE   H3S17744   2.825   1.580  18.457  0.4977  0.5797 -2.3420
  159SAPE   C2417745   2.831   1.403  18.330  0.1823 -0.2911 -0.0337
  159SAPE   H4R17746   2.749   1.347  18.280 -0.0204  0.1238 -0.1717
  159SAPE   H4S17747   2.902   1.330  18.373  2.6847  0.6940 -2.2519
  159SAPE   C2517748   2.904   1.476  18.221  0.3537  0.5565 -0.6893
  159SAPE   H5R17749   2.846   1.501  18.131  0.6259  1.6648 -0.5722
  159SAPE   C2617750   3.007   1.551  18.252 -0.1276 -1.1868  0.4604
  159SAPE   H6R17751   3.057   1.605  18.171 -0.4867  1.0969  1.6580
  159SAPE   C2717752   3.086   1.566  18.377  0.1746 -0.7464 -0.2878
  159SAPE   H7R17753   3.028   1.529  18.464  1.1611  0.7933  1.0780
  159SAPE   H7S17754   3.100   1.670  18.412 -1.6311 -0.7486  0.5545
  159SAPE   C2817755   3.201   1.476  18.373 -0.1198  0.9511 -0.5296
  159SAPE   H8R17756   3.183   1.371  18.347  0.7099  0.5251  0.5384
  159SAPE   C2917757   3.327   1.505  18.402  0.0711 -0.9967  0.6656
  159SAPE   H9R17758   3.400   1.424  18.388  0.7425 -0.2102 -0.5696
  159SAPE  C21017759   3.382   1.638  18.441  0.1976  0.7098  0.2367
  159SAPE  H10R17760   3.386   1.643  18.552 -0.5846 -0.0005  0.3022
  159SAPE  H10S17761   3.310   1.722  18.426  2.0193  2.0359 -1.6057
  159SAPE  C21117762   3.507   1.673  18.376 -0.7181  0.1429  0.3599
  159SAPE  H11R17763   3.588   1.643  18.444  0.4635  0.8446 -0.7053
  159SAPE  C21217764   3.534   1.714  18.251  0.2447 -0.7142  0.1062
  159SAPE  H12R17765   3.640   1.720  18.223  0.0682  0.3908 -0.3642
  159SAPE  C21317766   3.436   1.756  18.140 -0.5854 -0.0615 -0.1595
  159SAPE  H13R17767   3.341   1.792  18.186 -0.6003  0.1654 -0.3638
  159SAPE  H13S17768   3.413   1.671  18.072 -0.3719  0.6613 -1.1439
  159SAPE  C21417769   3.495   1.880  18.077  0.8647 -0.0410 -0.1194
  159SAPE  H14R17770   3.530   1.953  18.152  0.9313 -2.0893  1.9586
  159SAPE  C21517771   3.498   1.908  17.947  0.0288 -0.9055 -0.1846
  159SAPE  H15R17772   3.548   2.004  17.927 -0.1818 -0.0583  2.8562
  159SAPE  C21617773   3.456   1.817  17.832  0.1671 -0.1248 -0.5065
  159SAPE  H16R17774   3.384   1.869  17.765  0.8070  2.4983  0.7163
  159SAPE  H16S17775   3.407   1.723  17.866 -0.6491  0.6193  0.4276
  159SAPE  C21717776   3.597   1.789  17.762 -0.5353  0.7792  0.3646
  159SAPE  H17R17777   3.642   1.889  17.743  1.2482 -0.0980 -0.3292
  159SAPE  H17S17778   3.584   1.742  17.662  1.4250  0.1484  0.3600
  159SAPE  C21817779   3.684   1.695  17.833  0.1286 -0.0993 -0.2060
  159SAPE  H18R17780   3.636   1.619  17.899 -0.2113 -0.2307 -0.5958
  159SAPE  H18S17781   3.740   1.754  17.907 -0.8712 -1.6805  1.9117
  159SAPE  C21917782   3.788   1.625  17.747 -0.2189  0.3105 -0.2713
  159SAPE  H19R17783   3.749   1.596  17.648  1.0075 -1.2781 -0.3361
  159SAPE  H19S17784   3.821   1.527  17.788  0.3540  0.5065 -0.2496
  159SAPE  C22017785   3.917   1.709  17.721 -0.1453 -0.2275 -0.0565
  159SAPE  H20R17786   3.967   1.727  17.818  1.9571  1.0003 -1.2775
  159SAPE  H20S17787   3.875   1.804  17.680  0.9504  1.3661  2.2773
  159SAPE  H20T17788   3.980   1.654  17.647 -2.3659 -0.4894 -1.8535
  159SAPE   C3317789   2.583   1.090  18.070 -0.2208  0.2784  0.2848
  159SAPE   H3X17790   2.523   1.108  17.978 -0.1869  2.9648  0.7085
  159SAPE   H3Y17791   2.595   0.980  18.065 -1.9098  0.0641  0.2498
  159SAPE   C3417792   2.724   1.150  18.060  0.3603 -0.1564 -0.6317
  159SAPE   H4X17793   2.779   1.096  18.140  0.1490 -1.1315 -1.1201
  159SAPE   H4Y17794   2.727   1.260  18.073 -1.0110  0.4612 -4.3986
  159SAPE   C3517795   2.781   1.125  17.921 -0.6910 -0.3874 -0.4029
  159SAPE   H5X17796   2.717   1.175  17.845  0.4182  1.9019  0.0815
  159SAPE   H5Y17797   2.769   1.017  17.899  0.9246 -0.2818 -2.1222
  159SAPE   C3617798   2.929   1.172  17.907 -0.6061  0.5944 -0.0718
  159SAPE   H6X17799   2.928   1.280  17.933  3.1098  0.8773 -0.6472
  159SAPE   H6Y17800   2.958   1.158  17.801 -1.8194 -3.2993 -0.0487
  159SAPE   C3717801   3.007   1.082  18.005 -0.6577 -0.2741  0.4357
  159SAPE   H7X17802   2.958   0.983  17.992 -1.1992  0.1349 -0.7815
  159SAPE   H7Y17803   2.979   1.129  18.102 -1.0131  0.5654 -0.0661
  159SAPE   C3817804   3.156   1.080  17.977 -1.2488  0.1317 -0.3439
  159SAPE   H8X17805   3.197   1.184  17.979 -2.1663  0.4941 -0.1327
  159SAPE   H8Y17806   3.188   1.035  17.880  2.2930  1.8784 -0.1557
  159SAPE   C3917807   3.239   1.003  18.082  1.0183  0.2357 -0.5451
  159SAPE   H9X17808   3.345   1.003  18.047  1.6765  0.3217  1.3340
  159SAPE   H9Y17809   3.209   0.896  18.084  0.9875  0.2488 -0.1181
  159SAPE  C31017810   3.242   1.071  18.225 -0.9083  0.0211 -0.4273
  159SAPE  H10X17811   3.141   1.056  18.267 -0.8116  2.1560  0.6725
  159SAPE  H10Y17812   3.255   1.181  18.211 -0.4437 -0.0938 -0.9187
  159SAPE  C31117813   3.351   0.996  18.303 -0.4555  0.4511 -0.8469
  159SAPE  H11X17814   3.452   1.030  18.272  0.5082 -1.2135  0.3436
  159SAPE  H11Y17815   3.335   0.890  18.274 -0.5146  0.3930 -0.6068
  159SAPE  C31217816   3.332   1.028  18.455 -0.0362  0.0274  1.1471
  159SAPE  H12X17817   3.226   0.997  18.470 -0.8624  1.9004 -0.4075
  159SAPE  H12Y17818   3.332   1.138  18.474  1.7766  0.1064  0.7945
  159SAPE  C31317819   3.435   0.964  18.555 -0.1604 -0.7584  0.4418
  159SAPE  H13X17820   3.443   0.853  18.564  0.6646 -0.6708  0.9581
  159SAPE  H13Y17821   3.398   0.996  18.654  0.7907  1.5898  0.0837
  159SAPE  C31417822   3.570   1.016  18.535 -0.2262 -0.3805  0.1490
  159SAPE  H14X17823   3.561   1.123  18.506  0.4138 -0.5251 -0.6520
  159SAPE  H14Y17824   3.624   0.979  18.445  0.3606  0.4000  0.1640
  159SAPE  C31517825   3.663   0.995  18.648 -0.5426  0.1470  0.1051
  159SAPE  H15X17826   3.606   0.972  18.740 -2.5259 -0.9639 -1.3360
  159SAPE  H15Y17827   3.738   1.076  18.665 -1.7040  1.0903  0.8849
  159SAPE  C31617828   3.755   0.871  18.630  0.9018 -0.4159  0.2676
  159SAPE  H16X17829   3.834   0.880  18.552  0.4269  1.8092 -0.0216
  159SAPE  H16Y17830   3.690   0.782  18.616 -0.9736  0.9544 -0.1608
  159SAPE  C31717831   3.819   0.842  18.766  0.1631 -0.5514 -0.7428
  159SAPE  H17X17832   3.888   0.754  18.763  2.2651  1.0120 -4.0802
  159SAPE  H17Y17833   3.738   0.798  18.827  0.5523  1.1093  1.0888
  159SAPE  C31817834   3.896   0.960  18.837  0.1885  0.3061  0.2057
  159SAPE  H18X17835   3.985   0.993  18.779  0.4772  2.3532  1.7026
  159SAPE  H18Y17836   3.942   0.939  18.936  2.8134  1.9029 -0.5736
  159SAPE  H18Z17837   3.825   1.045  18.850 -0.0118  0.1917 -0.1143
  160SAPE     N17838   1.457   1.474  18.491  0.6894  0.0601 -0.0033
  160SAPE   HN117839   1.443   1.381  18.445 -0.2223  0.1560  0.0688
  160SAPE   HN217840   1.364   1.519  18.499  0.8594  0.5783 -0.8506
  160SAPE   HN317841   1.521   1.537  18.439 -0.0114  1.5792  0.9027
  160SAPE   C1217842   1.523   1.438  18.621 -1.6243 -0.0229  0.3217
  160SAPE  H12A17843   1.620   1.391  18.594 -1.0995  0.7260  0.8865
  160SAPE  H12B17844   1.459   1.376  18.688 -0.6872  0.1275  1.3870
  160SAPE   C1117845   1.566   1.562  18.702 -1.2663  0.4225 -0.0057
  160SAPE  H11A17846   1.596   1.525  18.802  0.7450 -2.2487 -1.4765
  160SAPE  H11B17847   1.482   1.632  18.717 -0.6171  0.8836  1.6897
  160SAPE     P17848   1.800   1.697  18.697  0.6142 -0.4162  0.1982
  160SAPE   O1317849   1.903   1.596  18.669 -0.8308  0.2012 -0.3730
  160SAPE   O1417850   1.832   1.835  18.644  0.7018 -0.0215  0.9240
  160SAPE   O1217851   1.663   1.636  18.632 -0.3236 -0.2589  0.3453
  160SAPE   O1117852   1.755   1.705  18.854 -0.8137  0.1866 -0.6569
  160SAPE    C117853   1.682   1.817  18.895  0.0270 -0.6184 -0.0665
  160SAPE    HA17854   1.737   1.913  18.901 -1.2845  0.2395 -1.1475
  160SAPE    HB17855   1.595   1.838  18.829 -0.1368 -0.1967  0.2775
  160SAPE    C217856   1.619   1.794  19.033 -0.6293  0.5802 -0.4353
  160SAPE    HS17857   1.578   1.888  19.076  0.8907  0.9244  0.3318
  160SAPE   O2117858   1.710   1.729  19.126 -0.1178  0.9596  0.7625
  160SAPE   C2117859   1.796   1.812  19.174 -0.3161  0.2102  0.3887
  160SAPE   O2217860   1.810   1.929  19.147 -0.0063 -0.6139 -0.7277
  160SAPE   C2217861   1.895   1.734  19.270 -0.1243  0.1866  0.2897
  160SAPE   H2R17862   1.835   1.655  19.320 -0.1756 -0.0862 -0.1986
  160SAPE   H2S17863   1.965   1.687  19.197 -1.9656  0.5656 -1.8230
  160SAPE    C317864   1.494   1.692  19.022 -0.3089 -0.5588  0.1673
  160SAPE    HX17865   1.535   1.603  18.971  0.5922 -0.0837  0.0437
  160SAPE    HY17866   1.420   1.745  18.959  0.9959  1.0800 -0.0549
  160SAPE   O3117867   1.437   1.674  19.159 -0.5215  0.0191  0.3687
  160SAPE   C3117868   1.352   1.569  19.161 -0.0754 -0.2685  0.1216
  160SAPE   O3217869   1.321   1.503  19.062 -0.4835 -0.1981 -0.4477
  160SAPE   C3217870   1.305   1.541  19.299  0.9343  0.3688 -0.1058
  160SAPE   H2X17871   1.305   1.630  19.365  2.3273  1.0103 -0.9145
  160SAPE   H2Y17872   1.387   1.474  19.332  1.6276  0.7583 -1.0031
  160SAPE   C2317873   1.970   1.805  19.389  1.0589  0.6038 -0.7780
  160SAPE   H3R17874   1.901   1.825  19.474  0.0966 -0.6811 -1.2391
  160SAPE   H3S17875   2.016   1.901  19.356 -0.7449  0.9553 -2.4920
  160SAPE   C2417876   2.088   1.716  19.447  0.3798  0.5980 -0.3305
  160SAPE   H4R17877   2.131   1.771  19.534  0.1899  0.4332 -0.1320
  160SAPE   H4S17878   2.169   1.710  19.370  1.6376  0.6656  0.9412
  160SAPE   C2517879   2.047   1.572  19.477 -0.1887  0.0471  0.4503
  160SAPE   H5R17880   2.045   1.523  19.379  0.1491  0.0027  0.4657
  160SAPE   C2617881   2.026   1.520  19.601  1.0698 -0.1140  0.1627
  160SAPE   H6R17882   1.986   1.418  19.609 -0.5558  0.5218  0.6971
  160SAPE   C2717883   2.054   1.582  19.735  0.0655 -0.2023 -0.4639
  160SAPE   H7R17884   2.035   1.691  19.739  0.8267 -0.0766 -0.1442
  160SAPE   H7S17885   2.160   1.568  19.767 -0.5766  0.5067  2.2107
  160SAPE   C2817886   1.978   1.521  19.847  0.2837  0.2642 -0.0500
  160SAPE   H8R17887   1.875   1.558  19.838  0.3246 -0.1155 -3.1726
  160SAPE   C2917888   2.016   1.460  19.963 -0.3556 -0.4710  0.3826
  160SAPE   H9R17889   1.936   1.416  20.024 -1.1070  0.2628 -0.0362
  160SAPE  C21017890   2.160   1.413  19.995  0.2168 -0.6728  0.3316
  160SAPE  H10R17891   2.200   1.483  20.072 -2.1455  1.2950 -0.1234
  160SAPE  H10S17892   2.223   1.421  19.904  0.6386 -2.0487  0.4844
  160SAPE  C21117893   2.148   1.268  20.033 -0.2442 -0.0378  0.6481
  160SAPE  H11R17894   2.097   1.197  19.968  2.1072 -1.8718  0.6672
  160SAPE  C21217895   2.205   1.220  20.144  0.2304 -0.3650 -0.2293
  160SAPE  H12R17896   2.164   1.126  20.183  0.2742 -0.2130  0.1879
  160SAPE  C21317897   2.285   1.299  20.247  0.4621  0.3854  0.2065
  160SAPE  H13R17898   2.221   1.301  20.338  0.5867 -3.2316  0.4948
  160SAPE  H13S17899   2.307   1.404  20.218  0.1880  0.1768 -0.8177
  160SAPE  C21417900   2.419   1.239  20.277  0.0995 -0.8027  0.5244
  160SAPE  H14R17901   2.463   1.196  20.186 -0.0609 -0.8645  0.4747
  160SAPE  C21517902   2.487   1.234  20.392  0.7356  0.5358  0.5076
  160SAPE  H15R17903   2.582   1.178  20.392 -0.2150 -1.2184 -0.8862
  160SAPE  C21617904   2.440   1.284  20.526  0.1450 -0.1276 -0.0684
  160SAPE  H16R17905   2.369   1.368  20.513  1.3598  0.7283 -1.4726
  160SAPE  H16S17906   2.529   1.333  20.573  0.7142 -1.3493  0.1723
  160SAPE  C21717907   2.376   1.177  20.609  0.3746 -1.1512  0.0021
  160SAPE  H17R17908   2.452   1.106  20.648  1.5645 -0.8630 -1.6609
  160SAPE  H17S17909   2.314   1.112  20.544  1.2229  1.0437 -3.2447
  160SAPE  C21817910   2.291   1.226  20.730  0.7605  0.5512 -0.3314
  160SAPE  H18R17911   2.204   1.279  20.687 -0.0171  0.6655  1.3101
  160SAPE  H18S17912   2.346   1.306  20.784  1.1874 -0.6530  1.0808
  160SAPE  C21917913   2.243   1.105  20.811  0.8944 -0.0608  0.2482
  160SAPE  H19R17914   2.337   1.053  20.842  0.3787 -1.9681 -1.1389
  160SAPE  H19S17915   2.181   1.038  20.748  0.3166  2.2284 -1.7621
  160SAPE  C22017916   2.172   1.138  20.945 -0.0776  0.9882  0.3413
  160SAPE  H20R17917   2.185   1.044  21.003  0.5651 -0.3679 -1.8868
  160SAPE  H20S17918   2.067   1.170  20.927 -0.4656 -0.0667  0.6861
  160SAPE  H20T17919   2.224   1.226  20.990  1.1944  0.4620 -0.0603
  160SAPE   C3317920   1.167   1.467  19.303 -0.0637 -0.1274  0.2012
  160SAPE   H3X17921   1.149   1.413  19.399 -2.4328 -0.7411 -0.5095
  160SAPE   H3Y17922   1.166   1.387  19.225  0.8125 -0.1878  0.2519
  160SAPE   C3417923   1.047   1.559  19.284  0.4126  0.6269  0.4519
  160SAPE   H4X17924   0.957   1.494  19.285  1.1219 -0.4226 -0.8186
  160SAPE   H4Y17925   1.056   1.598  19.180 -1.1352 -0.4679 -0.1289
  160SAPE   C3517926   1.033   1.671  19.383  0.0890  0.0561  0.3469
  160SAPE   H5X17927   0.942   1.729  19.356 -0.1549 -0.5761 -0.2157
  160SAPE   H5Y17928   1.118   1.742  19.367 -1.6966  1.6576 -3.5950
  160SAPE   C3617929   1.022   1.636  19.534 -0.1530  0.2728  0.0218
  160SAPE   H6X17930   1.101   1.563  19.559 -0.1912  0.7123  1.4982
  160SAPE   H6Y17931   0.924   1.583  19.535 -1.1272  1.9441  2.4309
  160SAPE   C3717932   1.005   1.755  19.631  0.5358 -0.5598 -0.7260
  160SAPE   H7X17933   0.928   1.823  19.587  2.2877 -0.3985 -3.9023
  160SAPE   H7Y17934   1.102   1.810  19.629  0.2836 -0.1092 -0.7579
  160SAPE   C3817935   0.979   1.711  19.773 -0.0371 -0.2489 -0.3084
  160SAPE   H8X17936   1.061   1.642  19.802 -2.3228 -1.8656  2.9887
  160SAPE   H8Y17937   0.884   1.652  19.777 -0.6216  0.6115 -1.0936
  160SAPE   C3917938   0.988   1.829  19.872 -0.1149  0.4513 -0.4570
  160SAPE   H9X17939   0.896   1.888  19.854 -0.8278 -0.8815 -1.3180
  160SAPE   H9Y17940   1.065   1.906  19.849  3.1490 -2.0191  1.3996
  160SAPE  C31017941   0.987   1.777  20.018  0.0433 -0.4327  0.0947
  160SAPE  H10X17942   1.072   1.708  20.039  0.4634 -0.2417 -0.8980
  160SAPE  H10Y17943   0.901   1.711  20.041 -0.8445  1.2064  1.6736
  160SAPE  C31117944   0.993   1.886  20.134 -0.7955  0.0046 -0.4126
  160SAPE  H11X17945   0.891   1.931  20.142 -0.1650  2.0851 -2.8534
  160SAPE  H11Y17946   1.052   1.974  20.101  2.2851 -2.1864 -1.1652
  160SAPE  C31217947   1.039   1.836  20.274  0.6287  0.5031  0.2901
  160SAPE  H12X17948   1.024   1.918  20.347  0.1187 -0.1727  0.9650
  160SAPE  H12Y17949   1.139   1.788  20.274  0.9224  0.8810  3.5333
  160SAPE  C31317950   0.931   1.736  20.330  0.1524  0.2898 -0.0286
  160SAPE  H13X17951   0.949   1.645  20.269  2.4086  1.8677 -1.8805
  160SAPE  H13Y17952   0.833   1.784  20.307  1.5782  2.5324 -1.7664
  160SAPE  C31417953   0.960   1.726  20.480  0.2447  0.7956  0.6591
  160SAPE  H14X17954   0.935   1.819  20.535  0.3754 -0.1150  2.3233
  160SAPE  H14Y17955   1.067   1.699  20.490  0.2967  0.4367 -0.7082
  160SAPE  C31517956   0.878   1.616  20.557  0.4449 -0.0092  1.2952
  160SAPE  H15X17957   0.918   1.594  20.658  0.9762 -0.3302  1.0212
  160SAPE  H15Y17958   0.859   1.522  20.501  1.4363 -0.6143  1.9411
  160SAPE  C31617959   0.737   1.678  20.594 -0.4485 -0.3599  0.5574
  160SAPE  H16X17960   0.699   1.736  20.508  1.4604 -1.7633 -1.3274
  160SAPE  H16Y17961   0.765   1.762  20.660 -0.8288 -1.4724  2.2064
  160SAPE  C31717962   0.638   1.596  20.673  0.0301  0.6835  0.0914
  160SAPE  H17X17963   0.562   1.646  20.737 -1.5356  1.6780 -2.4222
  160SAPE  H17Y17964   0.695   1.537  20.748  0.1969  0.5000 -0.1798
  160SAPE  C31817965   0.559   1.492  20.588 -0.2037  0.1690  0.1904
  160SAPE  H18X17966   0.540   1.391  20.632  1.4711 -0.0200  0.5454
  160SAPE  H18Y17967   0.616   1.471  20.495  0.7558 -2.8660  1.3453
  160SAPE  H18Z17968   0.461   1.538  20.562 -0.5705 -0.4436  0.4623
  161SOPE     N17969   4.254   2.217  23.550  0.0697 -0.0412  0.1502
  161SOPE   HN117970   4.176   2.278  23.581  0.9722  0.8767  0.6922
  161SOPE   HN217971   4.327   2.279  23.509  1.1041 -2.3011 -1.6914
  161SOPE   HN317972   4.222   2.161  23.469 -0.6943  0.4929  0.0678
  161SOPE   C1217973   4.306   2.134  23.664 -0.4774  0.1083  0.8229
  161SOPE  H12A17974   4.229   2.059  23.691 -0.6933 -0.1211 -0.3863
  161SOPE  H12B17975   4.328   2.206  23.746  3.0292 -2.1415  2.0631
  161SOPE   C1117976   4.436   2.066  23.628 -0.0276  0.1246  0.6098
  161SOPE  H11A17977   4.456   2.003  23.717  1.3480 -0.1949  0.1028
  161SOPE  H11B17978   4.514   2.144  23.616  0.5441 -0.7593 -2.3035
  161SOPE     P17979   4.557   1.955  23.421 -0.0321  0.1244  0.2284
  161SOPE   O1317980   4.562   2.040  23.296  0.5789  0.4127 -0.3151
  161SOPE   O1417981   4.558   1.811  23.397 -0.5048 -0.0351  0.4314
  161SOPE   O1217982   4.424   1.993  23.507  0.5389  0.1218 -0.2326
  161SOPE   O1117983   4.680   1.993  23.513  0.3806  0.4021 -0.0944
  161SOPE    C117984   4.812   1.993  23.463 -0.2463  0.9218  1.0349
  161SOPE    HA17985   4.877   2.033  23.544  0.9402 -0.3966  0.7854
  161SOPE    HB17986   4.822   2.070  23.383 -1.8525  0.1547  0.0480
  161SOPE    C217987   4.870   1.857  23.422 -0.2044  0.6129  0.1818
  161SOPE    HS17988   4.804   1.812  23.345  1.1538 -1.9956  0.4105
  161SOPE   O2117989   4.889   1.776  23.538 -0.0588  0.2879 -0.4582
  161SOPE   C2117990   4.866   1.646  23.523  0.3651  0.3514  0.7160
  161SOPE   O2217991   4.836   1.583  23.421 -0.0173 -0.2677  0.6180
  161SOPE   C2217992   4.913   1.577  23.648 -0.9676  0.0949 -0.3203
  161SOPE   H2R17993   4.880   1.471  23.642  1.7389 -0.7295 -3.3846
  161SOPE   H2S17994   4.861   1.627  23.733  2.8553 -0.6628  2.7371
  161SOPE    C317995   5.006   1.865  23.360  0.2897  0.3818 -0.1299
  161SOPE    HX17996   5.081   1.913  23.426  0.7783 -0.2796 -0.1932
  161SOPE    HY17997   4.992   1.942  23.281 -0.4640 -0.4565 -0.8308
  161SOPE   O3117998   5.057   1.743  23.304 -0.1756  0.0689  0.1158
  161SOPE   C3117999   5.131   1.755  23.187 -0.4949 -0.0169 -0.8387
  161SOPE   O3218000   5.150   1.858  23.132  0.6632 -0.8475 -0.1496
  161SOPE   C3218001   5.184   1.619  23.143  0.1524  0.2356 -0.7291
  161SOPE   H2X18002   5.103   1.563  23.092 -1.4187  0.0179  1.8339
  161SOPE   H2Y18003   5.204   1.561  23.236  2.2536  1.7886 -0.1549
  161SOPE   C2318004   5.061   1.589  23.674 -0.3133 -0.4706  0.8754
  161SOPE   H3R18005   5.084   1.551  23.776 -0.5507 -1.6872  0.4886
  161SOPE   H3S18006   5.086   1.697  23.667  3.7854 -1.3606 -2.6183
  161SOPE   C2418007   5.156   1.534  23.562  0.5733  0.8679  0.2329
  161SOPE   H4R18008   5.151   1.423  23.552 -2.0472  1.0702 -1.5782
  161SOPE   H4S18009   5.108   1.568  23.468  1.2174 -1.9468 -1.2471
  161SOPE   C2518010   5.295   1.592  23.571 -0.1008  0.1923 -0.1794
  161SOPE   H5R18011   5.348   1.542  23.487  1.0243  0.0057  0.6169
  161SOPE   H5S18012   5.295   1.700  23.545  1.6115  0.4206  0.6143
  161SOPE   C2618013   5.371   1.576  23.708  0.2100 -0.2705 -0.5376
  161SOPE   H6R18014   5.300   1.630  23.774 -1.0052 -0.9966 -1.1980
  161SOPE   H6S18015   5.366   1.470  23.740 -0.3848  0.2196  1.0532
  161SOPE   C2718016   5.504   1.643  23.712 -0.3941 -0.0866 -0.0500
  161SOPE   H7R18017   5.486   1.750  23.688  0.3192 -0.0874 -0.6145
  161SOPE   H7S18018   5.539   1.636  23.817 -3.5549 -1.2913  1.0596
  161SOPE   C2818019   5.595   1.576  23.604  0.4215  0.2472 -0.4714
  161SOPE   H8R18020   5.601   1.469  23.632  2.5477  0.5382  0.3695
  161SOPE   H8S18021   5.548   1.588  23.504  1.9187  2.6775 -0.9629
  161SOPE   C2918022   5.728   1.632  23.608 -0.1271 -0.3877 -0.3380
  161SOPE   H9118023   5.791   1.604  23.694  1.8078 -3.1211 -2.4821
  161SOPE  C21018024   5.789   1.706  23.513  0.2722  0.4569  0.2762
  161SOPE  H10118025   5.892   1.742  23.525  0.3837 -0.0469  0.8513
  161SOPE  C21118026   5.733   1.756  23.382  0.9005  0.7138  0.6691
  161SOPE  H11R18027   5.633   1.720  23.352  1.4405 -0.6696  0.4338
  161SOPE  H11S18028   5.795   1.707  23.304 -1.1494 -1.3320  0.2170
  161SOPE  C21218029   5.748   1.908  23.355 -0.1701 -0.1053 -0.1974
  161SOPE  H12R18030   5.707   1.920  23.253 -1.6401 -2.3562  0.0552
  161SOPE  H12S18031   5.853   1.944  23.359 -0.6129  1.1486  1.3786
  161SOPE  C21318032   5.648   1.986  23.443 -0.5951  0.6668  0.7289
  161SOPE  H13R18033   5.668   2.095  23.442  0.1318  0.5746 -1.2826
  161SOPE  H13S18034   5.658   1.942  23.544 -1.5133  0.5035  0.7546
  161SOPE  C21418035   5.505   1.962  23.399  0.1313  0.1183 -0.4642
  161SOPE  H14R18036   5.486   1.854  23.415 -0.8738  0.2595 -0.6301
  161SOPE  H14S18037   5.476   2.000  23.298 -0.1495  0.0168 -0.4225
  161SOPE  C21518038   5.394   2.033  23.496 -0.3085 -0.0149  0.4487
  161SOPE  H15R18039   5.446   2.060  23.590 -0.3473 -1.8886  1.0404
  161SOPE  H15S18040   5.309   1.962  23.504 -1.3653  0.7177 -2.6356
  161SOPE  C21618041   5.341   2.161  23.432  0.0239 -0.5944  0.5154
  161SOPE  H16R18042   5.275   2.147  23.344 -0.0871 -0.5384  0.5902
  161SOPE  H16S18043   5.424   2.229  23.404 -1.7969  2.4586  2.0392
  161SOPE  C21718044   5.252   2.240  23.527  0.9454 -0.8362  0.4790
  161SOPE  H17R18045   5.188   2.171  23.585  1.1800 -1.1057  0.4220
  161SOPE  H17S18046   5.180   2.307  23.474 -0.2332 -1.8502  0.7586
  161SOPE  C21818047   5.335   2.330  23.624  0.0084  0.4258  0.7505
  161SOPE  H18R18048   5.272   2.391  23.692  0.9810  0.1776  1.9320
  161SOPE  H18S18049   5.404   2.398  23.569  1.8152  0.0430  2.4038
  161SOPE  H18T18050   5.396   2.260  23.685 -0.5319  0.0621  0.8808
  161SOPE   C3318051   5.309   1.622  23.057 -0.6811 -0.3767 -0.2391
  161SOPE   H3X18052   5.292   1.686  22.968 -0.3076  1.1611  0.7454
  161SOPE   H3Y18053   5.329   1.518  23.022 -1.5609 -1.2488  1.6861
  161SOPE   C3418054   5.442   1.661  23.130  0.8011 -0.0339 -0.1669
  161SOPE   H4X18055   5.453   1.609  23.227  0.1821 -1.1197 -0.6564
  161SOPE   H4Y18056   5.440   1.770  23.152 -0.4625  0.1221 -0.9703
  161SOPE   C3518057   5.562   1.614  23.058 -0.1250 -0.3450  0.3791
  161SOPE   H5X18058   5.551   1.506  23.036 -0.4367 -0.5559  1.5118
  161SOPE   H5Y18059   5.641   1.626  23.136 -1.2174  2.0319  1.2279
  161SOPE   C3618060   5.589   1.696  22.931 -0.3010  0.5924  0.4541
  161SOPE   H6X18061   5.603   1.799  22.970 -1.4949  1.2943 -0.8441
  161SOPE   H6Y18062   5.501   1.708  22.863 -1.9036 -2.9664  1.6024
  161SOPE   C3718063   5.714   1.658  22.849  0.8044 -0.2593 -0.7524
  161SOPE   H7X18064   5.707   1.552  22.817  1.4755 -0.1233 -1.3730
  161SOPE   H7Y18065   5.802   1.672  22.916  2.4200 -2.4572 -2.2494
  161SOPE   C3818066   5.717   1.745  22.734 -0.0025 -0.1317  0.1839
  161SOPE   H8X18067   5.722   1.855  22.748  1.2239  0.4790 -3.7590
  161SOPE   H8Y18068   5.623   1.730  22.676 -0.9663  0.4368  1.5574
  161SOPE   C3918069   5.842   1.706  22.639  0.5059 -0.0928  0.0343
  161SOPE   H9X18070   5.928   1.756  22.687  0.3431  0.3017 -0.0841
  161SOPE   H9Y18071   5.833   1.764  22.545 -0.5912  0.6888  0.5905
  161SOPE  C31018072   5.872   1.559  22.610  0.7431 -0.4049 -0.7731
  161SOPE  H10X18073   5.783   1.497  22.588  1.3918 -1.6196 -0.1005
  161SOPE  H10Y18074   5.927   1.508  22.692  4.4527  2.5383 -1.1376
  161SOPE  C31118075   5.975   1.561  22.490  0.5218 -0.0142 -0.8775
  161SOPE  H11X18076   6.065   1.609  22.534 -0.0761  0.1946  0.1542
  161SOPE  H11Y18077   5.929   1.619  22.408 -0.4198  1.9333  0.9324
  161SOPE  C31218078   5.996   1.411  22.449 -0.1627  0.4468  0.1429
  161SOPE  H12X18079   5.892   1.375  22.436  0.4374 -0.7914 -1.6382
  161SOPE  H12Y18080   6.050   1.357  22.530  0.7259  0.9655 -0.0895
  161SOPE  C31318081   6.068   1.401  22.303 -0.4794 -0.0351  0.2104
  161SOPE  H13X18082   6.171   1.440  22.317 -1.5983  2.6409  1.5601
  161SOPE  H13Y18083   6.006   1.472  22.245  1.9992  2.2697  0.1968
  161SOPE  C31418084   6.079   1.256  22.254  0.3834  0.3101  0.8753
  161SOPE  H14X18085   5.975   1.219  22.271 -1.1227  3.1347 -1.2450
  161SOPE  H14Y18086   6.146   1.196  22.319  0.7725  0.8055  0.9310
  161SOPE  C31518087   6.128   1.243  22.107  0.3358  0.2200 -0.1508
  161SOPE  H15X18088   6.047   1.262  22.033  0.9266 -0.5047 -1.0114
  161SOPE  H15Y18089   6.169   1.140  22.098  3.4786  1.2370  1.1784
  161SOPE  C31618090   6.255   1.327  22.077  0.1809  0.2711 -0.3739
  161SOPE  H16X18091   6.329   1.301  22.156 -0.5417 -0.5462  0.0399
  161SOPE  H16Y18092   6.239   1.437  22.082  0.5531  0.2632  1.9585
  161SOPE  C31718093   6.300   1.297  21.923  0.0642  0.6723 -1.0473
  161SOPE  H17X18094   6.216   1.252  21.866  0.4959 -2.8974  0.8060
  161SOPE  H17Y18095   6.383   1.224  21.927  1.6303  2.4150 -0.0318
  161SOPE  C31818096   6.362   1.420  21.848  0.2742  0.6209  0.2148
  161SOPE  H18X18097   6.439   1.471  21.909  1.3022 -1.7660  1.0157
  161SOPE  H18Y18098   6.282   1.493  21.823 -0.7922 -0.3697  0.6200
  161SOPE  H18Z18099   6.416   1.378  21.761  1.0941 -2.2627  2.0063
  162SOPE     N18100   0.400   3.387  21.785  0.5047  0.2362 -0.1261
  162SOPE   HN118101   0.369   3.460  21.853 -0.6478 -1.3006  1.0771
  162SOPE   HN218102   0.342   3.387  21.699 -1.3452  0.4145  1.0448
  162SOPE   HN318103   0.389   3.294  21.831  2.4684 -0.1937 -0.4670
  162SOPE   C1218104   0.546   3.392  21.749  0.0082  0.3143 -0.0878
  162SOPE  H12A18105   0.588   3.422  21.848 -0.9144 -0.6168  0.6073
  162SOPE  H12B18106   0.561   3.472  21.673  1.2899  0.4930  0.3308
  162SOPE   C1118107   0.613   3.256  21.709 -0.0482 -0.4000 -0.0488
  162SOPE  H11A18108   0.716   3.284  21.740  0.5247  2.4113 -3.8039
  162SOPE  H11B18109   0.618   3.246  21.599  1.6515  0.7441 -0.0976
  162SOPE     P18110   0.611   3.000  21.734 -0.1745 -0.1867 -0.2332
  162SOPE   O1318111   0.492   2.950  21.657 -0.5033  0.8627  0.1875
  162SOPE   O1418112   0.653   2.922  21.851 -0.3544  0.0227 -0.1850
  162SOPE   O1218113   0.564   3.147  21.782  0.0335  0.4685 -0.5945
  162SOPE   O1118114   0.731   3.029  21.640  0.1242 -0.4088  0.1736
  162SOPE    C118115   0.859   2.970  21.657 -0.6036 -0.1271 -0.0389
  162SOPE    HA18116   0.918   2.985  21.564  0.4956  0.3757  0.7184
  162SOPE    HB18117   0.852   2.861  21.673 -0.1161 -0.3345 -1.1808
  162SOPE    C218118   0.947   3.030  21.775  0.5654 -0.5030  0.3032
  162SOPE    HS18119   0.889   2.999  21.865 -0.4574 -0.1957 -0.2350
  162SOPE   O2118120   0.952   3.170  21.743  0.0774  0.4035 -0.3230
  162SOPE   C2118121   0.961   3.239  21.862 -0.1865  0.3219 -0.2945
  162SOPE   O2218122   0.958   3.192  21.973  0.4145 -0.6888 -0.3642
  162SOPE   C2218123   0.966   3.386  21.824  0.0687  0.8755 -0.1792
  162SOPE   H2R18124   0.861   3.409  21.850 -0.4395 -1.1422 -0.2983
  162SOPE   H2S18125   0.973   3.410  21.716 -1.4533  2.5138  0.0403
  162SOPE    C318126   1.084   2.956  21.797  0.1038 -0.1102 -0.3484
  162SOPE    HX18127   1.065   2.860  21.850 -1.9737 -0.0575 -0.9311
  162SOPE    HY18128   1.142   3.022  21.865  0.3619 -1.3932  0.7429
  162SOPE   O3118129   1.137   2.936  21.664  0.7751  0.6151 -0.0447
  162SOPE   C3118130   1.240   2.855  21.666 -0.2220 -0.4315  0.2022
  162SOPE   O3218131   1.290   2.809  21.770 -0.4740 -0.0573  0.2563
  162SOPE   C3218132   1.286   2.842  21.521 -0.4835 -0.7317  0.4351
  162SOPE   H2X18133   1.321   2.947  21.507  1.0267 -1.1872  0.6609
  162SOPE   H2Y18134   1.206   2.822  21.448 -0.6679  0.7753  0.1775
  162SOPE   C2318135   1.058   3.472  21.913  0.0592  0.2753  0.0214
  162SOPE   H3R18136   1.031   3.447  22.018 -0.6468  0.2127 -0.1715
  162SOPE   H3S18137   1.034   3.579  21.894  2.2374  0.3511 -3.2198
  162SOPE   C2418138   1.208   3.445  21.884  0.3286  0.3381  0.3943
  162SOPE   H4R18139   1.275   3.509  21.946 -0.0595  0.8344  0.3119
  162SOPE   H4S18140   1.212   3.337  21.908  0.1108  0.0687 -0.7147
  162SOPE   C2518141   1.268   3.475  21.743  0.3155 -0.1544 -0.2681
  162SOPE   H5R18142   1.238   3.393  21.675 -1.6387 -0.1177  0.4957
  162SOPE   H5S18143   1.216   3.567  21.708 -1.7225 -1.3551 -0.5483
  162SOPE   C2618144   1.418   3.483  21.751 -0.3629 -0.0102  0.3067
  162SOPE   H6R18145   1.448   3.522  21.651 -0.4081  0.2511  0.3926
  162SOPE   H6S18146   1.433   3.570  21.819 -2.7418 -0.2666  1.2095
  162SOPE   C2718147   1.497   3.351  21.769 -0.0458  0.0723 -0.0688
  162SOPE   H7R18148   1.607   3.366  21.775 -0.2048  0.9458  1.0203
  162SOPE   H7S18149   1.473   3.313  21.871  0.3590  3.6815  1.5294
  162SOPE   C2818150   1.458   3.240  21.670 -0.3586  0.1628  0.5771
  162SOPE   H8R18151   1.349   3.221  21.676 -0.5434  0.3850 -1.4163
  162SOPE   H8S18152   1.479   3.290  21.573 -1.7377  0.4529  0.4142
  162SOPE   C2918153   1.535   3.110  21.672 -0.5310 -0.5503  0.3418
  162SOPE   H9118154   1.526   3.068  21.773  2.8751  0.5757  1.2638
  162SOPE  C21018155   1.604   3.046  21.571 -0.5458 -0.1678 -0.0457
  162SOPE  H10118156   1.651   2.950  21.599 -3.1223 -1.0595  1.5783
  162SOPE  C21118157   1.625   3.098  21.428 -0.2438 -0.0697 -0.4354
  162SOPE  H11R18158   1.533   3.146  21.389  0.3528  0.2044 -1.5437
  162SOPE  H11S18159   1.638   3.018  21.351  0.5899 -0.3449 -0.0342
  162SOPE  C21218160   1.735   3.207  21.415 -0.5455  1.0774 -0.4080
  162SOPE  H12R18161   1.837   3.167  21.394 -0.5148  1.4545 -1.0251
  162SOPE  H12S18162   1.730   3.268  21.507 -2.2444 -1.3082  1.2042
  162SOPE  C21318163   1.717   3.305  21.299  0.1555  0.0545 -0.2107
  162SOPE  H13R18164   1.745   3.403  21.342  1.1163 -0.7067  0.9557
  162SOPE  H13S18165   1.608   3.317  21.279  0.0451 -1.4437 -0.6706
  162SOPE  C21418166   1.796   3.278  21.171 -0.2676 -0.2658 -0.9252
  162SOPE  H14R18167   1.891   3.230  21.202 -0.6649 -0.2730  0.3175
  162SOPE  H14S18168   1.833   3.360  21.106  0.5165 -0.7987 -1.1736
  162SOPE  C21518169   1.719   3.174  21.079 -0.5769  0.3810  0.1350
  162SOPE  H15R18170   1.625   3.219  21.041 -0.9189 -0.4143  0.0236
  162SOPE  H15S18171   1.678   3.098  21.148  0.8638 -1.6260 -1.1015
  162SOPE  C21618172   1.807   3.125  20.965  0.5851 -0.3806 -0.5013
  162SOPE  H16R18173   1.770   3.034  20.913 -0.0354 -1.6004  1.9299
  162SOPE  H16S18174   1.906   3.098  21.006  0.9912  0.0072 -1.2147
  162SOPE  C21718175   1.820   3.231  20.852  0.7698  0.6723 -0.6168
  162SOPE  H17R18176   1.857   3.326  20.896 -1.8545  1.9883 -1.0474
  162SOPE  H17S18177   1.720   3.271  20.822  0.3662  0.6848  0.6586
  162SOPE  C21818178   1.906   3.197  20.731 -1.0817  0.1060 -0.5974
  162SOPE  H18R18179   1.915   3.288  20.667 -1.9549 -1.3102 -2.8230
  162SOPE  H18S18180   1.873   3.110  20.672  1.8540 -2.9474  1.8745
  162SOPE  H18T18181   2.010   3.181  20.768 -1.6725 -0.0757  1.0891
  162SOPE   C3318182   1.398   2.745  21.512  0.1939  0.0785  0.4693
  162SOPE   H3X18183   1.367   2.648  21.557 -2.3015  0.3503 -0.4856
  162SOPE   H3Y18184   1.486   2.773  21.574  0.5887 -2.7072  1.2929
  162SOPE   C3418185   1.419   2.703  21.364  0.5118  0.5142  0.4305
  162SOPE   H4X18186   1.324   2.646  21.361  1.4334 -1.1793  1.6711
  162SOPE   H4Y18187   1.495   2.622  21.366  0.2202  0.2516  1.4131
  162SOPE   C3518188   1.430   2.800  21.252 -0.4572 -0.3197 -1.0514
  162SOPE   H5X18189   1.529   2.851  21.247 -0.3761 -0.1880  1.2142
  162SOPE   H5Y18190   1.361   2.886  21.263  0.9123  1.0217 -2.3990
  162SOPE   C3618191   1.406   2.737  21.113  0.0584 -0.4918  0.0456
  162SOPE   H6X18192   1.300   2.704  21.107  0.5719 -2.4841  1.0406
  162SOPE   H6Y18193   1.459   2.640  21.107 -0.8685 -0.9265 -2.1545
  162SOPE   C3718194   1.445   2.828  20.996  0.6538 -0.0478  0.4488
  162SOPE   H7X18195   1.552   2.843  20.973  0.3064  2.1988  0.0776
  162SOPE   H7Y18196   1.421   2.931  21.032 -0.1876  0.3568 -1.1969
  162SOPE   C3818197   1.353   2.801  20.865  0.3137 -0.5822  0.2766
  162SOPE   H8X18198   1.254   2.847  20.887 -0.4598 -0.4011 -3.0240
  162SOPE   H8Y18199   1.345   2.693  20.840 -0.0663 -0.6281  0.5939
  162SOPE   C3918200   1.395   2.868  20.737  0.9978 -0.0732 -0.4688
  162SOPE   H9X18201   1.416   2.973  20.766 -1.0995 -0.2099  1.9000
  162SOPE   H9Y18202   1.313   2.874  20.662  1.8439  2.4497 -1.2948
  162SOPE  C31018203   1.515   2.807  20.674  0.3918 -0.5646  0.1964
  162SOPE  H10X18204   1.490   2.699  20.665 -1.5564 -0.0315 -1.7997
  162SOPE  H10Y18205   1.611   2.809  20.730  0.6859  1.6740 -0.2607
  162SOPE  C31118206   1.539   2.887  20.542 -0.7854  0.4197  0.1437
  162SOPE  H11X18207   1.557   2.995  20.556  1.7376  0.0721  0.1373
  162SOPE  H11Y18208   1.451   2.883  20.475  1.0260  0.9129 -2.4210
  162SOPE  C31218209   1.662   2.829  20.467  0.1604  0.1779 -0.4695
  162SOPE  H12X18210   1.650   2.719  20.456 -0.7928  0.1435  0.7755
  162SOPE  H12Y18211   1.757   2.849  20.520 -0.7830  2.4441  0.4797
  162SOPE  C31318212   1.671   2.901  20.324 -0.2752  0.4401  0.5783
  162SOPE  H13X18213   1.709   3.005  20.340  1.6559 -0.5598  3.2642
  162SOPE  H13Y18214   1.568   2.913  20.287 -0.5919 -1.5891  0.6956
  162SOPE  C31418215   1.768   2.836  20.229 -0.4371  0.4069 -0.2486
  162SOPE  H14X18216   1.739   2.731  20.206 -1.2962  1.0158 -2.0784
  162SOPE  H14Y18217   1.867   2.830  20.278 -0.6184  0.2719  0.1068
  162SOPE  C31518218   1.777   2.908  20.093  0.5132 -0.2054  0.0784
  162SOPE  H15X18219   1.874   2.882  20.045  1.4564  0.5413  1.4821
  162SOPE  H15Y18220   1.777   3.018  20.107  0.9643 -0.1065 -0.6816
  162SOPE  C31618221   1.666   2.873  19.983  0.1617 -0.4102 -1.2481
  162SOPE  H16X18222   1.563   2.886  20.021  1.1289 -0.5193  1.7082
  162SOPE  H16Y18223   1.692   2.766  19.963  1.6315 -0.0048 -1.6709
  162SOPE  C31718224   1.686   2.932  19.846  0.2633 -0.9513  0.0805
  162SOPE  H17X18225   1.685   3.043  19.849  0.9263 -0.9618  1.4508
  162SOPE  H17Y18226   1.604   2.893  19.783 -0.1514 -2.6971  1.6278
  162SOPE  C31818227   1.829   2.903  19.787  0.2954  0.1789  0.0609
  162SOPE  H18X18228   1.830   2.930  19.679 -1.1386 -1.0930 -0.3151
  162SOPE  H18Y18229   1.861   2.796  19.788  0.1804  0.1008 -1.4710
  162SOPE  H18Z18230   1.902   2.967  19.840  0.7234 -0.2707  0.0207
  163SOPE     N18231   4.235   1.658  21.451 -0.3385  0.4445 -0.2634
  163SOPE   HN118232   4.338   1.650  21.439 -0.0472  3.1267 -0.2041
  163SOPE   HN218233   4.213   1.758  21.468  0.5078  0.2869  2.0260
  163SOPE   HN318234   4.207   1.613  21.540 -0.8497 -3.0281 -1.9811
  163SOPE   C1218235   4.162   1.609  21.330 -0.1946  0.2658  0.3165
  163SOPE  H12A18236   4.062   1.577  21.363  0.9590 -0.4022  3.5078
  163SOPE  H12B18237   4.222   1.524  21.291 -0.8183 -0.4170  0.8177
  163SOPE   C1118238   4.146   1.712  21.219  0.0133  0.0618  0.2614
  163SOPE  H11A18239   4.068   1.786  21.246  1.3290  1.2735  0.9055
  163SOPE  H11B18240   4.097   1.656  21.138  0.2973 -0.6333  0.5596
  163SOPE     P18241   4.248   1.878  21.050  0.3064  0.1902 -0.0974
  163SOPE   O1318242   4.348   1.845  20.943  0.5055 -0.4931 -0.4380
  163SOPE   O1418243   4.244   2.012  21.110 -0.2168  0.3334 -0.1792
  163SOPE   O1218244   4.268   1.765  21.163 -0.4068  0.1076 -0.1544
  163SOPE   O1118245   4.104   1.851  20.993  0.1692 -0.2240 -0.1196
  163SOPE    C118246   4.055   1.780  20.874  0.3926 -0.5716 -0.0880
  163SOPE    HA18247   3.950   1.749  20.890  0.0758  1.4711  2.5725
  163SOPE    HB18248   4.092   1.677  20.859 -2.2304 -1.5641 -0.2240
  163SOPE    C218249   4.063   1.859  20.749  0.3282 -0.5148  0.5427
  163SOPE    HS18250   4.166   1.845  20.709  0.4284  2.0856 -0.3423
  163SOPE   O2118251   4.032   1.996  20.780 -0.2555  0.2512 -0.0842
  163SOPE   C2118252   4.121   2.080  20.737 -0.0913 -0.0527  0.2413
  163SOPE   O2218253   4.207   2.060  20.658 -0.0769  0.0253  0.1713
  163SOPE   C2218254   4.095   2.221  20.809 -0.4195  0.9753 -0.1001
  163SOPE   H2R18255   4.119   2.198  20.915  0.1679  0.6988 -0.2890
  163SOPE   H2S18256   3.985   2.231  20.797 -0.8013 -2.8683 -1.2063
  163SOPE    C318257   3.979   1.808  20.632  0.2741 -0.3641 -0.2820
  163SOPE    HX18258   3.874   1.841  20.650  0.3881 -1.0257  1.9563
  163SOPE    HY18259   3.974   1.698  20.652 -1.5316 -0.1916  0.4401
  163SOPE   O3118260   4.028   1.850  20.505 -0.3767 -0.2879 -0.2418
  163SOPE   C3118261   4.134   1.784  20.456 -1.1483 -0.1475 -0.7308
  163SOPE   O3218262   4.189   1.686  20.507  0.0687 -0.4025 -0.4287
  163SOPE   C3218263   4.160   1.856  20.320  0.2566  0.3104 -0.6930
  163SOPE   H2X18264   4.148   1.964  20.342  1.6340  0.1819  0.8614
  163SOPE   H2Y18265   4.082   1.827  20.247 -1.0624 -0.7597  1.0371
  163SOPE   C2318266   4.176   2.340  20.754  0.4512 -1.1084  0.2916
  163SOPE   H3R18267   4.278   2.300  20.773  0.7638 -0.0505  0.9461
  163SOPE   H3S18268   4.179   2.430  20.819  1.5718 -2.2448  1.8966
  163SOPE   C2418269   4.172   2.364  20.600 -0.6228 -0.5615 -0.0516
  163SOPE   H4R18270   4.186   2.269  20.544  2.7042 -1.1804  1.5911
  163SOPE   H4S18271   4.074   2.407  20.569  0.8254  1.2806 -2.5334
  163SOPE   C2518272   4.265   2.473  20.547 -0.2439  0.4384  0.4353
  163SOPE   H5R18273   4.248   2.572  20.594 -1.8727  0.7591 -0.7507
  163SOPE   H5S18274   4.367   2.436  20.570 -0.6756 -1.4403 -0.4963
  163SOPE   C2618275   4.256   2.476  20.391  0.0129 -0.4794 -0.3542
  163SOPE   H6R18276   4.330   2.400  20.359  0.8397 -0.1131  0.6250
  163SOPE   H6S18277   4.158   2.445  20.349  0.3156  0.7894 -2.1118
  163SOPE   C2718278   4.307   2.610  20.332  0.6450 -0.1711 -0.2933
  163SOPE   H7R18279   4.398   2.645  20.386  1.2075 -3.0502  0.8119
  163SOPE   H7S18280   4.333   2.584  20.228 -0.5497  1.3809 -1.0108
  163SOPE   C2818281   4.202   2.721  20.334 -0.1762  0.6024  0.0424
  163SOPE   H8R18282   4.118   2.676  20.277  0.3729 -0.7451  0.2588
  163SOPE   H8S18283   4.171   2.737  20.439 -1.6768 -2.3980  0.1688
  163SOPE   C2918284   4.261   2.843  20.271 -0.2698 -0.3845 -0.0398
  163SOPE   H9118285   4.329   2.817  20.189  0.1710 -1.5388  0.6758
  163SOPE  C21018286   4.235   2.964  20.296  0.0767 -0.9176  0.3424
  163SOPE  H10118287   4.273   3.044  20.230 -1.7207  0.7723  1.2482
  163SOPE  C21118288   4.136   3.028  20.391 -0.0823  0.7954  0.0558
  163SOPE  H11R18289   4.185   3.104  20.456 -1.8125  0.2359  2.1208
  163SOPE  H11S18290   4.088   2.953  20.458 -0.8542  0.3607 -0.9511
  163SOPE  C21218291   4.018   3.112  20.337 -0.4632  0.8180 -0.2162
  163SOPE  H12R18292   3.961   3.136  20.430  0.2126  0.4255  0.3016
  163SOPE  H12S18293   3.952   3.066  20.260 -0.7412  2.2460 -0.8795
  163SOPE  C21318294   4.056   3.239  20.259  0.3557 -0.2281 -0.5464
  163SOPE  H13R18295   4.129   3.220  20.178  0.4180  2.7505 -1.3130
  163SOPE  H13S18296   4.106   3.312  20.326 -0.9814  0.3716 -0.1634
  163SOPE  C21418297   3.938   3.313  20.188  0.3646 -0.1140  0.5015
  163SOPE  H14R18298   3.860   3.340  20.262  0.6594 -0.8123  1.0839
  163SOPE  H14S18299   3.898   3.239  20.116 -1.7951  0.4668  1.0361
  163SOPE  C21518300   3.995   3.444  20.121 -0.3838 -0.0218 -0.7761
  163SOPE  H15R18301   4.088   3.418  20.066 -1.7757 -2.5792 -2.0917
  163SOPE  H15S18302   4.031   3.506  20.206  0.4644 -2.4797  0.7772
  163SOPE  C21618303   3.893   3.508  20.031 -0.4968  0.2420  0.4928
  163SOPE  H16R18304   3.941   3.607  20.015  0.5421 -0.2576  0.4145
  163SOPE  H16S18305   3.798   3.520  20.087 -0.3797 -0.5224  0.8600
  163SOPE  C21718306   3.894   3.439  19.900 -0.5677  0.1343  0.9007
  163SOPE  H17R18307   3.810   3.366  19.900 -0.0424 -0.5198 -0.8800
  163SOPE  H17S18308   3.991   3.392  19.874 -0.2816  0.5629  1.1801
  163SOPE  C21818309   3.870   3.535  19.785  0.1096 -0.9679  0.4328
  163SOPE  H18R18310   3.941   3.620  19.788  0.2388 -0.9650 -1.4622
  163SOPE  H18S18311   3.765   3.570  19.782  0.6958  1.0954  1.5975
  163SOPE  H18T18312   3.895   3.494  19.685  1.4753  2.4732 -0.7677
  163SOPE   C3318313   4.310   1.831  20.284 -0.2994  0.5843  0.2780
  163SOPE   H3X18314   4.337   1.724  20.298  2.0496  0.9991 -0.6413
  163SOPE   H3Y18315   4.378   1.879  20.358  1.7148  0.6008 -1.4751
  163SOPE   C3418316   4.351   1.881  20.146  0.3355 -0.2145 -0.4633
  163SOPE   H4X18317   4.462   1.872  20.148  0.3498  0.1056  1.3400
  163SOPE   H4Y18318   4.340   1.991  20.135  0.9647 -0.0076  0.8362
  163SOPE   C3518319   4.290   1.817  20.022  0.4103 -0.5280  0.3127
  163SOPE   H5X18320   4.207   1.880  19.985  0.4119 -1.2731 -1.0182
  163SOPE   H5Y18321   4.242   1.718  20.036  1.1586 -0.9648 -0.1464
  163SOPE   C3618322   4.404   1.794  19.923  0.6266  0.4762 -0.1410
  163SOPE   H6X18323   4.478   1.723  19.967  0.4259  0.5059  0.2429
  163SOPE   H6Y18324   4.451   1.892  19.901  0.9926  0.3338 -0.0078
  163SOPE   C3718325   4.332   1.750  19.794 -0.2234  0.4062  0.3679
  163SOPE   H7X18326   4.246   1.820  19.785 -0.0292  1.1728  3.3607
  163SOPE   H7Y18327   4.289   1.650  19.817 -2.4804  0.8744 -1.4259
  163SOPE   C3818328   4.426   1.761  19.673 -0.4753  0.0490 -0.2596
  163SOPE   H8X18329   4.511   1.690  19.677  1.8110  2.6618  2.2171
  163SOPE   H8Y18330   4.478   1.859  19.670  0.6881 -0.5720 -1.4956
  163SOPE   C3918331   4.345   1.759  19.543  0.3286  0.8300  0.5450
  163SOPE   H9X18332   4.265   1.835  19.555 -0.2560  0.4875 -1.0440
  163SOPE   H9Y18333   4.302   1.659  19.522  0.1410  1.0783 -0.2601
  163SOPE  C31018334   4.423   1.792  19.417 -0.6524  0.2806  0.3700
  163SOPE  H10X18335   4.487   1.881  19.434 -1.1951  0.6872  0.3149
  163SOPE  H10Y18336   4.360   1.807  19.327 -2.9764  0.5051  1.9350
  163SOPE  C31118337   4.540   1.699  19.370  0.1124 -0.6173  0.3956
  163SOPE  H11X18338   4.505   1.599  19.338  1.0800 -0.4410 -1.3491
  163SOPE  H11Y18339   4.604   1.681  19.459  2.0548  2.1947 -0.2875
  163SOPE  C31218340   4.607   1.753  19.242  0.2479  0.7578  0.2433
  163SOPE  H12X18341   4.643   1.857  19.262  0.4484  0.7429 -0.0361
  163SOPE  H12Y18342   4.522   1.766  19.171 -1.2058 -0.3739  1.7047
  163SOPE  C31318343   4.723   1.673  19.189  0.3186 -0.2992  0.3236
  163SOPE  H13X18344   4.694   1.572  19.152 -0.3999 -0.6060  1.6581
  163SOPE  H13Y18345   4.791   1.658  19.276  3.5862  0.4941 -1.8796
  163SOPE  C31418346   4.796   1.753  19.073  0.0227 -0.1233 -0.2111
  163SOPE  H14X18347   4.814   1.854  19.117 -0.7029 -0.2358  0.3683
  163SOPE  H14Y18348   4.733   1.767  18.983 -0.1449 -0.3541 -0.1283
  163SOPE  C31518349   4.923   1.690  19.022 -0.5144  0.7375 -0.5090
  163SOPE  H15X18350   4.908   1.581  19.038  1.1691  0.4811 -0.5413
  163SOPE  H15Y18351   5.012   1.723  19.080  0.4894 -0.8525 -1.0893
  163SOPE  C31618352   4.958   1.732  18.881  0.9095  0.0161  0.3570
  163SOPE  H16X18353   4.981   1.840  18.884  0.7100  0.0480  0.9551
  163SOPE  H16Y18354   4.872   1.706  18.815 -0.9870  0.5405  2.4812
  163SOPE  C31718355   5.078   1.652  18.835  0.4984  0.8851  0.5185
  163SOPE  H17X18356   5.056   1.544  18.849 -0.4312  1.1452  1.1151
  163SOPE  H17Y18357   5.154   1.667  18.915 -0.8253 -2.8077  2.7056
  163SOPE  C31818358   5.126   1.695  18.698  0.6954 -0.0287 -0.1854
  163SOPE  H18X18359   5.167   1.798  18.689  0.8517  0.0812  1.5168
  163SOPE  H18Y18360   5.039   1.681  18.630  0.2391  1.7603 -0.0151
  163SOPE  H18Z18361   5.215   1.632  18.674  1.0378  0.0453  0.8449
  164SOPE     N18362   0.347   0.420  25.144  0.1596 -0.1327 -0.0853
  164SOPE   HN118363   0.344   0.428  25.248  0.2177 -0.9698 -0.0132
  164SOPE   HN218364   0.253   0.382  25.123  0.0839 -0.0937  0.1787
  164SOPE   HN318365   0.421   0.367  25.094 -0.4228  0.4304 -1.5927
  164SOPE   C1218366   0.346   0.558  25.097  0.8033  0.9836  0.0002
  164SOPE  H12A18367   0.395   0.549  24.997  0.4845  0.6899 -0.1313
  164SOPE  H12B18368   0.409   0.613  25.170 -1.4186  0.6153  2.3215
  164SOPE   C1118369   0.199   0.600  25.096  0.0482  0.2486 -0.2555
  164SOPE  H11A18370   0.191   0.707  25.065 -0.9798  0.2040 -0.1729
  164SOPE  H11B18371   0.148   0.587  25.194 -0.2087  0.2577 -0.3856
  164SOPE     P18372   0.093   0.568  24.858  0.1241 -0.3214 -0.2256
  164SOPE   O1318373   0.002   0.682  24.857  0.7097 -0.6190  0.2568
  164SOPE   O1418374   0.059   0.454  24.771  0.1350 -0.4721  0.3437
  164SOPE   O1218375   0.118   0.519  25.008  0.3804 -0.0030 -0.5192
  164SOPE   O1118376   0.243   0.613  24.819  0.3342  0.0394 -0.3484
  164SOPE    C118377   0.249   0.717  24.720 -0.6543 -0.3861  0.6174
  164SOPE    HA18378   0.191   0.809  24.739 -3.0001 -1.3769 -1.1895
  164SOPE    HB18379   0.228   0.679  24.617  1.8898  0.6130 -0.3483
  164SOPE    C218380   0.396   0.777  24.700  0.2322  0.6947  0.0848
  164SOPE    HS18381   0.395   0.821  24.598  0.2833 -2.7350 -1.5259
  164SOPE   O2118382   0.489   0.671  24.730 -0.7305 -0.3775  0.3985
  164SOPE   C2118383   0.502   0.577  24.638 -0.3230 -0.2890 -0.8437
  164SOPE   O2218384   0.443   0.571  24.531  0.1771 -0.2871 -0.4121
  164SOPE   C2218385   0.589   0.474  24.705 -0.4561  0.1051  0.2671
  164SOPE   H2R18386   0.535   0.378  24.714  0.7128 -0.4675  1.4974
  164SOPE   H2S18387   0.624   0.503  24.806 -1.8730  0.8065  0.5960
  164SOPE    C318388   0.414   0.887  24.802 -0.4956 -0.2559 -0.2965
  164SOPE    HX18389   0.390   0.846  24.902  0.8504  0.9454  0.5506
  164SOPE    HY18390   0.341   0.968  24.783  1.3460  1.4299 -0.4704
  164SOPE   O3118391   0.549   0.946  24.801  0.2369  0.0884 -0.0718
  164SOPE   C3118392   0.570   1.027  24.686 -0.2851 -0.5340 -0.1834
  164SOPE   O3218393   0.490   1.048  24.598 -0.3006  0.0294 -0.4106
  164SOPE   C3218394   0.709   1.089  24.692 -0.3408  0.4030 -0.0478
  164SOPE   H2X18395   0.714   1.177  24.759  1.0421 -0.6685  1.3201
  164SOPE   H2Y18396   0.720   1.114  24.584 -3.2452  1.3935 -0.2187
  164SOPE   C2318397   0.720   0.438  24.625  0.1549 -0.5056  0.6328
  164SOPE   H3R18398   0.801   0.513  24.622  1.6540 -2.1038 -0.7358
  164SOPE   H3S18399   0.688   0.430  24.519  0.9918  0.3873  0.3057
  164SOPE   C2418400   0.774   0.303  24.666 -0.9845 -0.4110 -0.5882
  164SOPE   H4R18401   0.822   0.325  24.764 -1.9119  1.7156 -0.5552
  164SOPE   H4S18402   0.697   0.224  24.680 -3.3852  1.7984 -0.7408
  164SOPE   C2518403   0.885   0.267  24.563  0.1582  0.6908 -0.0861
  164SOPE   H5R18404   0.830   0.250  24.468  0.2857  1.4252 -0.2968
  164SOPE   H5S18405   0.951   0.352  24.537 -0.7009  0.8896 -1.7149
  164SOPE   C2618406   0.949   0.129  24.595  1.2409 -0.7374 -0.5523
  164SOPE   H6R18407   1.015   0.143  24.683  1.4421 -0.8915 -0.6798
  164SOPE   H6S18408   0.874   0.052  24.623  1.1811 -0.2772  0.6203
  164SOPE   C2718409   1.038   0.069  24.486 -0.1657 -0.2299  0.0497
  164SOPE   H7R18410   0.974   0.074  24.395  0.4143  0.0757 -0.3494
  164SOPE   H7S18411   1.130   0.132  24.489  0.9735 -1.8243 -0.1368
  164SOPE   C2818412   1.074  -0.080  24.501 -0.4699 -0.4160  0.0556
  164SOPE   H8R18413   0.979  -0.137  24.511 -1.2891  0.2791 -2.7309
  164SOPE   H8S18414   1.108  -0.115  24.401 -1.2522  0.3782 -0.4984
  164SOPE   C2918415   1.176  -0.113  24.612 -0.0197 -0.0941 -0.1487
  164SOPE   H9118416   1.169  -0.037  24.691 -0.0410 -1.6514  1.3865
  164SOPE  C21018417   1.267  -0.206  24.622  0.8172  0.7941 -0.4456
  164SOPE  H10118418   1.324  -0.210  24.716  3.5950 -0.7394 -2.0303
  164SOPE  C21118419   1.303  -0.305  24.516 -0.1420  0.2550  0.3722
  164SOPE  H11R18420   1.284  -0.273  24.412  0.2078 -0.2377  0.1547
  164SOPE  H11S18421   1.236  -0.394  24.521  1.2363 -0.9302 -1.1695
  164SOPE  C21218422   1.452  -0.342  24.530  0.2079 -0.3283  0.3877
  164SOPE  H12R18423   1.511  -0.247  24.531  3.0356 -1.8941 -1.9019
  164SOPE  H12S18424   1.472  -0.394  24.434 -1.3818  0.3723 -0.3713
  164SOPE  C21318425   1.491  -0.438  24.643 -0.0394 -0.3597  0.3733
  164SOPE  H13R18426   1.421  -0.525  24.647  2.3398 -2.3273  1.8377
  164SOPE  H13S18427   1.467  -0.384  24.737  0.9144  0.5239  0.1231
  164SOPE  C21418428   1.632  -0.499  24.631  0.1767  0.5520 -0.3332
  164SOPE  H14R18429   1.631  -0.587  24.563  0.6363 -0.8421  1.4088
  164SOPE  H14S18430   1.655  -0.539  24.732 -0.2369  0.4436 -0.2797
  164SOPE  C21518431   1.739  -0.394  24.594  0.0113 -0.8481 -0.1944
  164SOPE  H15R18432   1.741  -0.313  24.671 -1.0427 -1.6924  0.7605
  164SOPE  H15S18433   1.705  -0.360  24.494  1.4291 -0.0463 -0.4194
  164SOPE  C21618434   1.873  -0.459  24.594 -0.3465 -0.0662 -0.0633
  164SOPE  H16R18435   1.865  -0.548  24.529 -0.3942  0.6396 -1.0434
  164SOPE  H16S18436   1.879  -0.491  24.700 -2.8177  2.4803  0.9784
  164SOPE  C21718437   1.978  -0.360  24.554  0.6018  0.4843  0.0934
  164SOPE  H17R18438   1.954  -0.263  24.602 -1.6278  0.0660 -0.0775
  164SOPE  H17S18439   1.964  -0.331  24.447  1.5597  2.2328  0.4057
  164SOPE  C21818440   2.127  -0.392  24.570 -0.0778  0.1295 -0.1435
  164SOPE  H18R18441   2.160  -0.452  24.482  1.0740 -0.0120  0.3679
  164SOPE  H18S18442   2.144  -0.439  24.669  1.0453  1.3769  0.2906
  164SOPE  H18T18443   2.172  -0.291  24.567 -1.7790  1.2427  4.1413
  164SOPE   C3318444   0.814   0.985  24.744 -0.1037 -0.4526  0.1996
  164SOPE   H3X18445   0.791   0.955  24.848  1.8398 -0.5831  0.6207
  164SOPE   H3Y18446   0.902   1.052  24.743 -1.8398  2.0265  1.2913
  164SOPE   C3418447   0.818   0.861  24.655  0.4332 -0.2512  0.1826
  164SOPE   H4X18448   0.715   0.821  24.653  1.6503 -3.7384 -2.6249
  164SOPE   H4Y18449   0.884   0.786  24.703 -1.2716 -1.6936  0.3380
  164SOPE   C3518450   0.866   0.885  24.512 -0.1557  0.6679  0.1357
  164SOPE   H5X18451   0.957   0.949  24.516  0.2034  0.0886  2.6116
  164SOPE   H5Y18452   0.795   0.949  24.455 -0.1355 -0.6708 -1.4655
  164SOPE   C3618453   0.908   0.760  24.435  0.2813  0.1665  0.7688
  164SOPE   H6X18454   0.819   0.706  24.396  0.8511  0.2799 -0.7669
  164SOPE   H6Y18455   0.971   0.688  24.491 -2.9537 -3.7154 -0.0946
  164SOPE   C3718456   0.974   0.801  24.298  0.3547  0.5191 -0.8901
  164SOPE   H7X18457   1.075   0.840  24.325  1.5684 -1.0814 -2.8791
  164SOPE   H7Y18458   0.926   0.890  24.251 -0.4966  2.4071  3.0542
  164SOPE   C3818459   0.982   0.693  24.195  0.1534  1.0451  0.3697
  164SOPE   H8X18460   0.878   0.677  24.160  1.5206  0.1476 -3.9702
  164SOPE   H8Y18461   1.028   0.602  24.240 -2.6641  0.3351  2.0227
  164SOPE   C3918462   1.067   0.743  24.082 -0.0228  0.1996 -0.6007
  164SOPE   H9X18463   1.163   0.779  24.125 -0.3916  0.2823  0.1604
  164SOPE   H9Y18464   1.015   0.830  24.035  0.4176  0.0549 -1.3652
  164SOPE  C31018465   1.107   0.635  23.983  0.1627 -0.9396 -0.4411
  164SOPE  H10X18466   1.203   0.587  24.013  0.5905 -0.0923 -0.4412
  164SOPE  H10Y18467   1.129   0.681  23.884 -0.2906  0.3454  0.0340
  164SOPE  C31118468   1.000   0.528  23.950 -0.0079 -0.5586 -0.4485
  164SOPE  H11X18469   0.935   0.587  23.883 -0.4349  2.5057  2.4017
  164SOPE  H11Y18470   0.936   0.487  24.032  0.3682  0.3494  0.3192
  164SOPE  C31218471   1.067   0.399  23.882 -0.6001 -0.2539 -0.3110
  164SOPE  H12X18472   1.151   0.435  23.817 -0.7286  0.7704  0.0695
  164SOPE  H12Y18473   0.994   0.341  23.822  1.3799 -0.5834 -2.6122
  164SOPE  C31318474   1.130   0.307  23.981 -1.0717  0.0588  0.3899
  164SOPE  H13X18475   1.061   0.254  24.049 -0.2695 -0.8419  0.5313
  164SOPE  H13Y18476   1.207   0.353  24.047 -0.9992 -0.0889  0.4091
  164SOPE  C31418477   1.201   0.199  23.904  0.0508  0.3358 -0.2522
  164SOPE  H14X18478   1.250   0.246  23.816  0.3673 -3.6802 -2.4541
  164SOPE  H14Y18479   1.129   0.120  23.874  1.0302 -0.2194 -1.2262
  164SOPE  C31518480   1.307   0.133  23.998  0.0646  0.3534 -0.0246
  164SOPE  H15X18481   1.258   0.119  24.097  1.6221 -3.1402  0.4001
  164SOPE  H15Y18482   1.395   0.197  24.020  1.2196 -1.8277  2.2327
  164SOPE  C31618483   1.347  -0.006  23.955 -0.0785  0.7236  0.5270
  164SOPE  H16X18484   1.405   0.003  23.861 -0.3228 -0.6797  0.2190
  164SOPE  H16Y18485   1.262  -0.072  23.929 -0.5325  1.2119  0.7554
  164SOPE  C31718486   1.441  -0.073  24.054 -0.2013 -0.2751 -0.1012
  164SOPE  H17X18487   1.538  -0.019  24.053 -0.4435  0.2443  1.3699
  164SOPE  H17Y18488   1.467  -0.172  24.012  1.8862 -0.0303  0.4872
  164SOPE  C31818489   1.384  -0.078  24.193  0.0169  0.0117 -0.4924
  164SOPE  H18X18490   1.438  -0.153  24.253 -2.6143 -2.3294 -0.8588
  164SOPE  H18Y18491   1.278  -0.110  24.189 -0.0774  0.0811  1.0472
  164SOPE  H18Z18492   1.382   0.024  24.238  0.3199 -1.1128  2.2357
  165SOPE     N18493   4.227   0.501  25.427 -0.4163  0.0717  0.1590
  165SOPE   HN118494   4.153   0.569  25.456 -0.0092  0.6741 -0.1931
  165SOPE   HN218495   4.238   0.507  25.324 -1.3327  1.5398  0.1140
  165SOPE   HN318496   4.188   0.405  25.437  0.3287 -0.6981 -3.1634
  165SOPE   C1218497   4.348   0.535  25.509 -0.0467  0.1700  0.1614
  165SOPE  H12A18498   4.321   0.510  25.614  1.5418  1.1444  0.8445
  165SOPE  H12B18499   4.366   0.644  25.497  2.5574 -0.2960 -0.8164
  165SOPE   C1118500   4.481   0.472  25.478  0.7818  0.2951 -1.7062
  165SOPE  H11A18501   4.510   0.509  25.378  3.6760  2.1416 -0.3344
  165SOPE  H11B18502   4.475   0.361  25.470  0.7838 -0.0430  1.6266
  165SOPE     P18503   4.732   0.505  25.546 -0.0766  0.1442 -0.1329
  165SOPE   O1318504   4.801   0.630  25.593  0.6600  0.1952 -0.6639
  165SOPE   O1418505   4.751   0.470  25.402 -0.7979 -0.0305 -0.8674
  165SOPE   O1218506   4.572   0.521  25.580 -0.1535  0.5667  0.2496
  165SOPE   O1118507   4.772   0.385  25.637  0.0728  0.9216 -0.0778
  165SOPE    C118508   4.726   0.250  25.624  0.0011 -0.0784 -0.4748
  165SOPE    HA18509   4.640   0.235  25.555 -2.3027  1.0193  1.9505
  165SOPE    HB18510   4.712   0.213  25.728 -0.6695 -1.2662 -0.9685
  165SOPE    C218511   4.836   0.153  25.567  0.0312 -0.3424  0.5078
  165SOPE    HS18512   4.787   0.054  25.572 -1.5788  0.4242  0.7072
  165SOPE   O2118513   4.957   0.155  25.644  0.3167 -0.5726 -0.2761
  165SOPE   C2118514   4.960   0.108  25.765  0.0854  0.0870  0.5527
  165SOPE   O2218515   4.867   0.086  25.839 -0.3582  0.3410 -0.8511
  165SOPE   C2218516   5.097   0.110  25.824 -0.1706  0.0451  0.2836
  165SOPE   H2R18517   5.105   0.207  25.878 -2.7439  1.3281 -1.4255
  165SOPE   H2S18518   5.172   0.104  25.743 -1.6549 -1.0499 -1.0761
  165SOPE    C318519   4.865   0.186  25.426 -0.6712  0.4916  0.3785
  165SOPE    HX18520   4.917   0.284  25.417 -0.9234  0.4175 -3.3891
  165SOPE    HY18521   4.765   0.202  25.380 -0.7899 -1.6363 -0.2086
  165SOPE   O3118522   4.933   0.080  25.356 -0.0393 -0.1190  0.4712
  165SOPE   C3118523   4.968   0.106  25.236  0.3634  0.2138  0.1606
  165SOPE   O3218524   4.936   0.203  25.171  0.3734 -0.5990  0.5870
  165SOPE   C3218525   5.048  -0.007  25.183  0.1064 -0.1318 -0.9885
  165SOPE   H2X18526   4.985  -0.098  25.171  1.5207 -1.0314 -1.8327
  165SOPE   H2Y18527   5.124  -0.033  25.259 -0.7784 -2.0783 -0.7082
  165SOPE   C2318528   5.124   0.002  25.931  0.2365  0.3861  0.8907
  165SOPE   H3R18529   5.034  -0.020  25.992  0.7463 -0.7508  1.2556
  165SOPE   H3S18530   5.202   0.033  26.003  2.1275 -1.9017 -0.0409
  165SOPE   C2418531   5.174  -0.128  25.855 -0.4576 -0.4306 -0.7607
  165SOPE   H4R18532   5.096  -0.178  25.794 -0.3668 -2.5265  0.7378
  165SOPE   H4S18533   5.270  -0.119  25.800 -0.3704  0.7526 -0.4364
  165SOPE   C2518534   5.210  -0.240  25.953  0.6784 -0.1766  0.0180
  165SOPE   H5R18535   5.283  -0.198  26.025  0.6644  1.7273 -1.0158
  165SOPE   H5S18536   5.116  -0.273  26.003  1.4723  0.0912  1.7522
  165SOPE   C2618537   5.279  -0.357  25.889 -0.2401  0.7724 -0.2811
  165SOPE   H6R18538   5.236  -0.348  25.787 -1.9532  2.3531  0.5239
  165SOPE   H6S18539   5.388  -0.341  25.871  0.0803  0.7200  1.4790
  165SOPE   C2718540   5.230  -0.488  25.947 -0.4734  0.6750 -0.5942
  165SOPE   H7R18541   5.120  -0.491  25.935 -0.9122  2.2534  2.1729
  165SOPE   H7S18542   5.273  -0.584  25.911  1.0761  0.5279  1.4662
  165SOPE   C2818543   5.255  -0.490  26.103 -0.4414 -0.2413  0.1903
  165SOPE   H8R18544   5.363  -0.480  26.124 -0.6290  2.1100  0.3219
  165SOPE   H8S18545   5.217  -0.394  26.143 -0.0944 -0.4384  1.0149
  165SOPE   C2918546   5.190  -0.604  26.181  0.5167 -0.0388  0.1081
  165SOPE   H9118547   5.081  -0.590  26.180  0.0024 -2.6331  3.1369
  165SOPE  C21018548   5.240  -0.687  26.272  0.0887  0.1028 -0.3477
  165SOPE  H10118549   5.172  -0.762  26.314  1.7006 -0.6363  1.0865
  165SOPE  C21118550   5.384  -0.705  26.302  0.1355  0.8460  0.3323
  165SOPE  H11R18551   5.378  -0.766  26.395 -1.1593 -1.6031 -1.2500
  165SOPE  H11S18552   5.431  -0.613  26.343 -0.0902  0.5119  1.3807
  165SOPE  C21218553   5.451  -0.777  26.184 -0.2464 -0.0419  0.2067
  165SOPE  H12R18554   5.562  -0.773  26.196 -0.3902 -2.2621  4.2752
  165SOPE  H12S18555   5.435  -0.712  26.095 -2.5842 -1.1888 -0.2917
  165SOPE  C21318556   5.411  -0.917  26.160  0.3940  0.1162 -0.0953
  165SOPE  H13R18557   5.301  -0.924  26.174  0.4009  0.3705  0.0958
  165SOPE  H13S18558   5.461  -0.989  26.227  0.7975  0.9527  0.5254
  165SOPE  C21418559   5.437  -0.955  26.013  0.0459  0.3595 -0.9938
  165SOPE  H14R18560   5.381  -0.889  25.944  0.1099  0.2038 -1.1945
  165SOPE  H14S18561   5.408  -1.059  25.989  0.0397  0.0287  0.3577
  165SOPE  C21518562   5.592  -0.964  25.983  0.1160 -0.2682 -0.3286
  165SOPE  H15R18563   5.641  -1.043  26.044 -0.7605 -0.8210 -0.3084
  165SOPE  H15S18564   5.642  -0.867  26.002 -0.7656  0.0072  0.6800
  165SOPE  C21618565   5.614  -1.009  25.839  0.1400 -0.7747  0.0705
  165SOPE  H16R18566   5.538  -0.958  25.777  2.4494  0.6735 -1.6858
  165SOPE  H16S18567   5.593  -1.119  25.835  0.1206 -0.9067  2.2234
  165SOPE  C21718568   5.751  -0.973  25.782 -0.7111  0.3629  0.5308
  165SOPE  H17R18569   5.824  -1.017  25.854  0.2620  0.9630 -0.0743
  165SOPE  H17S18570   5.761  -0.864  25.803  0.5158  0.2077  0.8411
  165SOPE  C21818571   5.763  -1.014  25.638 -0.3491 -0.0026  0.8684
  165SOPE  H18R18572   5.860  -0.993  25.589 -0.3147  1.7774  1.6244
  165SOPE  H18S18573   5.685  -0.957  25.583  1.4122  2.0520  0.3667
  165SOPE  H18T18574   5.751  -1.123  25.622  1.7946  0.0017 -1.4091
  165SOPE   C3318575   5.118   0.025  25.047 -0.4148 -0.1705 -0.4593
  165SOPE   H3X18576   5.155   0.130  25.045  2.4690 -1.1228 -0.7168
  165SOPE   H3Y18577   5.053   0.008  24.958 -0.5006 -1.8684 -0.0943
  165SOPE   C3418578   5.251  -0.063  25.024 -0.2406 -1.2881 -0.5065
  165SOPE   H4X18579   5.261  -0.058  24.914  0.9368 -0.4161 -0.3832
  165SOPE   H4Y18580   5.237  -0.172  25.039 -0.8514 -1.2611 -0.8632
  165SOPE   C3518581   5.373   0.001  25.091  0.3755  0.0157  0.4301
  165SOPE   H5X18582   5.346   0.038  25.192  0.9124  2.5361 -0.2888
  165SOPE   H5Y18583   5.404   0.085  25.026 -2.7698  2.8094  2.2008
  165SOPE   C3618584   5.476  -0.106  25.119 -0.0315  0.0670 -0.7031
  165SOPE   H6X18585   5.545  -0.105  25.032  2.2114  2.4356  0.9445
  165SOPE   H6Y18586   5.429  -0.206  25.125  0.8107 -0.3243 -0.3444
  165SOPE   C3718587   5.542  -0.068  25.248 -1.1437  0.1913 -0.0867
  165SOPE   H7X18588   5.466  -0.057  25.328 -1.4603  0.5431 -0.4318
  165SOPE   H7Y18589   5.584   0.035  25.240 -1.1600  0.2743  0.7864
  165SOPE   C3818590   5.668  -0.152  25.272  0.3622 -0.4512  0.4813
  165SOPE   H8X18591   5.736  -0.123  25.190 -0.4743 -0.0302 -0.0769
  165SOPE   H8Y18592   5.643  -0.256  25.240  2.1645 -0.7016 -0.2514
  165SOPE   C3918593   5.742  -0.154  25.407  0.1498  0.3166  0.5110
  165SOPE   H9X18594   5.758  -0.262  25.426  2.6365  0.2128 -1.5021
  165SOPE   H9Y18595   5.684  -0.107  25.489 -3.4509 -0.4177 -1.4176
  165SOPE  C31018596   5.876  -0.084  25.412 -0.7253  0.2039 -0.3430
  165SOPE  H10X18597   5.939  -0.136  25.337 -1.9293  0.9033 -1.8768
  165SOPE  H10Y18598   5.924  -0.111  25.509  1.6611 -0.9246 -1.7337
  165SOPE  C31118599   5.873   0.066  25.401 -0.6228 -0.2808 -0.1771
  165SOPE  H11X18600   5.829   0.083  25.301 -0.6009  1.4176  0.0717
  165SOPE  H11Y18601   5.977   0.105  25.411 -0.8025 -0.3342  3.4017
  165SOPE  C31218602   5.790   0.138  25.508  0.4431 -0.0298  0.1810
  165SOPE  H12X18603   5.698   0.081  25.535  0.2559  1.2520  2.5316
  165SOPE  H12Y18604   5.771   0.237  25.461  1.3012 -0.4754 -1.1749
  165SOPE  C31318605   5.882   0.161  25.627 -0.3620  0.7219  0.6658
  165SOPE  H13X18606   5.968   0.219  25.587  0.5323 -0.8490  0.2267
  165SOPE  H13Y18607   5.911   0.065  25.676 -0.1207 -0.0431 -0.9274
  165SOPE  C31418608   5.807   0.244  25.731  0.6142  0.3299  0.1552
  165SOPE  H14X18609   5.723   0.187  25.777 -1.0176  2.2800 -0.2635
  165SOPE  H14Y18610   5.768   0.336  25.682 -0.7657 -1.2571 -1.9079
  165SOPE  C31518611   5.889   0.297  25.848 -0.2494  0.3729  0.6490
  165SOPE  H15X18612   5.962   0.218  25.876 -0.1398  0.5712  0.9342
  165SOPE  H15Y18613   5.822   0.323  25.933 -0.0289  1.4479  0.5075
  165SOPE  C31618614   5.980   0.420  25.810  0.4808 -0.2784 -0.3105
  165SOPE  H16X18615   5.916   0.499  25.767  0.3834 -0.2209 -0.0648
  165SOPE  H16Y18616   6.054   0.399  25.730  0.3288  0.0574 -0.5437
  165SOPE  C31718617   6.046   0.477  25.937 -0.7590  0.5937 -0.1628
  165SOPE  H17X18618   6.132   0.411  25.962 -1.5986 -0.5549 -0.2105
  165SOPE  H17Y18619   5.983   0.478  26.029  1.5151  2.5236  1.4909
  165SOPE  C31818620   6.088   0.622  25.904  0.4770  0.2516  0.9711
  165SOPE  H18X18621   5.992   0.672  25.881 -0.4684 -2.0390 -0.3965
  165SOPE  H18Y18622   6.169   0.640  25.830  0.7686  0.4555  1.3310
  165SOPE  H18Z18623   6.126   0.668  25.998  0.3230 -0.1221  1.2175
  166SOPE     N18624   3.931   1.121  21.588 -0.3732  0.2217  0.7596
  166SOPE   HN118625   4.006   1.155  21.652 -0.2833  2.3511 -0.3753
  166SOPE   HN218626   3.931   1.192  21.512  6.0901  0.8371  0.8413
  166SOPE   HN318627   3.843   1.125  21.644 -0.5748 -0.9246  0.5395
  166SOPE   C1218628   3.953   0.982  21.532  0.0333 -0.3095  0.0997
  166SOPE  H12A18629   3.872   0.961  21.459  0.4490 -0.6187 -0.2739
  166SOPE  H12B18630   3.947   0.910  21.616 -1.5346  0.4839  0.6948
  166SOPE   C1118631   4.083   0.983  21.457  0.1661  0.3327  0.1703
  166SOPE  H11A18632   4.163   1.011  21.529  0.1601  1.0468 -0.0906
  166SOPE  H11B18633   4.098   1.058  21.377  3.1790 -0.9464 -0.5684
  166SOPE     P18634   4.127   0.728  21.489 -0.2794  0.0007 -0.2846
  166SOPE   O1318635   4.130   0.770  21.633  0.4932 -0.2329  0.1748
  166SOPE   O1418636   4.231   0.646  21.430  0.8823  0.3407 -0.1544
  166SOPE   O1218637   4.109   0.855  21.399 -0.5800 -0.0192 -0.1128
  166SOPE   O1118638   3.994   0.641  21.472  0.4538 -0.1574  0.5137
  166SOPE    C118639   3.938   0.638  21.337  0.1091 -0.1362 -0.3460
  166SOPE    HA18640   4.014   0.608  21.262  1.5543 -3.4375  2.1480
  166SOPE    HB18641   3.904   0.740  21.312 -2.6507 -0.8342  0.2503
  166SOPE    C218642   3.813   0.544  21.315 -0.3954  0.5927  0.0253
  166SOPE    HS18643   3.791   0.539  21.206 -1.5861 -3.2305  0.2935
  166SOPE   O2118644   3.704   0.592  21.389  0.3473 -0.3288  0.5637
  166SOPE   C2118645   3.624   0.684  21.336 -0.8274 -0.2667 -0.1226
  166SOPE   O2218646   3.654   0.752  21.235  0.9546 -0.1712  0.9157
  166SOPE   C2218647   3.497   0.680  21.407 -0.0002  0.1655  0.9930
  166SOPE   H2R18648   3.516   0.691  21.516  0.4143  1.5987  0.7997
  166SOPE   H2S18649   3.440   0.586  21.391 -0.3457  0.3702  1.0106
  166SOPE    C318650   3.843   0.398  21.363 -1.2026 -0.5887 -0.5009
  166SOPE    HX18651   3.860   0.407  21.472 -1.4040  3.4296 -0.6623
  166SOPE    HY18652   3.942   0.361  21.329 -0.9130 -1.8756  1.5900
  166SOPE   O3118653   3.738   0.317  21.313  0.0368  0.4432  0.1271
  166SOPE   C3118654   3.716   0.205  21.384 -0.1058  0.2459  0.8448
  166SOPE   O3218655   3.779   0.165  21.476 -0.2582  0.1912  0.2504
  166SOPE   C3218656   3.594   0.134  21.327  0.0430  0.3801 -0.1367
  166SOPE   H2X18657   3.541   0.187  21.245  0.9479 -2.1223 -2.4728
  166SOPE   H2Y18658   3.533   0.113  21.418 -2.5270  2.0831 -1.3518
  166SOPE   C2318659   3.407   0.799  21.355  0.0143  1.2389 -0.5068
  166SOPE   H3R18660   3.391   0.798  21.245 -1.0772  0.6939 -0.3539
  166SOPE   H3S18661   3.452   0.898  21.377 -1.8983  2.2156 -0.8213
  166SOPE   C2418662   3.271   0.785  21.419  0.8580 -0.2618 -1.0796
  166SOPE   H4R18663   3.213   0.696  21.385 -1.7476  1.0557 -0.3230
  166SOPE   H4S18664   3.279   0.769  21.529 -1.0008 -1.2502 -1.0448
  166SOPE   C2518665   3.189   0.914  21.408  0.4684  0.2955  1.1293
  166SOPE   H5R18666   3.247   1.008  21.421  1.6076 -0.5281  2.3344
  166SOPE   H5S18667   3.151   0.917  21.304  0.6122 -0.9436  1.0257
  166SOPE   C2618668   3.062   0.905  21.501  0.1930  0.1801 -0.5471
  166SOPE   H6R18669   3.034   0.797  21.498  0.0060  0.2129 -0.1182
  166SOPE   H6S18670   3.094   0.931  21.604  2.2643  1.5285 -1.4775
  166SOPE   C2718671   2.945   0.985  21.448 -0.1040 -0.2313 -0.5525
  166SOPE   H7R18672   2.968   1.091  21.469 -1.4233  0.0060 -0.2268
  166SOPE   H7S18673   2.934   0.964  21.339  2.0281 -1.9778 -0.5100
  166SOPE   C2818674   2.810   0.952  21.520 -0.5422 -1.0183  0.3039
  166SOPE   H8R18675   2.821   0.980  21.627 -1.5414 -0.6452  0.3288
  166SOPE   H8S18676   2.732   1.022  21.482 -0.7873 -0.6864  1.4024
  166SOPE   C2918677   2.770   0.810  21.516  0.3791 -0.3652  0.0015
  166SOPE   H9118678   2.803   0.735  21.590  0.6689 -1.0367 -0.7832
  166SOPE  C21018679   2.696   0.765  21.414  0.1892 -0.5780  0.5499
  166SOPE  H10118680   2.661   0.661  21.423 -0.7174 -0.2514  0.9002
  166SOPE  C21118681   2.646   0.838  21.294 -0.1134 -0.2593  0.5697
  166SOPE  H11R18682   2.677   0.944  21.285 -0.3141 -0.1533  1.1004
  166SOPE  H11S18683   2.536   0.834  21.280  0.2715 -1.1038 -3.0389
  166SOPE  C21218684   2.707   0.767  21.170  0.2531 -0.1765  0.1085
  166SOPE  H12R18685   2.668   0.825  21.083  0.5364 -0.9183 -0.5260
  166SOPE  H12S18686   2.659   0.667  21.165  3.6679 -1.9047 -2.4905
  166SOPE  C21318687   2.861   0.753  21.168  0.3610  0.7252  0.0999
  166SOPE  H13R18688   2.896   0.708  21.264 -0.3573 -2.9628 -1.1972
  166SOPE  H13S18689   2.919   0.847  21.157  1.5126 -0.0095 -0.3962
  166SOPE  C21418690   2.911   0.649  21.063  0.6954  0.6269  0.5319
  166SOPE  H14R18691   2.889   0.688  20.961 -1.5800  1.3375  1.2238
  166SOPE  H14S18692   2.846   0.559  21.067  2.0580 -0.5556 -1.6784
  166SOPE  C21518693   3.060   0.607  21.085  0.4695 -0.0910  1.3644
  166SOPE  H15R18694   3.112   0.687  21.141 -1.9992  0.9499  2.2883
  166SOPE  H15S18695   3.109   0.599  20.985  0.7235  0.6074  1.4307
  166SOPE  C21618696   3.078   0.471  21.160 -0.2457 -0.2872 -0.2692
  166SOPE  H16R18697   3.036   0.390  21.097  0.8819 -1.1151  0.0078
  166SOPE  H16S18698   3.029   0.478  21.259 -1.5997  1.1968 -0.9912
  166SOPE  C21718699   3.226   0.443  21.165 -0.8592 -0.2795  0.0499
  166SOPE  H17R18700   3.280   0.513  21.232 -0.8680 -0.4406  0.2261
  166SOPE  H17S18701   3.253   0.461  21.059 -0.4504  1.6871  0.4388
  166SOPE  C21818702   3.262   0.292  21.201 -0.0807 -0.7752 -0.3243
  166SOPE  H18R18703   3.205   0.263  21.292 -0.9887 -0.9863 -0.9480
  166SOPE  H18S18704   3.370   0.275  21.220 -0.2968 -2.7173 -0.6444
  166SOPE  H18T18705   3.231   0.228  21.116 -2.0790  2.0525 -1.9244
  166SOPE   C3318706   3.630  -0.002  21.272 -0.3966 -0.1929  0.3023
  166SOPE   H3X18707   3.670  -0.067  21.353 -0.4127  1.0996  1.3802
  166SOPE   H3Y18708   3.712  -0.000  21.197  0.4246 -1.7043  1.1063
  166SOPE   C3418709   3.514  -0.076  21.200 -0.7672 -0.5157 -0.3157
  166SOPE   H4X18710   3.478  -0.028  21.106  1.5791 -2.2797 -2.2590
  166SOPE   H4Y18711   3.432  -0.116  21.262 -1.5907  1.3429 -0.1252
  166SOPE   C3518712   3.577  -0.202  21.141 -0.3004  0.4730 -0.1968
  166SOPE   H5X18713   3.611  -0.262  21.228 -1.5860  0.7717  0.5346
  166SOPE   H5Y18714   3.659  -0.182  21.069  0.5921  1.7535  1.1390
  166SOPE   C3618715   3.476  -0.304  21.076 -0.3506  0.0088  0.3529
  166SOPE   H6X18716   3.436  -0.280  20.975  0.2093 -1.1218 -0.1473
  166SOPE   H6Y18717   3.393  -0.308  21.150  0.8549 -1.1792  1.7096
  166SOPE   C3718718   3.527  -0.445  21.067 -0.3141 -0.1179 -0.1960
  166SOPE   H7X18719   3.578  -0.473  21.161 -0.5105  2.9112  0.9407
  166SOPE   H7Y18720   3.611  -0.445  20.995 -0.2785 -0.7029 -0.1574
  166SOPE   C3818721   3.422  -0.551  21.041 -0.3443 -0.3766 -0.0399
  166SOPE   H8X18722   3.327  -0.525  21.093  0.1700 -2.3781  2.0269
  166SOPE   H8Y18723   3.454  -0.648  21.083  0.5045 -0.8479 -1.6810
  166SOPE   C3918724   3.392  -0.567  20.894 -0.1368 -0.0762  0.8187
  166SOPE   H9X18725   3.483  -0.600  20.839 -0.7073 -0.4588  0.0848
  166SOPE   H9Y18726   3.360  -0.464  20.867 -0.6411  0.4242  3.1532
  166SOPE  C31018727   3.273  -0.665  20.869  0.7859 -0.2332  0.3710
  166SOPE  H10X18728   3.185  -0.621  20.920 -0.1866 -2.6107  0.8669
  166SOPE  H10Y18729   3.302  -0.759  20.920 -0.8241 -0.8413  0.1997
  166SOPE  C31118730   3.243  -0.684  20.722  0.3505  0.5402  0.2391
  166SOPE  H11X18731   3.158  -0.754  20.713 -0.2904  1.3288  0.0450
  166SOPE  H11Y18732   3.334  -0.728  20.676  1.0852  1.9188  0.3159
  166SOPE  C31218733   3.232  -0.559  20.633 -0.0013 -0.1977  0.6007
  166SOPE  H12X18734   3.332  -0.511  20.628 -0.2621  0.2594 -2.8631
  166SOPE  H12Y18735   3.158  -0.488  20.675 -0.1604 -0.6787  1.1534
  166SOPE  C31318736   3.206  -0.606  20.487 -0.6243  0.2421  0.2700
  166SOPE  H13X18737   3.096  -0.615  20.473 -0.6081 -0.8158  0.7296
  166SOPE  H13Y18738   3.233  -0.713  20.479 -1.7203 -0.0032 -0.3953
  166SOPE  C31418739   3.271  -0.544  20.358  0.3469  0.1433  0.0776
  166SOPE  H14X18740   3.377  -0.516  20.375  0.7365 -2.4057  2.4565
  166SOPE  H14Y18741   3.215  -0.449  20.345 -0.4410 -0.2427  0.5431
  166SOPE  C31518742   3.254  -0.638  20.232  0.8348 -0.2029  0.0073
  166SOPE  H15X18743   3.149  -0.674  20.233 -0.2222  2.5176 -1.5242
  166SOPE  H15Y18744   3.313  -0.727  20.262  0.4776  0.4698  2.9787
  166SOPE  C31618745   3.292  -0.577  20.097 -0.4804  0.0818  0.5222
  166SOPE  H16X18746   3.323  -0.654  20.024  1.0339  2.8166 -1.9122
  166SOPE  H16Y18747   3.395  -0.533  20.103  0.2495 -1.3912 -0.5944
  166SOPE  C31718748   3.188  -0.501  20.024  0.2928  0.1885  0.2206
  166SOPE  H17X18749   3.243  -0.418  19.973  1.1084 -1.7868 -2.3162
  166SOPE  H17Y18750   3.123  -0.460  20.104 -0.5314 -0.8506  0.0941
  166SOPE  C31818751   3.127  -0.587  19.919  0.1587  0.7223 -0.3250
  166SOPE  H18X18752   3.050  -0.528  19.864  2.1096 -0.5576 -4.8778
  166SOPE  H18Y18753   3.089  -0.684  19.958 -0.0978  1.1351  0.4717
  166SOPE  H18Z18754   3.198  -0.615  19.838 -1.5694 -0.4708 -1.5234
  167SOPE     N18755   1.599   3.156  18.906  0.5116 -0.5857  0.6233
  167SOPE   HN118756   1.550   3.239  18.945 -1.3823 -2.1725  1.8363
  167SOPE   HN218757   1.699   3.167  18.932  0.7760 -1.7594  0.1699
  167SOPE   HN318758   1.599   3.165  18.803 -1.0773  0.4172  0.6881
  167SOPE   C1218759   1.523   3.027  18.926 -0.5088  0.1943  0.3669
  167SOPE  H12A18760   1.515   3.014  19.036 -0.6713  0.2816  0.3646
  167SOPE  H12B18761   1.582   2.948  18.875 -1.5830 -0.3442 -0.0622
  167SOPE   C1118762   1.383   3.043  18.858 -0.4881  0.2687 -0.5583
  167SOPE  H11A18763   1.325   3.121  18.912  0.1724 -0.5104  1.3604
  167SOPE  H11B18764   1.318   2.954  18.873  2.0967 -2.0646 -2.2077
  167SOPE     P18765   1.307   3.178  18.639  0.4107 -0.1918 -0.0056
  167SOPE   O1318766   1.355   3.185  18.501  0.5659  0.3421  0.3708
  167SOPE   O1418767   1.317   3.303  18.717  0.4281  0.4646 -0.3962
  167SOPE   O1218768   1.387   3.063  18.713 -0.2624 -0.1721 -0.4651
  167SOPE   O1118769   1.155   3.123  18.638 -0.2641 -0.0409  0.0132
  167SOPE    C118770   1.111   3.021  18.541 -0.1096 -0.1939 -0.1888
  167SOPE    HA18771   1.081   2.929  18.596 -0.0965 -1.5309 -2.2923
  167SOPE    HB18772   1.189   2.987  18.470  0.8064  0.6519  0.3754
  167SOPE    C218773   0.998   3.067  18.449 -0.1533 -0.5087 -0.2970
  167SOPE    HS18774   1.044   3.129  18.369  0.3141 -1.0759 -0.4801
  167SOPE   O2118775   0.903   3.149  18.529 -0.5631 -0.1343 -0.2165
  167SOPE   C2118776   0.819   3.221  18.452  0.4364  0.3529  0.0511
  167SOPE   O2218777   0.838   3.241  18.334 -0.4938  0.1096  0.1895
  167SOPE   C2218778   0.706   3.278  18.539 -0.1248 -0.0883  0.0234
  167SOPE   H2R18779   0.657   3.368  18.496 -0.9194  0.2101  1.4994
  167SOPE   H2S18780   0.761   3.313  18.629 -2.0069 -2.6273  2.3423
  167SOPE    C318781   0.929   2.955  18.360  0.0354  0.2899 -0.0027
  167SOPE    HX18782   1.013   2.928  18.291  0.5117  0.8042  0.3686
  167SOPE    HY18783   0.848   2.990  18.292  0.4584  1.4473  0.0540
  167SOPE   O3118784   0.891   2.835  18.436  0.1038 -0.2054 -0.0932
  167SOPE   C3118785   0.763   2.815  18.446 -0.5142  0.4785  0.4159
  167SOPE   O3218786   0.677   2.874  18.374  0.7686  0.4669  0.6036
  167SOPE   C3218787   0.739   2.690  18.541 -1.1052 -0.2025 -0.3812
  167SOPE   H2X18788   0.771   2.729  18.641 -1.7535  0.5716 -0.4662
  167SOPE   H2Y18789   0.815   2.621  18.498 -1.9422 -0.7585 -0.9873
  167SOPE   C2318790   0.600   3.165  18.579 -0.4531  0.0491  0.3901
  167SOPE   H3R18791   0.647   3.067  18.600  0.5593 -0.0667 -2.1096
  167SOPE   H3S18792   0.532   3.139  18.495 -1.0951  0.7444  0.6731
  167SOPE   C2418793   0.502   3.206  18.698 -0.0436  0.4268 -0.6934
  167SOPE   H4R18794   0.563   3.229  18.788  0.4910 -2.8175 -0.0982
  167SOPE   H4S18795   0.439   3.285  18.654  0.9352  1.4836 -0.2435
  167SOPE   C2518796   0.410   3.085  18.753  0.4862 -0.0554  0.5833
  167SOPE   H5R18797   0.340   3.062  18.670  1.0528 -1.5404  0.4872
  167SOPE   H5S18798   0.468   2.991  18.765  0.4044 -0.0808  0.7917
  167SOPE   C2618799   0.328   3.122  18.880 -0.0014  0.0037  0.9004
  167SOPE   H6R18800   0.404   3.150  18.956  0.6012 -1.2425  0.7896
  167SOPE   H6S18801   0.271   3.214  18.856 -0.3590 -0.6791 -1.1026
  167SOPE   C2718802   0.250   3.003  18.943  0.1688 -0.6178 -0.2110
  167SOPE   H7R18803   0.328   2.930  18.973 -0.6108 -0.8913  1.2446
  167SOPE   H7S18804   0.199   3.044  19.033  0.0103  0.8915 -0.9535
  167SOPE   C2818805   0.147   2.936  18.844 -0.1585 -0.2591  0.2738
  167SOPE   H8R18806   0.197   2.890  18.756  0.3508 -1.9701  1.4088
  167SOPE   H8S18807   0.102   2.849  18.896 -1.9551  0.6523  0.2955
  167SOPE   C2918808   0.059   3.047  18.786  0.2044  0.7080 -0.2096
  167SOPE   H9118809   0.102   3.110  18.707  2.5017 -0.6761 -0.1735
  167SOPE  C21018810  -0.072   3.067  18.819  0.1045  0.0355 -0.3499
  167SOPE  H10118811  -0.133   3.149  18.780 -3.4315 -1.4499  1.5492
  167SOPE  C21118812  -0.151   2.991  18.917 -0.2985  0.0378  0.3610
  167SOPE  H11R18813  -0.093   2.918  18.977 -1.6047  0.2355  1.9225
  167SOPE  H11S18814  -0.211   2.930  18.846 -0.9852  0.3485  0.6647
  167SOPE  C21218815  -0.229   3.077  19.016 -0.0916 -0.5023  0.2437
  167SOPE  H12R18816  -0.281   2.995  19.070  1.9356 -2.7992 -1.1028
  167SOPE  H12S18817  -0.294   3.154  18.969 -0.0306  0.1272  1.1554
  167SOPE  C21318818  -0.134   3.154  19.112 -0.5890  0.1271 -0.0864
  167SOPE  H13R18819  -0.083   3.230  19.049 -1.2794  1.4169  0.8538
  167SOPE  H13S18820  -0.060   3.075  19.138  1.9468  2.7175  1.1761
  167SOPE  C21418821  -0.198   3.201  19.245  0.7365  0.1906 -0.3508
  167SOPE  H14R18822  -0.245   3.109  19.286  2.1668 -0.0975  0.7490
  167SOPE  H14S18823  -0.282   3.270  19.221  2.6038  2.1671 -1.5477
  167SOPE  C21518824  -0.098   3.250  19.352 -0.4712  0.1584 -0.1576
  167SOPE  H15R18825  -0.028   3.313  19.292 -0.5568 -0.0524 -0.4832
  167SOPE  H15S18826  -0.035   3.171  19.398  0.5591  1.4115  0.6403
  167SOPE  C21618827  -0.159   3.332  19.467  0.5266  0.1698  0.0313
  167SOPE  H16R18828  -0.067   3.362  19.522  1.2578 -0.7973 -0.6316
  167SOPE  H16S18829  -0.200   3.259  19.540 -0.4293  1.2656  0.6158
  167SOPE  C21718830  -0.236   3.455  19.441  0.0415  0.0270  0.5175
  167SOPE  H17R18831  -0.337   3.438  19.397  0.9061  3.2316 -3.1368
  167SOPE  H17S18832  -0.177   3.528  19.382  2.7694 -1.1327  1.6239
  167SOPE  C21818833  -0.247   3.535  19.570  0.1426 -0.2952 -0.0078
  167SOPE  H18R18834  -0.149   3.583  19.593 -0.7698  1.5146  0.2454
  167SOPE  H18S18835  -0.278   3.480  19.662  1.9644  1.4068  1.7140
  167SOPE  H18T18836  -0.328   3.609  19.553  0.0368 -0.6758 -1.2561
  167SOPE   C3318837   0.600   2.631  18.534 -0.1839  0.3267  0.6431
  167SOPE   H3X18838   0.598   2.543  18.602 -0.0907  0.6623  1.0899
  167SOPE   H3Y18839   0.562   2.590  18.438  0.8203 -0.4933  0.5814
  167SOPE   C3418840   0.495   2.730  18.585  0.3402 -0.0682 -0.1296
  167SOPE   H4X18841   0.471   2.810  18.512 -1.6438 -1.4491 -1.0739
  167SOPE   H4Y18842   0.520   2.776  18.683 -1.6710 -0.3804  0.5792
  167SOPE   C3518843   0.353   2.665  18.601 -0.1687 -0.2179 -0.6912
  167SOPE   H5X18844   0.336   2.613  18.504 -0.9731 -1.3859  0.0445
  167SOPE   H5Y18845   0.288   2.753  18.619  0.8465  0.0584  2.1396
  167SOPE   C3618846   0.347   2.581  18.727 -0.2296 -0.2023 -0.2735
  167SOPE   H6X18847   0.341   2.632  18.826  0.8670 -1.0012  0.2202
  167SOPE   H6Y18848   0.432   2.510  18.735 -0.2635 -0.1097  1.2075
  167SOPE   C3718849   0.213   2.500  18.722  0.3566  0.1133  0.3793
  167SOPE   H7X18850   0.196   2.441  18.629  1.8058 -3.2216  2.0367
  167SOPE   H7Y18851   0.134   2.578  18.731  0.7565  0.6550 -0.6522
  167SOPE   C3818852   0.188   2.396  18.832 -0.1208 -0.5125 -0.1693
  167SOPE   H8X18853   0.282   2.338  18.844  0.4308  0.0131 -1.7891
  167SOPE   H8Y18854   0.107   2.331  18.793 -2.3521  1.7802  0.3435
  167SOPE   C3918855   0.133   2.458  18.965 -0.5870  0.1992  0.3368
  167SOPE   H9X18856   0.060   2.539  18.941 -2.0430 -0.7373  1.4262
  167SOPE   H9Y18857   0.211   2.515  19.019  1.8495 -0.3996 -2.3374
  167SOPE  C31018858   0.050   2.356  19.045  0.2102 -0.4706  0.7528
  167SOPE  H10X18859  -0.011   2.289  18.980  1.3767  0.6413 -1.6043
  167SOPE  H10Y18860  -0.025   2.413  19.104 -0.0840  0.1422 -0.1976
  167SOPE  C31118861   0.138   2.263  19.122  0.1738 -0.3989  0.0896
  167SOPE  H11X18862   0.206   2.318  19.191 -1.7062  2.0784  0.1336
  167SOPE  H11Y18863   0.202   2.213  19.047 -0.9584 -1.1003 -0.4432
  167SOPE  C31218864   0.059   2.149  19.199 -0.4008 -0.4692 -0.2986
  167SOPE  H12X18865   0.130   2.064  19.208 -1.5653 -1.6146 -1.4597
  167SOPE  H12Y18866  -0.023   2.116  19.131 -0.0720 -0.2490 -0.8101
  167SOPE  C31318867  -0.013   2.196  19.323 -0.2322  0.3882 -0.5126
  167SOPE  H13X18868  -0.036   2.304  19.311  0.9812  0.7022 -0.1764
  167SOPE  H13Y18869   0.059   2.191  19.408  1.0870 -0.5829 -1.6451
  167SOPE  C31418870  -0.150   2.117  19.339 -0.2878  0.7426 -0.1160
  167SOPE  H14X18871  -0.119   2.011  19.331 -1.1167  0.5877 -1.4831
  167SOPE  H14Y18872  -0.226   2.148  19.264 -0.4040 -0.1979 -0.3934
  167SOPE  C31518873  -0.226   2.129  19.475 -0.0951 -0.2568 -0.0430
  167SOPE  H15X18874  -0.167   2.066  19.545 -0.2929 -0.9336 -0.4644
  167SOPE  H15Y18875  -0.329   2.089  19.469 -0.8608  1.7772 -1.4296
  167SOPE  C31618876  -0.231   2.283  19.527 -0.6620  0.5437  0.3028
  167SOPE  H16X18877  -0.130   2.329  19.530 -0.1916 -0.4577  0.5062
  167SOPE  H16Y18878  -0.256   2.284  19.635  0.0782  0.0140  0.4931
  167SOPE  C31718879  -0.333   2.360  19.446 -0.5817 -0.0165  0.1914
  167SOPE  H17X18880  -0.436   2.320  19.449 -0.9380  0.8571 -0.0638
  167SOPE  H17Y18881  -0.300   2.361  19.340  0.6566  0.6977  0.5586
  167SOPE  C31818882  -0.346   2.503  19.495 -0.0984  0.4688  0.0344
  167SOPE  H18X18883  -0.414   2.562  19.430  0.1861  1.2888  0.4742
  167SOPE  H18Y18884  -0.249   2.556  19.507 -0.0436 -0.1110  2.9767
  167SOPE  H18Z18885  -0.398   2.504  19.593  0.4836  0.2924  0.3551
  168SOPE     N18886   1.195   0.712  17.129  0.9604  0.9735  0.3586
  168SOPE   HN118887   1.152   0.795  17.084  0.6319  1.7666  2.0502
  168SOPE   HN218888   1.211   0.737  17.229 -0.4858  0.6380  0.6891
  168SOPE   HN318889   1.286   0.697  17.080  0.0508 -0.2670 -1.0091
  168SOPE   C1218890   1.110   0.581  17.111  0.5373 -0.5956  0.6994
  168SOPE  H12A18891   1.014   0.589  17.168  0.4000  0.2882  0.3528
  168SOPE  H12B18892   1.164   0.498  17.161  0.7974 -1.4478 -0.9544
  168SOPE   C1118893   1.089   0.549  16.966 -0.1440  0.6681  0.8262
  168SOPE  H11A18894   1.001   0.605  16.928  0.8266  2.3452  0.9179
  168SOPE  H11B18895   1.072   0.441  16.947  1.8007  0.2798  1.0698
  168SOPE     P18896   1.241   0.551  16.746  0.2188 -0.4097 -0.1467
  168SOPE   O1318897   1.305   0.421  16.742  0.3410  0.1915  0.1223
  168SOPE   O1418898   1.326   0.658  16.691 -0.1205  0.2546  0.0849
  168SOPE   O1218899   1.201   0.587  16.890 -0.1911 -0.1846 -0.1402
  168SOPE   O1118900   1.109   0.560  16.665  0.1963  0.3520  0.0136
  168SOPE    C118901   1.044   0.682  16.615 -0.4341 -0.0902  0.1908
  168SOPE    HA18902   1.119   0.730  16.549  0.8533 -1.0888  0.8877
  168SOPE    HB18903   1.022   0.744  16.705 -1.5501 -1.3134  0.8123
  168SOPE    C218904   0.919   0.647  16.531 -0.5235 -0.3611 -0.9638
  168SOPE    HS18905   0.850   0.731  16.511 -0.3769 -0.0143 -0.0551
  168SOPE   O2118906   0.861   0.531  16.594  0.2692  0.5220  0.2997
  168SOPE   C2118907   0.789   0.565  16.697  0.1944 -0.5336  0.6875
  168SOPE   O2218908   0.763   0.682  16.726 -0.5430 -0.0286  0.3343
  168SOPE   C2218909   0.755   0.441  16.775 -0.1629  0.1259  0.5307
  168SOPE   H2R18910   0.849   0.384  16.792  0.3409  0.7921  0.0431
  168SOPE   H2S18911   0.678   0.396  16.710  0.8872  0.9151 -1.3476
  168SOPE    C318912   0.972   0.604  16.384 -0.1575 -0.3450 -1.1218
  168SOPE    HX18913   1.055   0.539  16.418 -0.7238  0.1835  1.4574
  168SOPE    HY18914   1.006   0.687  16.317 -2.7656  1.0857 -0.8037
  168SOPE   O3118915   0.882   0.514  16.319  0.4481  0.1889  0.1817
  168SOPE   C3118916   0.772   0.580  16.269 -0.4661  0.4828  0.3156
  168SOPE   O3218917   0.769   0.702  16.253 -0.5545  0.4145  0.2641
  168SOPE   C3218918   0.668   0.475  16.227  0.5056 -0.4413  0.4255
  168SOPE   H2X18919   0.714   0.377  16.200 -0.2695 -0.6847 -0.0510
  168SOPE   H2Y18920   0.612   0.512  16.139  0.4886  0.5217  0.8341
  168SOPE   C2318921   0.690   0.473  16.912 -0.3765 -0.3014  0.4681
  168SOPE   H3R18922   0.600   0.538  16.914  0.3707  0.7327  2.1229
  168SOPE   H3S18923   0.754   0.536  16.976  2.0940 -2.4592  0.3066
  168SOPE   C2418924   0.663   0.347  16.986 -0.1969 -0.7317 -0.4628
  168SOPE   H4R18925   0.755   0.285  16.990  0.1061 -0.2751 -0.3812
  168SOPE   H4S18926   0.622   0.381  17.084  0.8822  2.0643 -0.8999
  168SOPE   C2518927   0.558   0.259  16.918  0.3958 -1.3112 -0.2716
  168SOPE   H5R18928   0.591   0.237  16.814  1.6139 -0.3345 -0.1182
  168SOPE   H5S18929   0.555   0.168  16.981  0.3392 -1.8347 -1.0266
  168SOPE   C2618930   0.416   0.314  16.918 -0.0807 -0.1531 -0.3700
  168SOPE   H6R18931   0.408   0.415  16.872 -3.0918  0.5508  1.3978
  168SOPE   H6S18932   0.354   0.246  16.857  2.8866 -0.5041 -3.2691
  168SOPE   C2718933   0.354   0.313  17.058  0.3439 -0.4443  0.5923
  168SOPE   H7R18934   0.384   0.215  17.102 -0.1397 -0.8111  0.1125
  168SOPE   H7S18935   0.403   0.393  17.117  0.8605 -0.7060  0.5248
  168SOPE   C2818936   0.199   0.332  17.068  0.3457 -0.0920 -0.5798
  168SOPE   H8R18937   0.162   0.238  17.021  1.0016  1.3029 -4.1234
  168SOPE   H8S18938   0.159   0.335  17.172  1.2704  1.8127 -0.2432
  168SOPE   C2918939   0.163   0.458  16.985 -0.2425 -0.1866 -0.0130
  168SOPE   H9118940   0.253   0.519  16.971  0.1130 -0.5026  0.8470
  168SOPE  C21018941   0.047   0.469  16.918  0.2003 -0.2056 -0.2105
  168SOPE  H10118942   0.034   0.544  16.839  0.2871 -0.4625 -0.4695
  168SOPE  C21118943  -0.077   0.384  16.932  0.2349 -0.1719 -0.5207
  168SOPE  H11R18944  -0.072   0.335  17.031  2.4860  1.7665  0.4133
  168SOPE  H11S18945  -0.085   0.307  16.852 -1.7280  1.4939 -2.0471
  168SOPE  C21218946  -0.208   0.478  16.931  0.3440 -0.7046  0.0210
  168SOPE  H12R18947  -0.215   0.522  16.829 -0.0700  0.6883  0.6249
  168SOPE  H12S18948  -0.182   0.564  16.997 -0.6947  1.1444 -1.8731
  168SOPE  C21318949  -0.339   0.404  16.951 -0.0418  0.9885 -0.4602
  168SOPE  H13R18950  -0.332   0.307  17.004  0.9834  1.8013  0.9871
  168SOPE  H13S18951  -0.386   0.377  16.855 -1.4184  1.9560 -0.0796
  168SOPE  C21418952  -0.437   0.505  17.015  0.3383  0.9676 -0.0983
  168SOPE  H14R18953  -0.427   0.597  16.953  2.3286 -0.0446 -1.3650
  168SOPE  H14S18954  -0.407   0.519  17.120 -1.6933  2.0352  0.4016
  168SOPE  C21518955  -0.575   0.451  17.004 -0.0260 -0.2499  0.0555
  168SOPE  H15R18956  -0.576   0.353  17.057 -3.2176  0.2831  1.2070
  168SOPE  H15S18957  -0.594   0.435  16.896  1.6554 -0.1960 -0.2697
  168SOPE  C21618958  -0.668   0.564  17.069 -0.3704 -0.6159 -0.1320
  168SOPE  H16R18959  -0.647   0.656  17.011 -0.2810  0.4975  1.5912
  168SOPE  H16S18960  -0.636   0.588  17.172 -4.0949  0.3661  0.9352
  168SOPE  C21718961  -0.817   0.531  17.084 -0.0930 -0.1879 -0.0542
  168SOPE  H17R18962  -0.849   0.500  16.982 -1.2194  1.4871 -0.2382
  168SOPE  H17S18963  -0.877   0.622  17.103  1.1750  1.1047 -1.8765
  168SOPE  C21818964  -0.841   0.432  17.199 -0.2422  0.1749  0.0891
  168SOPE  H18R18965  -0.946   0.396  17.194 -0.2171  0.2815 -3.0109
  168SOPE  H18S18966  -0.823   0.480  17.297  1.0277  1.6351 -0.8115
  168SOPE  H18T18967  -0.785   0.341  17.169  1.2372  0.8659  0.6227
  168SOPE   C3318968   0.572   0.447  16.351  0.4357 -0.6138  0.5256
  168SOPE   H3X18969   0.629   0.457  16.446 -0.3651  0.1862  0.9420
  168SOPE   H3Y18970   0.517   0.352  16.337  0.0351 -0.1830 -0.9622
  168SOPE   C3418971   0.455   0.550  16.346 -1.1466  0.4145  0.1078
  168SOPE   H4X18972   0.417   0.553  16.242  0.7280 -0.4144 -0.6513
  168SOPE   H4Y18973   0.469   0.656  16.378 -1.3964  0.6939 -0.6812
  168SOPE   C3518974   0.339   0.494  16.420 -0.2706  0.4636 -0.2687
  168SOPE   H5X18975   0.356   0.482  16.529  1.1531 -3.5781 -0.7737
  168SOPE   H5Y18976   0.336   0.386  16.393  1.2821  0.5689 -1.0129
  168SOPE   C3618977   0.208   0.564  16.375 -0.3655 -0.1764 -0.1510
  168SOPE   H6X18978   0.195   0.548  16.266 -1.7119 -2.0981  0.2343
  168SOPE   H6Y18979   0.229   0.670  16.401  0.8475 -0.1300 -1.1947
  168SOPE   C3718980   0.092   0.510  16.456 -0.0358  0.0438 -0.5415
  168SOPE   H7X18981   0.098   0.522  16.566  1.0698 -2.4549 -0.2486
  168SOPE   H7Y18982   0.080   0.401  16.437  0.8556  0.2538 -2.5191
  168SOPE   C3818983  -0.041   0.573  16.403  0.0928 -0.2622  0.6894
  168SOPE   H8X18984  -0.044   0.550  16.294  2.7620 -0.1613  0.5369
  168SOPE   H8Y18985  -0.028   0.684  16.411 -2.2904  0.0169  1.4621
  168SOPE   C3918986  -0.165   0.532  16.489 -0.2280 -0.5377 -0.6555
  168SOPE   H9X18987  -0.144   0.565  16.593 -0.4361 -2.2050 -0.0677
  168SOPE   H9Y18988  -0.174   0.422  16.497  0.4105 -0.6501 -1.3661
  168SOPE  C31018989  -0.295   0.598  16.448  0.0395 -0.0579 -0.5689
  168SOPE  H10X18990  -0.330   0.568  16.347  1.4882  0.4556 -1.2615
  168SOPE  H10Y18991  -0.289   0.709  16.450  1.4834 -0.1340  1.0341
  168SOPE  C31118992  -0.410   0.549  16.532  0.0488 -0.1544  0.3167
  168SOPE  H11X18993  -0.406   0.557  16.642 -0.7281 -0.0171  0.3479
  168SOPE  H11Y18994  -0.430   0.442  16.511  0.7523 -0.0836 -0.8158
  168SOPE  C31218995  -0.544   0.620  16.495 -0.5758  0.3631  0.3306
  168SOPE  H12X18996  -0.578   0.571  16.401  0.6359  0.1936 -0.0274
  168SOPE  H12Y18997  -0.527   0.724  16.461 -0.5015 -0.1454 -1.2385
  168SOPE  C31318998  -0.653   0.604  16.597  0.6443 -0.3319 -0.4749
  168SOPE  H13X18999  -0.627   0.667  16.685  0.0172 -2.1326  1.0798
  168SOPE  H13Y19000  -0.658   0.504  16.645 -1.2020 -0.3703 -0.6557
  168SOPE  C31419001  -0.797   0.632  16.546  0.2868 -0.3300  0.5876
  168SOPE  H14X19002  -0.809   0.585  16.446 -0.2297  1.8675 -0.4408
  168SOPE  H14Y19003  -0.812   0.740  16.526  1.3750 -0.1862  0.4601
  168SOPE  C31519004  -0.920   0.580  16.628  0.5112 -0.5199  0.3669
  168SOPE  H15X19005  -0.884   0.522  16.716  2.0335 -0.0685  0.0775
  168SOPE  H15Y19006  -0.977   0.506  16.568 -0.0659  1.1646 -1.2564
  168SOPE  C31619007  -1.008   0.702  16.679  1.1794 -0.1226 -0.1919
  168SOPE  H16X19008  -1.058   0.754  16.595 -1.3851 -0.9930  0.6950
  168SOPE  H16Y19009  -0.935   0.770  16.730  1.5324 -0.0477 -0.7794
  168SOPE  C31719010  -1.118   0.660  16.779 -1.1998 -0.4577 -0.3225
  168SOPE  H17X19011  -1.145   0.748  16.841 -1.5407 -1.0333  0.3610
  168SOPE  H17Y19012  -1.079   0.589  16.855  1.5207  0.3377 -0.8487
  168SOPE  C31819013  -1.234   0.596  16.714  0.2329 -0.0886 -0.4323
  168SOPE  H18X19014  -1.194   0.529  16.635  1.5356 -1.4244  1.2692
  168SOPE  H18Y19015  -1.304   0.670  16.669 -0.3394 -0.0256  0.5107
  168SOPE  H18Z19016  -1.290   0.527  16.782 -0.5060 -0.6355 -1.5585
  169SOPE     N19017   2.029   3.086  17.950  1.2336 -0.2202  0.5929
  169SOPE   HN119018   1.927   3.099  17.961  1.1497 -1.6768  1.7952
  169SOPE   HN219019   2.059   3.148  17.871  0.8152 -0.5373  0.1766
  169SOPE   HN319020   2.049   2.992  17.910 -0.7640 -0.1613 -0.6713
  169SOPE   C1219021   2.102   3.117  18.083  0.3827 -0.3211  0.0034
  169SOPE  H12A19022   2.114   3.227  18.098  0.9452 -0.4896  0.8226
  169SOPE  H12B19023   2.206   3.084  18.062 -0.0605 -1.4813 -0.4261
  169SOPE   C1119024   2.021   3.044  18.193 -0.0494  0.2935 -0.1573
  169SOPE  H11A19025   1.912   3.064  18.187  0.0936  1.7157  1.3175
  169SOPE  H11B19026   2.059   3.074  18.293 -1.9457  0.5889  0.5229
  169SOPE     P19027   1.971   2.790  18.275  0.1305 -0.0975 -0.2871
  169SOPE   O1319028   2.014   2.656  18.236 -0.2256  0.1458  0.1390
  169SOPE   O1419029   1.830   2.813  18.274  0.4136 -0.4676  0.3089
  169SOPE   O1219030   2.040   2.903  18.180 -0.1449  0.0358  0.2412
  169SOPE   O1119031   2.014   2.837  18.422  0.3679  0.4658  0.3857
  169SOPE    C119032   2.106   2.767  18.503  0.6364  1.0532  0.0434
  169SOPE    HA19033   2.141   2.670  18.463  1.0318  1.0858  0.2992
  169SOPE    HB19034   2.053   2.747  18.599  0.3659  2.6135  0.2472
  169SOPE    C219035   2.231   2.848  18.532 -0.4481 -0.1259  0.0768
  169SOPE    HS19036   2.204   2.955  18.544 -0.2445 -0.1608  0.9341
  169SOPE   O2119037   2.320   2.830  18.416  0.2712  0.4669  0.5613
  169SOPE   C2119038   2.381   2.942  18.387  0.5470 -0.2369  0.1898
  169SOPE   O2219039   2.365   3.055  18.435  0.0486 -0.2957 -0.1442
  169SOPE   C2219040   2.468   2.903  18.264 -0.2227 -0.0283 -0.7697
  169SOPE   H2R19041   2.402   2.889  18.176  0.1242  1.8736 -1.3834
  169SOPE   H2S19042   2.523   2.808  18.282  0.0072  0.0379 -1.1064
  169SOPE    C319043   2.309   2.797  18.649 -0.0612 -0.2015  0.0322
  169SOPE    HX19044   2.332   2.691  18.625 -1.5963 -0.6045  0.2445
  169SOPE    HY19045   2.241   2.805  18.737  2.7197 -2.0881  2.5649
  169SOPE   O3119046   2.411   2.893  18.690 -0.6002 -0.0041 -0.0126
  169SOPE   C3119047   2.528   2.838  18.723  0.1186  0.3646 -0.0597
  169SOPE   O3219048   2.544   2.715  18.714  0.1259 -0.3764  0.1715
  169SOPE   C3219049   2.628   2.941  18.776 -0.3857 -0.0199 -0.1126
  169SOPE   H2X19050   2.585   2.972  18.873  3.1526  0.9676  1.2960
  169SOPE   H2Y19051   2.634   3.026  18.704  0.4060  0.5603  0.6210
  169SOPE   C2319052   2.568   3.019  18.226 -0.8001 -0.1605 -0.4611
  169SOPE   H3R19053   2.517   3.116  18.208 -0.1607  0.1406 -0.6840
  169SOPE   H3S19054   2.631   3.000  18.137 -2.0443  1.1738 -1.6680
  169SOPE   C2419055   2.678   3.043  18.337  0.1783  0.0221  0.0174
  169SOPE   H4R19056   2.737   3.133  18.310 -0.1942  0.3323  0.2494
  169SOPE   H4S19057   2.622   3.063  18.430 -0.3495 -1.0077 -0.0663
  169SOPE   C2519058   2.764   2.912  18.352 -0.7672 -0.4001  0.0220
  169SOPE   H5R19059   2.691   2.838  18.389 -2.6842  0.5262 -1.6812
  169SOPE   H5S19060   2.800   2.877  18.253 -0.2938 -1.7189  0.6477
  169SOPE   C2619061   2.888   2.929  18.453  0.2563 -0.5520 -0.4108
  169SOPE   H6R19062   2.869   3.005  18.532  2.2749  0.7595 -1.1126
  169SOPE   H6S19063   2.901   2.823  18.484 -0.4114  0.1022  2.3700
  169SOPE   C2719064   3.020   2.991  18.390 -0.0322 -0.0161 -0.0626
  169SOPE   H7R19065   3.059   2.933  18.304  0.2958  0.2097 -0.0710
  169SOPE   H7S19066   2.980   3.087  18.350 -1.2891 -0.6871 -0.4630
  169SOPE   C2819067   3.126   3.021  18.490  0.2918  0.4943 -0.3732
  169SOPE   H8R19068   3.076   3.085  18.566 -0.7190 -0.8660  0.1504
  169SOPE   H8S19069   3.142   2.920  18.535 -1.2094 -0.2053 -1.3363
  169SOPE   C2919070   3.258   3.085  18.442  0.4942  0.2739  0.1235
  169SOPE   H9119071   3.237   3.183  18.398 -0.8144 -0.7825 -1.7477
  169SOPE  C21019072   3.381   3.027  18.431 -0.0119 -0.0859  0.4001
  169SOPE  H10119073   3.472   3.081  18.401 -0.7159  0.9392  0.0279
  169SOPE  C21119074   3.412   2.880  18.469  0.2280  0.5317 -0.5888
  169SOPE  H11R19075   3.373   2.809  18.394 -0.2211 -0.1680  0.2861
  169SOPE  H11S19076   3.348   2.852  18.556 -1.2319  1.9584 -1.1354
  169SOPE  C21219077   3.563   2.865  18.506  0.2670 -0.5041 -0.1647
  169SOPE  H12R19078   3.624   2.918  18.430  0.1078  1.0482  0.7537
  169SOPE  H12S19079   3.579   2.756  18.521  1.5132 -0.0556  2.2352
  169SOPE  C21319080   3.607   2.908  18.656 -0.9810 -0.1412  0.0378
  169SOPE  H13R19081   3.574   2.830  18.729  1.6441 -1.0278  0.3742
  169SOPE  H13S19082   3.574   3.012  18.675 -0.0006  1.2251 -4.5799
  169SOPE  C21419083   3.766   2.909  18.652  0.2631  0.0145 -0.6307
  169SOPE  H14R19084   3.806   2.810  18.621 -1.5795 -0.9986  0.1051
  169SOPE  H14S19085   3.809   2.921  18.754 -1.0143 -0.7396  0.0116
  169SOPE  C21519086   3.812   3.024  18.561  0.0460  0.5151  0.0773
  169SOPE  H15R19087   3.728   3.094  18.547 -0.6221 -0.2048  0.4198
  169SOPE  H15S19088   3.830   2.988  18.457 -1.9307 -1.5560  0.3946
  169SOPE  C21619089   3.936   3.096  18.612 -0.1909  0.0415 -0.1322
  169SOPE  H16R19090   4.030   3.041  18.587  0.5003 -0.2419  2.7299
  169SOPE  H16S19091   3.930   3.097  18.723  2.8697  0.8337  0.1261
  169SOPE  C21719092   3.943   3.236  18.559 -0.2651  0.0365  0.8738
  169SOPE  H17R19093   3.847   3.280  18.594  0.5084  1.0665  1.7742
  169SOPE  H17S19094   3.935   3.228  18.449 -0.0465 -2.3223  0.9768
  169SOPE  C21819095   4.065   3.315  18.613  0.1187  0.0744 -0.7228
  169SOPE  H18R19096   4.089   3.395  18.540  1.7465  2.1817  1.9441
  169SOPE  H18S19097   4.152   3.249  18.632  0.8923  0.9802 -1.0607
  169SOPE  H18T19098   4.027   3.359  18.708  1.0558 -1.4971  0.4212
  169SOPE   C3319099   2.764   2.887  18.812 -0.2798 -0.2558  0.4230
  169SOPE   H3X19100   2.820   2.857  18.721 -0.6202 -0.8877  0.4175
  169SOPE   H3Y19101   2.759   2.801  18.881  1.4724 -0.4229  0.3903
  169SOPE   C3419102   2.854   2.995  18.877  0.1496 -0.6285 -0.5422
  169SOPE   H4X19103   2.811   3.034  18.972  3.0392  2.8568 -0.4570
  169SOPE   H4Y19104   2.857   3.082  18.809 -0.5352 -0.1245  0.0504
  169SOPE   C3519105   2.988   2.942  18.939  0.2258  0.4831 -0.5839
  169SOPE   H5X19106   2.956   2.852  18.997  1.9444  0.1124 -0.1558
  169SOPE   H5Y19107   3.018   3.027  19.003 -0.8636 -1.0631  2.1922
  169SOPE   C3619108   3.089   2.900  18.835  0.1349 -0.6408  0.1841
  169SOPE   H6X19109   3.119   2.982  18.765 -1.3571 -0.1056  0.1288
  169SOPE   H6Y19110   3.067   2.816  18.765  1.9006 -0.0104 -1.2256
  169SOPE   C3719111   3.230   2.875  18.896  0.2220 -0.4557 -0.4861
  169SOPE   H7X19112   3.300   2.827  18.824  1.3841  0.9886 -0.3880
  169SOPE   H7Y19113   3.218   2.807  18.982 -1.4272 -0.5904 -0.7860
  169SOPE   C3819114   3.320   2.997  18.921  0.4298 -0.4998  0.5132
  169SOPE   H8X19115   3.346   3.057  18.831 -0.0565  0.4176  0.9638
  169SOPE   H8Y19116   3.275   3.064  18.998  1.0525  0.0752  0.3943
  169SOPE   C3919117   3.455   2.963  18.980 -0.3751  0.6084 -0.5136
  169SOPE   H9X19118   3.493   2.870  18.933  1.8798  1.1030  0.2088
  169SOPE   H9Y19119   3.431   2.921  19.080  0.5964 -0.4013 -0.6892
  169SOPE  C31019120   3.561   3.071  19.003  0.4779  0.2274  0.5430
  169SOPE  H10X19121   3.530   3.153  19.070 -1.3238 -1.7773  2.3363
  169SOPE  H10Y19122   3.590   3.114  18.905 -0.7226  2.2090  1.0109
  169SOPE  C31119123   3.689   3.018  19.070 -0.2355 -0.3653 -0.1869
  169SOPE  H11X19124   3.780   3.078  19.049 -0.0130 -0.3364  0.8309
  169SOPE  H11Y19125   3.713   2.922  19.020  1.6957  1.6510 -3.5079
  169SOPE  C31219126   3.688   2.998  19.223 -0.0325 -0.3747  0.2099
  169SOPE  H12X19127   3.594   2.949  19.255  0.6824 -0.9405  1.5505
  169SOPE  H12Y19128   3.696   3.097  19.273  1.1238 -0.0561 -0.5431
  169SOPE  C31319129   3.807   2.911  19.274  0.7700 -0.2953  0.4299
  169SOPE  H13X19130   3.907   2.943  19.237  0.3559  0.9128  0.2978
  169SOPE  H13Y19131   3.794   2.814  19.220  0.1326  0.1326 -0.2142
  169SOPE  C31419132   3.816   2.899  19.426 -0.3649 -0.1641  0.8434
  169SOPE  H14X19133   3.818   2.790  19.449 -1.8590 -0.7164 -1.3092
  169SOPE  H14Y19134   3.721   2.936  19.470  0.1126  0.1455  1.6246
  169SOPE  C31519135   3.948   2.973  19.476  0.1391  0.7235  0.8410
  169SOPE  H15X19136   3.947   3.078  19.440 -1.7132  1.1124  1.9322
  169SOPE  H15Y19137   4.031   2.917  19.427 -0.4934  0.6126 -0.1412
  169SOPE  C31619138   3.963   2.967  19.632 -0.2106  0.1601 -0.4112
  169SOPE  H16X19139   4.018   2.874  19.657  2.6122  1.4108 -1.5589
  169SOPE  H16Y19140   3.861   2.976  19.675 -0.1632  0.2208 -0.3123
  169SOPE  C31719141   4.036   3.094  19.680 -0.1546  0.7303  0.1666
  169SOPE  H17X19142   3.995   3.184  19.630 -0.2906  1.3175  1.2989
  169SOPE  H17Y19143   4.142   3.082  19.650 -0.5538 -0.8976 -0.7355
  169SOPE  C31819144   4.017   3.123  19.832 -0.3753  0.2964  0.1862
  169SOPE  H18X19145   3.908   3.137  19.851 -0.4517  0.0882 -0.0925
  169SOPE  H18Y19146   4.085   3.209  19.849  0.6514 -0.9667  3.0356
  169SOPE  H18Z19147   4.051   3.035  19.891 -0.4019  1.2360  1.6279
  170SOPE     N19148   1.980   0.134  17.059 -0.2924  0.5126  0.0129
  170SOPE   HN119149   1.898   0.140  17.123  0.2376  1.5301  0.6308
  170SOPE   HN219150   2.018   0.038  17.068  1.1957  0.9317 -1.3951
  170SOPE   HN319151   2.052   0.194  17.105 -0.7202  0.4768  0.7459
  170SOPE   C1219152   1.952   0.169  16.916  0.7110  0.9759  0.0827
  170SOPE  H12A19153   2.031   0.241  16.885  1.5608  0.0518  0.0463
  170SOPE  H12B19154   1.855   0.223  16.913  0.5454  0.6689  0.0006
  170SOPE   C1119155   1.938   0.038  16.828 -0.4276 -0.4207  0.6737
  170SOPE  H11A19156   2.043   0.004  16.815  0.4860  2.0774  1.0575
  170SOPE  H11B19157   1.900   0.082  16.734 -2.0047  1.4288  2.0938
  170SOPE     P19158   1.834  -0.201  16.844 -0.2761  0.0129  0.2741
  170SOPE   O1319159   1.792  -0.218  16.704  0.5190 -0.6747  0.7926
  170SOPE   O1419160   1.747  -0.261  16.951 -0.7795 -0.3280 -0.1984
  170SOPE   O1219161   1.847  -0.052  16.886 -0.0644  0.1520  0.7842
  170SOPE   O1119162   1.985  -0.253  16.852  0.3965  0.3218 -0.2764
  170SOPE    C119163   2.010  -0.385  16.813 -0.2760 -0.5327 -0.4649
  170SOPE    HA19164   1.931  -0.435  16.752 -0.9363 -1.1565  0.8635
  170SOPE    HB19165   2.035  -0.447  16.901 -1.5293 -0.3760  0.0163
  170SOPE    C219166   2.140  -0.375  16.724 -0.0474  1.0829 -0.2807
  170SOPE    HS19167   2.159  -0.478  16.687  1.4364  1.3637 -0.3486
  170SOPE   O2119168   2.253  -0.325  16.789 -0.3391  0.1063 -0.0520
  170SOPE   C2119169   2.304  -0.405  16.879 -0.1067  0.7649  0.3578
  170SOPE   O2219170   2.276  -0.524  16.891  0.3573  0.7174 -0.4274
  170SOPE   C2219171   2.420  -0.333  16.952  0.9220  0.1905  0.0984
  170SOPE   H2R19172   2.368  -0.259  17.017 -0.6805 -0.3935 -0.4744
  170SOPE   H2S19173   2.472  -0.288  16.865 -3.0432  4.0840 -0.5679
  170SOPE    C319174   2.120  -0.287  16.604  0.4866  0.0322  0.3723
  170SOPE    HX19175   2.095  -0.184  16.635 -2.0089 -0.6641  0.8959
  170SOPE    HY19176   2.028  -0.321  16.551 -0.2003 -1.1824  2.2301
  170SOPE   O3119177   2.226  -0.271  16.519 -0.1207  0.0912 -0.4435
  170SOPE   C3119178   2.255  -0.374  16.446 -0.4188 -0.1884  0.5379
  170SOPE   O3219179   2.192  -0.478  16.433 -0.3411 -0.1864  0.0100
  170SOPE   C3219180   2.382  -0.345  16.371  0.2532 -0.3177  0.4367
  170SOPE   H2X19181   2.445  -0.289  16.444  0.2676  0.0802  0.1257
  170SOPE   H2Y19182   2.348  -0.285  16.284 -1.3273 -0.7758  0.7113
  170SOPE   C2319183   2.502  -0.431  17.030 -0.4302 -0.1629 -0.2202
  170SOPE   H3R19184   2.539  -0.516  16.969 -1.4797 -2.5508  2.2505
  170SOPE   H3S19185   2.431  -0.471  17.105  1.1274 -0.6941  1.0511
  170SOPE   C2419186   2.615  -0.364  17.103  0.0622  0.0806  0.0295
  170SOPE   H4R19187   2.654  -0.297  17.023 -1.6744 -0.1157 -1.0364
  170SOPE   H4S19188   2.580  -0.312  17.194 -0.0658  0.2776 -0.1323
  170SOPE   C2519189   2.733  -0.456  17.141 -0.4425 -0.1625  0.9352
  170SOPE   H5R19190   2.706  -0.499  17.240  0.8892  1.5178  2.1006
  170SOPE   H5S19191   2.742  -0.532  17.061 -0.1516 -0.1324  0.9354
  170SOPE   C2619192   2.866  -0.371  17.158 -0.1950  0.9822  0.0180
  170SOPE   H6R19193   2.899  -0.357  17.053 -0.1315 -2.5056 -0.5613
  170SOPE   H6S19194   2.854  -0.283  17.224 -1.1285 -0.1370  1.4072
  170SOPE   C2719195   2.963  -0.464  17.217  0.0240  0.5597 -1.2472
  170SOPE   H7R19196   2.925  -0.534  17.295  0.3504 -0.9091 -2.3597
  170SOPE   H7S19197   2.998  -0.527  17.133  0.8987  1.8690 -1.8726
  170SOPE   C2819198   3.091  -0.391  17.277 -0.2667  0.1083 -0.6588
  170SOPE   H8R19199   3.176  -0.463  17.274 -0.0634  0.3854 -2.8273
  170SOPE   H8S19200   3.121  -0.313  17.205  0.5036  0.4144 -0.0232
  170SOPE   C2919201   3.069  -0.329  17.417 -0.5957 -0.7328  0.4632
  170SOPE   H9119202   2.970  -0.292  17.446 -0.0199  1.4085 -0.0591
  170SOPE  C21019203   3.173  -0.293  17.495  0.6206 -0.2053 -0.4628
  170SOPE  H10119204   3.134  -0.255  17.591 -1.2618 -1.8303 -0.5310
  170SOPE  C21119205   3.320  -0.310  17.489 -0.3685  0.1211  0.0649
  170SOPE  H11R19206   3.358  -0.207  17.506 -0.8316  0.2515  0.3118
  170SOPE  H11S19207   3.365  -0.335  17.390  1.9298 -0.8177  1.2784
  170SOPE  C21219208   3.378  -0.398  17.605 -0.7082 -0.2539 -0.8940
  170SOPE  H12R19209   3.353  -0.506  17.591 -1.7711 -0.4458  1.8911
  170SOPE  H12S19210   3.331  -0.380  17.704  0.3784 -0.4297 -0.3311
  170SOPE  C21319211   3.525  -0.396  17.624 -0.2421  0.2580 -0.0700
  170SOPE  H13R19212   3.566  -0.293  17.624  1.7603 -0.4667 -1.5695
  170SOPE  H13S19213   3.575  -0.428  17.529 -0.5397 -0.2218 -0.0675
  170SOPE  C21419214   3.584  -0.471  17.745 -0.2866  0.3950  0.4673
  170SOPE  H14R19215   3.575  -0.581  17.729  1.0952  0.0168  2.0007
  170SOPE  H14S19216   3.524  -0.443  17.834  1.5810  2.7075  1.0899
  170SOPE  C21519217   3.734  -0.438  17.770  0.1571 -0.3498  0.3287
  170SOPE  H15R19218   3.758  -0.330  17.762 -1.7103  0.0686 -0.1192
  170SOPE  H15S19219   3.795  -0.496  17.697  1.9906  0.2336  1.3389
  170SOPE  C21619220   3.780  -0.480  17.909  0.2060 -0.3430 -0.3198
  170SOPE  H16R19221   3.756  -0.584  17.940  1.5828 -0.3955  0.6801
  170SOPE  H16S19222   3.725  -0.419  17.983 -1.5919 -1.8614 -0.3258
  170SOPE  C21719223   3.932  -0.473  17.925  0.3605 -0.1739  0.3269
  170SOPE  H17R19224   3.968  -0.557  17.860 -1.0011 -0.6627  0.1726
  170SOPE  H17S19225   3.963  -0.497  18.029 -1.1859 -1.1924  0.5819
  170SOPE  C21819226   3.998  -0.336  17.894  0.2280 -0.2569  0.4390
  170SOPE  H18R19227   3.995  -0.311  17.786 -0.9545 -0.0813  0.4984
  170SOPE  H18S19228   4.104  -0.341  17.928 -0.0365 -0.1296  1.3117
  170SOPE  H18T19229   3.949  -0.257  17.955 -3.2588  0.4276 -2.8790
  170SOPE   C3319230   2.449  -0.476  16.317  0.1409 -0.2140 -0.0905
  170SOPE   H3X19231   2.516  -0.456  16.231 -0.1294 -4.1296 -1.3904
  170SOPE   H3Y19232   2.360  -0.531  16.281  0.2448 -1.7941  1.8792
  170SOPE   C3419233   2.527  -0.549  16.426  0.7200 -1.0890  0.6036
  170SOPE   H4X19234   2.557  -0.652  16.396  1.2529 -0.9009  0.5006
  170SOPE   H4Y19235   2.450  -0.573  16.503  1.2100 -3.0098  0.5565
  170SOPE   C3519236   2.640  -0.468  16.486  0.2763 -0.5272  0.0058
  170SOPE   H5X19237   2.607  -0.374  16.536 -2.4940 -1.2290 -0.3728
  170SOPE   H5Y19238   2.708  -0.440  16.402 -1.5263 -1.1889 -1.7469
  170SOPE   C3619239   2.709  -0.547  16.597 -0.7579 -0.7480 -0.1404
  170SOPE   H6X19240   2.752  -0.642  16.558 -0.5325 -0.0603 -1.6153
  170SOPE   H6Y19241   2.644  -0.578  16.681 -1.3909 -1.4989 -0.8846
  170SOPE   C3719242   2.830  -0.464  16.657  0.4571  0.0874  0.0516
  170SOPE   H7X19243   2.894  -0.424  16.576 -0.9739  2.3859 -0.0269
  170SOPE   H7Y19244   2.889  -0.533  16.722 -1.2063 -0.3211  1.2140
  170SOPE   C3819245   2.784  -0.348  16.744  0.2485 -0.5823 -0.2545
  170SOPE   H8X19246   2.794  -0.384  16.849 -0.1879 -1.2212 -0.4246
  170SOPE   H8Y19247   2.678  -0.322  16.729  0.4391 -0.7758 -2.3218
  170SOPE   C3919248   2.871  -0.222  16.722 -0.0388 -0.3041 -0.5860
  170SOPE   H9X19249   2.840  -0.180  16.624 -4.1884  0.1924  0.7557
  170SOPE   H9Y19250   2.980  -0.244  16.714 -0.3261 -1.4148 -1.8727
  170SOPE  C31019251   2.841  -0.119  16.835 -0.2274  0.2504  0.5620
  170SOPE  H10X19252   2.908  -0.146  16.919  1.1846  0.0522 -0.5721
  170SOPE  H10Y19253   2.734  -0.109  16.860 -0.4303  0.1635 -0.2380
  170SOPE  C31119254   2.891   0.026  16.814 -0.0258 -0.9102  0.0742
  170SOPE  H11X19255   2.818   0.071  16.743  0.9093  1.7163  0.6557
  170SOPE  H11Y19256   2.989   0.028  16.763 -0.7117  0.4527 -1.2770
  170SOPE  C31219257   2.894   0.115  16.938 -0.0962 -0.0358 -0.9702
  170SOPE  H12X19258   3.001   0.125  16.968 -0.7872  3.3135  1.0106
  170SOPE  H12Y19259   2.861   0.055  17.026 -1.1441  0.3263 -1.1075
  170SOPE  C31319260   2.836   0.254  16.923 -0.3796 -0.6946 -0.4232
  170SOPE  H13X19261   2.730   0.255  16.956 -0.5776  0.9652 -1.0618
  170SOPE  H13Y19262   2.856   0.295  16.822  1.8484 -0.0256  0.2345
  170SOPE  C31419263   2.909   0.355  17.009 -0.3412 -0.1205 -0.6136
  170SOPE  H14X19264   3.016   0.339  16.986 -0.7806 -2.0450 -1.4864
  170SOPE  H14Y19265   2.902   0.338  17.118  4.3819  0.2134 -0.0700
  170SOPE  C31519266   2.873   0.503  16.979  0.0816  0.0636 -0.2906
  170SOPE  H15X19267   2.771   0.520  17.020  0.8346  0.0262  1.7441
  170SOPE  H15Y19268   2.857   0.522  16.871 -1.3126  2.3353  0.2249
  170SOPE  C31619269   2.966   0.616  17.037  0.1894  0.4777  0.1419
  170SOPE  H16X19270   2.923   0.715  17.012  0.1663  0.7690  1.2803
  170SOPE  H16Y19271   3.063   0.623  16.983  0.1987 -0.2055  0.0676
  170SOPE  C31719272   2.996   0.610  17.193 -0.9634 -0.3252  0.4548
  170SOPE  H17X19273   3.060   0.521  17.211  0.5317  0.9548  1.8156
  170SOPE  H17Y19274   2.902   0.602  17.252 -1.4455  3.6756  0.5124
  170SOPE  C31819275   3.084   0.732  17.235 -0.3752  0.8127  0.4930
  170SOPE  H18X19276   3.041   0.830  17.203  0.5117  0.7144 -1.0717
  170SOPE  H18Y19277   3.184   0.732  17.188 -0.9847  0.9130 -0.8588
  170SOPE  H18Z19278   3.086   0.730  17.346 -1.9289 -0.0678  0.5436
  171SOPE     N19279   1.908   0.599  17.856  0.2177 -0.2645  0.3385
  171SOPE   HN119280   1.981   0.597  17.930  0.2203 -0.1257  0.3396
  171SOPE   HN219281   1.826   0.635  17.908 -0.4281  0.1578 -0.9310
  171SOPE   HN319282   1.898   0.497  17.838 -1.5571 -0.1084  0.2742
  171SOPE   C1219283   1.957   0.663  17.725  0.2023 -0.6825 -0.3238
  171SOPE  H12A19284   2.012   0.751  17.764 -1.5934  0.5298 -0.4053
  171SOPE  H12B19285   1.863   0.692  17.672 -0.3402 -1.7540  0.0144
  171SOPE   C1119286   2.054   0.564  17.659 -0.5656  0.8426 -0.2105
  171SOPE  H11A19287   2.130   0.538  17.736 -0.4947  1.6113 -0.0119
  171SOPE  H11B19288   2.102   0.617  17.575 -1.3245  1.0047 -0.5543
  171SOPE     P19289   1.932   0.421  17.472  0.3058  0.1531  0.4495
  171SOPE   O1319290   1.910   0.540  17.390 -0.0958 -0.1529 -0.1687
  171SOPE   O1419291   1.814   0.329  17.487 -0.3177  0.1087  0.0835
  171SOPE   O1219292   1.976   0.457  17.620  0.0239  0.2458 -0.6253
  171SOPE   O1119293   2.050   0.332  17.415 -0.6192  0.3138 -0.3900
  171SOPE    C119294   2.132   0.250  17.488 -0.1747  0.6192  0.8362
  171SOPE    HA19295   2.161   0.164  17.425 -1.1093  0.3671  0.7404
  171SOPE    HB19296   2.089   0.212  17.583 -0.7642 -0.8551 -0.0023
  171SOPE    C219297   2.268   0.322  17.518  0.0656  0.0295  0.1293
  171SOPE    HS19298   2.255   0.394  17.601  1.3048  1.1548 -0.6327
  171SOPE   O2119299   2.312   0.387  17.399  0.1380  0.4766  0.0589
  171SOPE   C2119300   2.357   0.509  17.418 -1.0740  0.5358 -0.0546
  171SOPE   O2219301   2.334   0.570  17.522 -0.0110  0.1986  0.7160
  171SOPE   C2219302   2.418   0.570  17.293 -0.1001  0.2054 -0.1658
  171SOPE   H2R19303   2.413   0.681  17.302  0.6385  0.2939 -0.7472
  171SOPE   H2S19304   2.350   0.551  17.208 -0.9221  1.6695  0.1216
  171SOPE    C319305   2.382   0.234  17.577  0.0093  0.8980 -1.2988
  171SOPE    HX19306   2.411   0.163  17.497 -0.2063 -0.1039 -0.5091
  171SOPE    HY19307   2.344   0.164  17.654 -0.2701 -0.3468 -2.5189
  171SOPE   O3119308   2.506   0.314  17.614 -0.3821  0.0148 -0.3094
  171SOPE   C3119309   2.573   0.260  17.713 -0.5422  0.0935 -0.5890
  171SOPE   O3219310   2.541   0.154  17.770  0.5697  0.4614  0.4047
  171SOPE   C3219311   2.689   0.351  17.764  0.0091 -0.4571 -0.0397
  171SOPE   H2X19312   2.637   0.448  17.778 -0.3599 -0.5886 -0.4661
  171SOPE   H2Y19313   2.763   0.359  17.681  0.7937 -1.1668  0.5758
  171SOPE   C2319314   2.565   0.529  17.253 -0.0101 -0.4229 -0.2588
  171SOPE   H3R19315   2.609   0.583  17.166  0.4248 -1.9355 -1.0186
  171SOPE   H3S19316   2.557   0.423  17.221 -0.9493 -0.5252  0.2889
  171SOPE   C2419317   2.664   0.536  17.378 -0.0423  0.7139 -0.3884
  171SOPE   H4R19318   2.626   0.478  17.465 -0.9132  0.8719 -0.6587
  171SOPE   H4S19319   2.762   0.489  17.352  0.4522  0.3602  1.9041
  171SOPE   C2519320   2.690   0.678  17.426 -0.0005 -0.2259 -0.5823
  171SOPE   H5R19321   2.724   0.737  17.339  1.0810 -0.7280 -0.5183
  171SOPE   H5S19322   2.592   0.710  17.468  0.8136 -0.7545  1.8853
  171SOPE   C2619323   2.797   0.692  17.538 -0.5890 -0.2673  0.3416
  171SOPE   H6R19324   2.761   0.650  17.635 -0.2614  0.5423  0.8278
  171SOPE   H6S19325   2.890   0.632  17.528 -1.5322 -2.0972  1.7641
  171SOPE   C2719326   2.835   0.843  17.565 -0.2174 -0.8135 -0.4108
  171SOPE   H7R19327   2.889   0.885  17.477  1.0343 -1.5771 -0.0480
  171SOPE   H7S19328   2.749   0.908  17.588  0.4223  0.6705 -1.9791
  171SOPE   C2819329   2.932   0.847  17.689  0.4972  0.3420  1.2373
  171SOPE   H8R19330   2.903   0.935  17.750  0.9477  0.5338  1.1701
  171SOPE   H8S19331   2.911   0.752  17.743  0.3385 -1.8366 -2.3550
  171SOPE   C2919332   3.077   0.853  17.641 -0.1681  0.3785 -0.4376
  171SOPE   H9119333   3.106   0.927  17.565 -1.2578  1.1961 -0.0678
  171SOPE  C21019334   3.171   0.752  17.663 -0.7451 -0.2449 -0.3862
  171SOPE  H10119335   3.267   0.762  17.611 -0.2901  1.2656  0.6927
  171SOPE  C21119336   3.150   0.631  17.746 -0.2204  0.0988 -0.5128
  171SOPE  H11R19337   3.122   0.547  17.678 -0.4798 -0.5434  0.3585
  171SOPE  H11S19338   3.063   0.642  17.813  0.8646 -0.8807  1.1420
  171SOPE  C21219339   3.256   0.578  17.844  0.3971  0.3457  0.1167
  171SOPE  H12R19340   3.353   0.573  17.790 -0.0191  1.6261 -0.8052
  171SOPE  H12S19341   3.218   0.478  17.876 -1.0847  0.3764 -1.3672
  171SOPE  C21319342   3.272   0.666  17.967 -0.2920  0.4069 -0.3361
  171SOPE  H13R19343   3.175   0.717  17.984 -0.0252  0.8458 -0.1119
  171SOPE  H13S19344   3.332   0.757  17.945 -1.1221  1.5679  1.8853
  171SOPE  C21419345   3.326   0.591  18.095 -0.3507 -0.5349 -0.2023
  171SOPE  H14R19346   3.256   0.510  18.120 -1.1380  0.3643  0.5901
  171SOPE  H14S19347   3.329   0.658  18.184  0.3035 -1.1627  0.2567
  171SOPE  C21519348   3.467   0.545  18.056 -0.1076  0.2212 -0.6654
  171SOPE  H15R19349   3.511   0.635  18.007 -0.6209  0.0402 -1.4731
  171SOPE  H15S19350   3.461   0.457  17.988  0.3074 -1.7340  1.7009
  171SOPE  C21619351   3.551   0.501  18.178 -0.3509  0.1709  0.8328
  171SOPE  H16R19352   3.646   0.450  18.150 -0.4719 -0.2330  1.1511
  171SOPE  H16S19353   3.495   0.429  18.241 -0.1744 -2.5417 -1.8674
  171SOPE  C21719354   3.587   0.618  18.275  0.1912 -0.3143 -0.2328
  171SOPE  H17R19355   3.507   0.693  18.295  0.5587 -0.1701  0.7904
  171SOPE  H17S19356   3.670   0.677  18.231  1.7970 -0.7430  2.0492
  171SOPE  C21819357   3.649   0.565  18.404 -0.9900  0.4587  0.3667
  171SOPE  H18R19358   3.719   0.483  18.377 -1.4484 -0.2712  1.3493
  171SOPE  H18S19359   3.575   0.517  18.471  0.3397 -0.3771  1.2870
  171SOPE  H18T19360   3.716   0.638  18.455 -0.4524 -0.6998  1.3490
  171SOPE   C3319361   2.770   0.315  17.892  0.2417  0.0072  0.5698
  171SOPE   H3X19362   2.816   0.215  17.880  2.4184  0.9530  0.4400
  171SOPE   H3Y19363   2.686   0.304  17.963 -0.4520 -2.3882 -0.5323
  171SOPE   C3419364   2.868   0.422  17.949  0.2362 -0.1017 -0.5252
  171SOPE   H4X19365   2.822   0.518  17.980  0.9317 -0.4906  1.8971
  171SOPE   H4Y19366   2.944   0.443  17.871 -1.1281 -0.3020 -1.9735
  171SOPE   C3519367   2.946   0.367  18.074 -0.0085  0.1440 -0.0256
  171SOPE   H5X19368   2.868   0.322  18.139 -0.1694  0.2586 -0.1403
  171SOPE   H5Y19369   2.987   0.449  18.136  0.7665  0.0069 -0.3425
  171SOPE   C3619370   3.054   0.260  18.036  0.1038 -0.2122 -0.0947
  171SOPE   H6X19371   3.122   0.325  17.976 -2.3447  2.8595  0.1646
  171SOPE   H6Y19372   3.000   0.191  17.968  0.6414  1.6528 -2.5712
  171SOPE   C3719373   3.105   0.171  18.147  0.1521  0.2644 -0.1579
  171SOPE   H7X19374   3.194   0.117  18.107  0.7613 -1.1595  2.8775
  171SOPE   H7Y19375   3.038   0.085  18.166  0.2326  0.1294 -0.4693
  171SOPE   C3819376   3.145   0.250  18.278 -0.1409 -0.0177  0.0717
  171SOPE   H8X19377   3.042   0.255  18.321  0.2249  1.6560  0.8493
  171SOPE   H8Y19378   3.177   0.352  18.247  1.2732 -0.3429  0.4327
  171SOPE   C3919379   3.245   0.174  18.359  0.5281 -0.0354 -0.2433
  171SOPE   H9X19380   3.322   0.132  18.292  1.0076 -1.7189  1.2988
  171SOPE   H9Y19381   3.181   0.088  18.390 -0.1917  0.6063  0.0924
  171SOPE  C31019382   3.296   0.259  18.471  0.6688 -0.0332 -0.9289
  171SOPE  H10X19383   3.209   0.286  18.534  1.5623 -0.1299  0.3914
  171SOPE  H10Y19384   3.355   0.344  18.431  1.4516  0.6667  1.5004
  171SOPE  C31119385   3.382   0.169  18.556 -0.7164 -0.2748 -0.4277
  171SOPE  H11X19386   3.486   0.160  18.519  0.0566  2.4061  0.8670
  171SOPE  H11Y19387   3.330   0.074  18.579  1.0196 -0.6204  2.4554
  171SOPE  C31219388   3.414   0.223  18.695 -0.2867 -0.2101 -0.0261
  171SOPE  H12X19389   3.464   0.141  18.751  0.0889 -0.7593 -1.1339
  171SOPE  H12Y19390   3.317   0.233  18.748  0.3717  0.5471  1.0718
  171SOPE  C31319391   3.504   0.341  18.702 -0.6533 -0.5146 -0.5832
  171SOPE  H13X19392   3.447   0.426  18.660 -0.3223 -0.6506 -1.3142
  171SOPE  H13Y19393   3.597   0.319  18.646 -0.8434  0.7271 -1.4257
  171SOPE  C31419394   3.539   0.369  18.856  0.4248  0.4869 -0.0081
  171SOPE  H14X19395   3.563   0.474  18.883  2.9530 -0.7213  3.1403
  171SOPE  H14Y19396   3.641   0.330  18.873 -0.0529 -0.2268  1.3425
  171SOPE  C31519397   3.437   0.307  18.953  0.1617 -0.2122 -0.9296
  171SOPE  H15X19398   3.424   0.198  18.942  1.5892 -0.9050  2.8418
  171SOPE  H15Y19399   3.341   0.364  18.951  0.7493  0.7993 -2.4395
  171SOPE  C31619400   3.484   0.298  19.100 -0.0385 -0.2550 -0.6161
  171SOPE  H16X19401   3.418   0.230  19.157 -1.7637  0.6224 -1.4714
  171SOPE  H16Y19402   3.472   0.395  19.152  0.7785 -0.9186  0.8521
  171SOPE  C31719403   3.626   0.244  19.136 -0.5718  0.0443  0.6266
  171SOPE  H17X19404   3.636   0.272  19.243 -1.2127 -0.1871  0.7564
  171SOPE  H17Y19405   3.694   0.314  19.084  1.1585 -1.7907  0.2970
  171SOPE  C31819406   3.649   0.098  19.099  0.1904  0.2556  0.2087
  171SOPE  H18X19407   3.614   0.071  18.996  1.5091  2.6462 -0.9401
  171SOPE  H18Y19408   3.597   0.033  19.173 -0.2164  0.7615  0.3695
  171SOPE  H18Z19409   3.758   0.080  19.096 -0.1212 -1.8532 -0.7971
  172SOPE     N19410   1.748   3.309  16.264  0.4366 -0.2685  0.3106
  172SOPE   HN119411   1.774   3.406  16.238 -0.3197 -0.2233 -0.2936
  172SOPE   HN219412   1.652   3.297  16.226  0.4845 -2.1289  0.6354
  172SOPE   HN319413   1.750   3.299  16.368 -0.0392  0.0645  0.3568
  172SOPE   C1219414   1.836   3.213  16.187 -0.3330 -0.1055  0.0919
  172SOPE  H12A19415   1.932   3.267  16.171  0.0928 -1.0951 -0.7982
  172SOPE  H12B19416   1.791   3.199  16.086  1.1686 -1.5799 -0.4199
  172SOPE   C1119417   1.872   3.080  16.255 -0.5712 -0.6328  0.1750
  172SOPE  H11A19418   1.938   3.103  16.341  0.5238  1.0532 -1.0331
  172SOPE  H11B19419   1.937   3.031  16.179  0.7209  1.8730 -0.4607
  172SOPE     P19420   1.755   2.845  16.248  0.2149 -0.0770 -0.3605
  172SOPE   O1319421   1.677   2.831  16.124 -0.1338 -1.5188  0.3900
  172SOPE   O1419422   1.705   2.771  16.365  0.0648 -0.5496 -0.1269
  172SOPE   O1219423   1.764   3.003  16.288 -0.1205  0.0558  0.1098
  172SOPE   O1119424   1.906   2.805  16.213 -1.1651  0.3158 -0.1333
  172SOPE    C119425   1.988   2.790  16.336 -0.0423 -0.3176  0.0013
  172SOPE    HA19426   1.936   2.753  16.427 -0.6345 -1.0777 -0.6338
  172SOPE    HB19427   2.038   2.887  16.356  0.8282 -0.2894 -2.0312
  172SOPE    C219428   2.105   2.689  16.322 -0.4183  0.5782  0.0037
  172SOPE    HS19429   2.163   2.693  16.416  4.0944  0.8872 -2.5342
  172SOPE   O2119430   2.186   2.711  16.206 -0.4365 -0.5231 -0.6599
  172SOPE   C2119431   2.291   2.791  16.225 -0.0498 -0.0439 -0.2104
  172SOPE   O2219432   2.324   2.847  16.333  0.1396  0.1357 -0.8495
  172SOPE   C2219433   2.372   2.801  16.101 -0.3341  0.0310  0.2835
  172SOPE   H2R19434   2.323   2.888  16.052 -1.4685  0.1189  1.5237
  172SOPE   H2S19435   2.367   2.714  16.031 -0.4572 -0.3352  0.7393
  172SOPE    C319436   2.049   2.549  16.309 -0.0704  0.4145 -0.2629
  172SOPE    HX19437   1.983   2.539  16.220 -1.3120 -0.4379  0.7193
  172SOPE    HY19438   1.989   2.524  16.400  2.0342 -3.5828  0.2582
  172SOPE   O3119439   2.161   2.453  16.286  0.3429  0.1523  0.4429
  172SOPE   C3119440   2.212   2.412  16.408 -0.0955  0.0057 -0.1850
  172SOPE   O3219441   2.169   2.437  16.513 -0.3286 -0.7967 -0.3035
  172SOPE   C3219442   2.324   2.313  16.379 -0.3385 -1.1910  0.1633
  172SOPE   H2X19443   2.404   2.368  16.325 -1.0395 -0.2966  0.0178
  172SOPE   H2Y19444   2.282   2.233  16.314 -0.1795 -1.3395  0.2404
  172SOPE   C2319445   2.526   2.833  16.118  0.4169 -0.2058 -0.1347
  172SOPE   H3R19446   2.526   2.924  16.182  0.9324 -2.6674  3.6888
  172SOPE   H3S19447   2.570   2.841  16.016  1.0257 -0.5318  0.0969
  172SOPE   C2419448   2.591   2.715  16.193  0.0145  0.9037 -0.2315
  172SOPE   H4R19449   2.541   2.710  16.292  1.3165  1.0332  0.4492
  172SOPE   H4S19450   2.571   2.621  16.138  2.0516  2.1297 -3.3111
  172SOPE   C2519451   2.742   2.737  16.222  0.1726  0.5671  0.2676
  172SOPE   H5R19452   2.795   2.754  16.126 -0.2045 -2.6170 -0.6093
  172SOPE   H5S19453   2.757   2.823  16.291 -0.3552 -1.0140  2.4572
  172SOPE   C2619454   2.803   2.620  16.297  0.5459  0.2685 -0.1051
  172SOPE   H6R19455   2.747   2.597  16.390  0.1290  0.2038 -0.3671
  172SOPE   H6S19456   2.793   2.529  16.233 -0.1056 -0.6234  1.2263
  172SOPE   C2719457   2.953   2.645  16.324 -0.4021  0.1721  0.1235
  172SOPE   H7R19458   3.010   2.662  16.230  0.0479 -2.0597 -0.0494
  172SOPE   H7S19459   2.963   2.743  16.377 -2.6425  0.6861 -0.2895
  172SOPE   C2819460   3.032   2.536  16.393 -0.0708 -0.1784 -0.2619
  172SOPE   H8R19461   3.019   2.442  16.335 -0.7299  0.2187 -0.7720
  172SOPE   H8S19462   3.137   2.566  16.370 -0.6614  0.8459 -1.7343
  172SOPE   C2919463   3.010   2.531  16.541 -0.1365  0.0953  0.0892
  172SOPE   H9119464   2.909   2.498  16.567  0.0248 -1.3054 -0.9185
  172SOPE  C21019465   3.100   2.558  16.634 -0.1737  0.1743  0.1789
  172SOPE  H10119466   3.073   2.554  16.741  2.4729 -1.4466  0.9086
  172SOPE  C21119467   3.244   2.600  16.619  0.8225 -0.3630 -0.3186
  172SOPE  H11R19468   3.286   2.616  16.517  1.1986  1.7442  0.1283
  172SOPE  H11S19469   3.307   2.529  16.677 -0.3906 -0.9840  0.2710
  172SOPE  C21219470   3.249   2.743  16.681 -0.4885  0.4199 -0.2252
  172SOPE  H12R19471   3.185   2.750  16.771  2.2398  0.0333  1.8989
  172SOPE  H12S19472   3.208   2.807  16.600  0.9454 -1.0039 -2.1952
  172SOPE  C21319473   3.391   2.796  16.712 -0.4390  0.4210 -0.1810
  172SOPE  H13R19474   3.383   2.894  16.763 -2.5223  1.0600 -1.6301
  172SOPE  H13S19475   3.452   2.812  16.621  1.3222 -2.7968  0.2586
  172SOPE  C21419476   3.474   2.720  16.813  0.1410  0.6599 -0.7933
  172SOPE  H14R19477   3.478   2.610  16.794  0.3018  0.1818  1.6680
  172SOPE  H14S19478   3.447   2.733  16.920  3.0162 -1.0724  0.2977
  172SOPE  C21519479   3.619   2.776  16.816  0.3398  0.5458 -0.0335
  172SOPE  H15R19480   3.651   2.811  16.716  0.4342 -1.4142 -0.7379
  172SOPE  H15S19481   3.680   2.684  16.826  0.1666  0.4322 -0.0088
  172SOPE  C21619482   3.664   2.874  16.930 -0.2828  0.7530  0.2273
  172SOPE  H16R19483   3.619   2.847  17.028  1.4934  1.1232  1.1759
  172SOPE  H16S19484   3.621   2.969  16.892  3.1501  2.3735  0.0197
  172SOPE  C21719485   3.823   2.898  16.926  0.4181  1.5222  1.0505
  172SOPE  H17R19486   3.849   2.921  16.821  1.8243 -1.0087  0.7775
  172SOPE  H17S19487   3.869   2.803  16.961 -0.8866 -0.1694 -1.5309
  172SOPE  C21819488   3.876   3.010  17.016 -0.2655 -0.7937  0.7801
  172SOPE  H18R19489   3.986   3.022  17.006 -0.2532 -2.0531 -1.2580
  172SOPE  H18S19490   3.836   2.986  17.117  1.7557 -0.6643  1.6488
  172SOPE  H18T19491   3.832   3.101  16.969 -3.0971 -2.0294  0.8040
  172SOPE   C3319492   2.397   2.244  16.497 -0.8229  0.3897  0.2894
  172SOPE   H3X19493   2.325   2.181  16.552  1.0969 -1.3120  0.9617
  172SOPE   H3Y19494   2.444   2.311  16.573 -0.8839  0.4634  0.2612
  172SOPE   C3419495   2.505   2.153  16.448  0.3539  0.3781  0.6368
  172SOPE   H4X19496   2.468   2.099  16.358  1.0427 -1.2665  1.3036
  172SOPE   H4Y19497   2.527   2.072  16.521  1.9604  0.7857  0.6422
  172SOPE   C3519498   2.631   2.227  16.393  1.0571  0.6854 -0.5908
  172SOPE   H5X19499   2.681   2.267  16.484 -1.0452 -0.7087  1.2791
  172SOPE   H5Y19500   2.603   2.303  16.318 -0.1708 -0.9783 -1.8856
  172SOPE   C3619501   2.718   2.133  16.312 -0.1723  0.0330  0.0956
  172SOPE   H6X19502   2.647   2.098  16.234 -1.3276  0.9947  0.6898
  172SOPE   H6Y19503   2.745   2.039  16.365  2.0934 -0.3132 -1.5263
  172SOPE   C3719504   2.841   2.200  16.248 -0.0910 -0.4237 -0.4849
  172SOPE   H7X19505   2.915   2.220  16.328  1.8784 -0.0724 -2.3199
  172SOPE   H7Y19506   2.792   2.295  16.219 -0.5607  0.0870  1.7354
  172SOPE   C3819507   2.904   2.129  16.138 -0.2035  0.2286  0.2868
  172SOPE   H8X19508   2.985   2.191  16.094 -2.3885  1.0796 -2.9048
  172SOPE   H8Y19509   2.835   2.121  16.052  1.8617 -1.1955 -1.3480
  172SOPE   C3919510   2.966   1.992  16.179 -0.2355 -0.7675 -0.3225
  172SOPE   H9X19511   2.895   1.913  16.212 -0.8281 -0.6150 -1.1809
  172SOPE   H9Y19512   3.027   2.006  16.271 -0.5888 -1.0056 -0.0518
  172SOPE  C31019513   3.057   1.931  16.069 -0.0663  0.2303 -0.1126
  172SOPE  H10X19514   3.127   2.014  16.042  0.2891 -0.1684 -0.4343
  172SOPE  H10Y19515   2.993   1.902  15.983 -0.8653 -3.7863  1.6109
  172SOPE  C31119516   3.127   1.804  16.114 -0.0571 -0.5529 -0.6738
  172SOPE  H11X19517   3.042   1.739  16.142  0.1325  0.5908  3.0473
  172SOPE  H11Y19518   3.182   1.818  16.209 -1.9514  0.1688  0.3634
  172SOPE  C31219519   3.227   1.751  16.006  0.2071  0.3273  0.3051
  172SOPE  H12X19520   3.282   1.676  16.066 -0.1469  0.1921  0.4618
  172SOPE  H12Y19521   3.300   1.828  15.974  1.5765 -1.0865 -0.1187
  172SOPE  C31319522   3.156   1.692  15.888 -0.2273 -0.2579  0.4703
  172SOPE  H13X19523   3.088   1.770  15.848 -0.6916 -1.1821 -0.5976
  172SOPE  H13Y19524   3.090   1.606  15.914  1.6615 -1.7280  0.6063
  172SOPE  C31419525   3.248   1.650  15.766  0.1065  0.1782  0.6466
  172SOPE  H14X19526   3.301   1.558  15.799 -2.8436 -1.9656 -0.1707
  172SOPE  H14Y19527   3.316   1.735  15.746  0.0126 -0.0312 -0.6401
  172SOPE  C31519528   3.166   1.608  15.638  0.5410  0.3145  0.1652
  172SOPE  H15X19529   3.100   1.691  15.605 -0.7355 -0.5407  0.4859
  172SOPE  H15Y19530   3.095   1.526  15.662 -0.5195  0.5596 -1.9606
  172SOPE  C31619531   3.259   1.577  15.525  0.5014 -0.7242  0.7050
  172SOPE  H16X19532   3.202   1.539  15.437 -1.0215  0.3891  1.1692
  172SOPE  H16Y19533   3.322   1.495  15.566  2.5206 -0.5948 -1.8765
  172SOPE  C31719534   3.356   1.690  15.477 -0.3105  0.3767  0.7507
  172SOPE  H17X19535   3.427   1.639  15.409  0.3328 -0.0301  1.6911
  172SOPE  H17Y19536   3.413   1.731  15.563 -0.7392  3.2185 -0.2190
  172SOPE  C31819537   3.296   1.807  15.402 -0.6918 -0.2170  0.0469
  172SOPE  H18X19538   3.238   1.778  15.312 -2.3408  1.0545  0.6325
  172SOPE  H18Y19539   3.385   1.868  15.377  0.5740 -1.5404  1.1427
  172SOPE  H18Z19540   3.229   1.870  15.465 -1.1467 -0.9634  0.3200
  173SAPI   C1219541   0.049   0.874  24.289  0.3655 -0.1597 -0.5965
  173SAPI    H219542   0.023   0.844  24.185  1.1824 -1.7388 -0.3706
  173SAPI    O219543   0.112   0.758  24.343 -0.2996  0.1971  0.8440
  173SAPI   HO219544   0.043   0.713  24.392 -2.3992  1.6448 -0.6311
  173SAPI   C1319545   0.139   0.999  24.292  0.2184 -0.1843 -0.2047
  173SAPI    H319546   0.070   1.075  24.250 -1.7590 -1.1494  1.0983
  173SAPI    O319547   0.251   0.970  24.202  0.0444 -0.2986  0.3079
  173SAPI   HO319548   0.289   0.885  24.225 -1.0405 -1.1809 -0.9673
  173SAPI   C1419549   0.181   1.031  24.433  0.2757 -0.4241  0.6728
  173SAPI    H419550   0.242   0.941  24.456  0.5847 -0.0652  1.2941
  173SAPI    O419551   0.262   1.147  24.438 -0.6291  0.7418  0.2805
  173SAPI   HO419552   0.328   1.134  24.506 -0.3675  1.6630  0.2233
  173SAPI   C1519553   0.069   1.042  24.536 -0.2810  0.7909  0.3461
  173SAPI    H519554   0.026   1.144  24.528  1.4814  1.4232 -4.4654
  173SAPI    O519555   0.117   1.045  24.668 -0.2203  0.1733  0.3976
  173SAPI   HO519556   0.097   1.130  24.708  0.0838  0.1796  0.5411
  173SAPI   C1619557  -0.041   0.931  24.520  0.5090 -0.3740  0.0623
  173SAPI    H619558  -0.004   0.838  24.567 -1.6221 -0.7144  1.1785
  173SAPI    O619559  -0.156   0.957  24.599 -0.2930 -0.2894 -0.2374
  173SAPI   HO619560  -0.223   0.899  24.563 -2.7499  2.7096 -0.8862
  173SAPI   C1119561  -0.082   0.902  24.372 -0.2844  0.3984 -0.3622
  173SAPI    H119562  -0.128   0.996  24.335 -1.2414  0.0632 -0.0567
  173SAPI     P19563  -0.267   0.723  24.273 -0.5326  0.0850  0.1354
  173SAPI   O1319564  -0.265   0.574  24.281  0.1247  0.1351 -0.3773
  173SAPI   O1419565  -0.245   0.771  24.133  0.2428 -0.3479 -0.2125
  173SAPI   O1219566  -0.168   0.782  24.387 -0.2154  0.7020 -0.2992
  173SAPI   O1119567  -0.408   0.765  24.311 -0.0099 -0.5946 -0.7236
  173SAPI    C119568  -0.452   0.837  24.432  0.0910 -0.3113 -0.7655
  173SAPI    HA19569  -0.412   0.785  24.521  0.1980 -0.1464 -0.7199
  173SAPI    HB19570  -0.434   0.946  24.442 -3.7016  0.3782  0.5460
  173SAPI    C219571  -0.610   0.812  24.447 -0.1301  0.6084  0.2336
  173SAPI    HS19572  -0.633   0.704  24.441  2.9873 -0.1312 -0.1949
  173SAPI   O2119573  -0.677   0.874  24.345  0.3190 -0.2351  0.4364
  173SAPI   C2119574  -0.709   0.809  24.231  0.2934  0.5632 -0.4566
  173SAPI   O2219575  -0.693   0.688  24.217 -0.1889  0.7619 -0.0103
  173SAPI   C2219576  -0.774   0.898  24.132 -0.0266 -0.5949  0.6853
  173SAPI   H2R19577  -0.704   0.982  24.113 -0.3085 -0.1730  1.4674
  173SAPI   H2S19578  -0.775   0.833  24.042 -2.0002 -0.4475  0.5400
  173SAPI    C319579  -0.670   0.851  24.579 -0.7186  0.2716  0.7846
  173SAPI    HX19580  -0.631   0.953  24.600 -1.5785  1.0321 -1.0356
  173SAPI    HY19581  -0.632   0.780  24.655 -0.7103  0.0042  0.5322
  173SAPI   O3119582  -0.819   0.844  24.571 -0.3133 -0.0686  0.1565
  173SAPI   C3119583  -0.875   0.962  24.582 -0.3648  0.0181  0.9607
  173SAPI   O3219584  -0.822   1.069  24.597 -0.6077 -0.0819 -0.0844
  173SAPI   C3219585  -1.023   0.943  24.549 -0.1150  0.1278 -0.3185
  173SAPI   H2X19586  -1.074   0.879  24.624 -2.0347  1.2320 -0.6128
  173SAPI   H2Y19587  -1.024   0.888  24.452 -0.5611 -0.2231 -0.1149
  173SAPI   C2319588  -0.904   0.967  24.176  0.2360 -0.2860  0.6505
  173SAPI   H3R19589  -0.914   1.054  24.108  1.8068 -0.5413  0.0620
  173SAPI   H3S19590  -0.915   1.005  24.280 -0.8593  0.1746  0.3840
  173SAPI   C2419591  -1.033   0.880  24.156  0.0803  0.0088  0.0932
  173SAPI   H4R19592  -1.121   0.927  24.206 -0.5843 -2.3822  1.3502
  173SAPI   H4S19593  -1.018   0.799  24.230  0.7740 -0.4897 -0.5846
  173SAPI   C2519594  -1.053   0.834  24.016  0.0478 -0.1942 -0.5657
  173SAPI   H5R19595  -1.043   0.914  23.941  0.4980 -0.1630 -0.4737
  173SAPI   C2619596  -1.067   0.708  23.980  0.7278 -0.6483  0.4522
  173SAPI   H6R19597  -1.087   0.686  23.874 -1.6422 -0.6893  0.8496
  173SAPI   C2719598  -1.088   0.593  24.077  0.2156 -0.0781 -0.3556
  173SAPI   H7R19599  -1.149   0.615  24.167 -0.2598  2.7734 -1.2835
  173SAPI   H7S19600  -0.988   0.573  24.120  0.1540 -0.0840 -0.2155
  173SAPI   C2819601  -1.134   0.466  24.007  0.2624  1.0027 -0.4917
  173SAPI   H8R19602  -1.242   0.456  23.988  0.7889  0.4099 -3.9858
  173SAPI   C2919603  -1.060   0.362  23.965 -0.1892 -0.2135 -0.7852
  173SAPI   H9R19604  -1.115   0.277  23.922 -0.5091 -0.9710  1.0222
  173SAPI  C21019605  -0.911   0.339  23.988  0.3216 -0.2702 -0.3370
  173SAPI  H10R19606  -0.884   0.433  24.040  0.9958  1.4192 -3.5292
  173SAPI  H10S19607  -0.859   0.357  23.892  1.5305 -2.6893 -0.2305
  173SAPI  C21119608  -0.877   0.206  24.053  0.0179 -1.5925 -0.1258
  173SAPI  H11R19609  -0.859   0.226  24.160  1.0009 -0.2143 -0.5226
  173SAPI  C21219610  -0.852   0.084  24.004  0.2298 -0.3241 -0.5729
  173SAPI  H12R19611  -0.827  -0.000  24.070  1.4799  0.6818  0.2888
  173SAPI  C21319612  -0.863   0.052  23.858 -0.9447 -0.2975 -0.3537
  173SAPI  H13R19613  -0.915   0.137  23.809 -0.6713  0.6034  0.8787
  173SAPI  H13S19614  -0.927  -0.035  23.833  1.6892 -2.1516 -1.0142
  173SAPI  C21419615  -0.732   0.034  23.788  0.1217 -0.1470  0.1951
  173SAPI  H14R19616  -0.656  -0.010  23.854 -0.9390 -1.4467  0.5955
  173SAPI  C21519617  -0.705   0.071  23.661 -0.6568  0.5315 -1.0901
  173SAPI  H15R19618  -0.604   0.052  23.622  0.4513  0.2888  1.7156
  173SAPI  C21619619  -0.799   0.148  23.573 -0.2567  0.0810 -0.3198
  173SAPI  H16R19620  -0.739   0.204  23.498 -1.3532  0.9119 -0.6032
  173SAPI  H16S19621  -0.847   0.225  23.638  1.0989  0.3380  0.4101
  173SAPI  C21719622  -0.905   0.063  23.506  0.1367 -0.4826  0.2437
  173SAPI  H17R19623  -0.983   0.033  23.579  0.3652  1.4484  1.3457
  173SAPI  H17S19624  -0.857  -0.030  23.469 -1.1229 -1.0766  0.0446
  173SAPI  C21819625  -0.991   0.138  23.403 -0.2431 -0.5983 -0.2909
  173SAPI  H18R19626  -0.920   0.192  23.337  0.8214  1.3111  2.2548
  173SAPI  H18S19627  -1.051   0.217  23.454  0.4253 -2.1927  3.2472
  173SAPI  C21919628  -1.097   0.048  23.329  0.4880  0.3061 -0.4248
  173SAPI  H19R19629  -1.144  -0.007  23.413 -1.9981  2.3050 -0.4042
  173SAPI  H19S19630  -1.035  -0.032  23.282  0.8458 -0.1308  0.7396
  173SAPI  C22019631  -1.189   0.120  23.228  0.1829  0.1602 -0.1806
  173SAPI  H20R19632  -1.227   0.212  23.277  2.0559  1.5273 -1.1577
  173SAPI  H20S19633  -1.270   0.057  23.185  0.9588 -1.4120  0.5711
  173SAPI  H20T19634  -1.128   0.155  23.142  1.6698 -0.7794  0.4573
  173SAPI   C3319635  -1.096   1.077  24.526  0.5985 -0.0707 -0.5333
  173SAPI   H3X19636  -1.043   1.132  24.445  0.5797  0.9820  0.1578
  173SAPI   H3Y19637  -1.090   1.146  24.613 -1.5067  2.9296 -2.5932
  173SAPI   C3419638  -1.236   1.050  24.465  0.1580  0.2562  0.0541
  173SAPI   H4X19639  -1.227   0.972  24.386  1.4807 -1.1597  1.5259
  173SAPI   H4Y19640  -1.261   1.141  24.406 -0.6212 -0.5726 -0.9423
  173SAPI   C3519641  -1.351   1.026  24.570 -0.0382 -0.0612  0.2478
  173SAPI   H5X19642  -1.366   1.124  24.620  2.5599  0.8116 -0.5240
  173SAPI   H5Y19643  -1.330   0.942  24.640 -2.1539 -0.5132  0.4081
  173SAPI   C3619644  -1.479   0.996  24.495  0.0432 -0.1770 -0.0336
  173SAPI   H6X19645  -1.563   1.023  24.563  0.6110  0.7557  0.3202
  173SAPI   H6Y19646  -1.477   0.889  24.465 -0.3349 -0.3420  0.5041
  173SAPI   C3719647  -1.514   1.077  24.365  0.1681  0.3966  0.8303
  173SAPI   H7X19648  -1.464   1.020  24.284 -1.5484 -0.8408  0.5803
  173SAPI   H7Y19649  -1.480   1.182  24.379  1.4527  0.4151 -1.7117
  173SAPI   C3819650  -1.664   1.066  24.326 -0.1250 -0.5182 -0.0316
  173SAPI   H8X19651  -1.709   1.156  24.374  1.7497 -0.0581  0.9298
  173SAPI   H8Y19652  -1.710   0.971  24.359 -0.5872 -0.9684 -1.8528
  173SAPI   C3919653  -1.701   1.062  24.177 -0.0087 -0.1494 -0.0953
  173SAPI   H9X19654  -1.655   0.965  24.149  1.6302  0.6265 -0.1841
  173SAPI   H9Y19655  -1.653   1.150  24.129 -1.3538  1.0334  0.6465
  173SAPI  C31019656  -1.851   1.052  24.151 -0.1580 -1.2374 -0.1204
  173SAPI  H10X19657  -1.898   1.145  24.191 -1.2686 -1.1188 -1.6197
  173SAPI  H10Y19658  -1.896   0.961  24.196 -0.9047 -0.1180  1.5009
  173SAPI  C31119659  -1.867   1.052  23.993 -0.7410  0.5007  0.4244
  173SAPI  H11X19660  -1.798   0.973  23.958 -0.5527  0.2855  1.2590
  173SAPI  H11Y19661  -1.818   1.143  23.954 -2.0442  0.3239 -1.7895
  173SAPI  C31219662  -2.011   1.019  23.950 -0.0912 -0.4622 -0.4272
  173SAPI  H12X19663  -2.041   1.099  23.880  1.8002  0.6361 -0.0637
  173SAPI  H12Y19664  -2.086   1.016  24.032 -2.8163 -0.0249 -2.7863
  173SAPI  C31319665  -2.018   0.874  23.894  0.3265 -0.3832 -0.0580
  173SAPI  H13X19666  -2.126   0.848  23.898  0.2488 -0.4908 -1.9156
  173SAPI  H13Y19667  -1.959   0.804  23.958 -1.5470 -0.1186  2.0881
  173SAPI  C31419668  -1.990   0.871  23.740  0.0648  0.1991  0.4033
  173SAPI  H14X19669  -1.888   0.910  23.717 -0.1828  1.0886  0.7584
  173SAPI  H14Y19670  -2.058   0.947  23.697 -0.0472  0.4473  1.0105
  173SAPI  C31519671  -2.024   0.735  23.686 -0.8324  0.3265 -0.6073
  173SAPI  H15X19672  -2.132   0.715  23.697 -0.4109 -0.9381  2.2755
  173SAPI  H15Y19673  -1.973   0.658  23.748  0.2090  3.5696  2.9122
  173SAPI  C31619674  -1.983   0.721  23.541 -0.3913  0.9220 -0.3537
  173SAPI  H16X19675  -2.002   0.616  23.508  0.0564  1.0751 -1.1244
  173SAPI  H16Y19676  -1.876   0.749  23.526 -0.1295 -0.6590 -1.8466
  173SAPI  C31719677  -2.045   0.826  23.442  0.2371 -0.7012  0.1251
  173SAPI  H17X19678  -2.001   0.831  23.340  0.6235 -1.9257  0.2049
  173SAPI  H17Y19679  -2.015   0.927  23.478 -1.7458  0.5893 -1.6052
  173SAPI  C31819680  -2.195   0.809  23.417  0.3001 -0.0881  0.3616
  173SAPI  H18X19681  -2.247   0.804  23.515 -0.2211 -0.8630  0.0536
  173SAPI  H18Y19682  -2.209   0.710  23.367  2.6623  0.9283 -2.6433
  173SAPI  H18Z19683  -2.233   0.887  23.347  2.3087  1.2591  0.6929
  174SAPI   C1219684   0.359   4.062  25.193  0.4307 -0.3916 -0.0291
  174SAPI    H219685   0.257   4.105  25.191 -1.2647 -4.1212 -0.3684
  174SAPI    O219686   0.438   4.133  25.282  0.3769 -0.0603 -0.2227
  174SAPI   HO219687   0.405   4.224  25.281  1.3388  0.3075 -0.0392
  174SAPI   C1319688   0.344   3.911  25.231 -0.3058 -0.2740 -0.0255
  174SAPI    H319689   0.291   3.853  25.154 -0.5120  1.7517 -1.4968
  174SAPI    O319690   0.297   3.900  25.369  1.0435  0.2626 -0.5599
  174SAPI   HO319691   0.332   3.972  25.422  1.8687 -1.0303  0.7155
  174SAPI   C1419692   0.489   3.855  25.228  0.2415 -0.3751  0.5424
  174SAPI    H419693   0.545   3.892  25.317 -0.9522 -1.4105  1.7656
  174SAPI    O419694   0.496   3.713  25.251 -0.4260  0.6668  0.0777
  174SAPI   HO419695   0.589   3.701  25.232 -0.3066  1.0869  0.3894
  174SAPI   C1519696   0.564   3.878  25.095 -0.0778  0.0680  0.1851
  174SAPI    H519697   0.517   3.813  25.018  0.3500 -0.0819  0.0492
  174SAPI    O519698   0.700   3.842  25.095  0.1739  0.5622  0.1066
  174SAPI   HO519699   0.742   3.890  25.023  1.3144 -1.4352 -0.6352
  174SAPI   C1619700   0.559   4.025  25.050 -0.0109  0.4197 -0.2184
  174SAPI    H619701   0.610   4.088  25.125 -1.5148  1.3843  0.0542
  174SAPI    O619702   0.626   4.058  24.928  0.6912  0.1852  0.7740
  174SAPI   HO619703   0.571   4.113  24.871  0.4549  1.8266  2.4917
  174SAPI   C1119704   0.412   4.069  25.050  0.3873  0.5480 -0.3113
  174SAPI    H119705   0.352   4.003  24.984 -0.5637  0.3071  0.7605
  174SAPI     P19706   0.334   4.247  24.873  0.0894  0.1975  0.0742
  174SAPI   O1319707   0.325   4.391  24.876 -0.1548 -0.2787  0.3934
  174SAPI   O1419708   0.204   4.183  24.843 -0.2547 -0.7332  0.5069
  174SAPI   O1219709   0.391   4.206  25.012 -0.3656  0.1590  0.2827
  174SAPI   O1119710   0.443   4.198  24.762 -0.5453 -0.1302 -0.4873
  174SAPI    C119711   0.507   4.299  24.679 -0.8954 -0.4116 -0.7625
  174SAPI    HA19712   0.439   4.368  24.625 -0.0544  2.0263  1.1129
  174SAPI    HB19713   0.566   4.367  24.744 -4.3332  0.7306  1.4261
  174SAPI    C219714   0.602   4.219  24.587  0.0824  0.3656  0.8392
  174SAPI    HS19715   0.547   4.127  24.557  2.4314 -0.0061 -3.0458
  174SAPI   O2119716   0.725   4.200  24.651 -0.1223 -0.4197  0.1746
  174SAPI   C2119717   0.771   4.073  24.661 -0.2213 -0.8804  0.9434
  174SAPI   O2219718   0.710   3.977  24.618  0.2330  0.3292 -0.2198
  174SAPI   C2219719   0.913   4.070  24.723 -0.3863 -0.0483 -0.3294
  174SAPI   H2R19720   0.976   4.131  24.655 -1.4142  0.5838 -0.7469
  174SAPI   H2S19721   0.895   4.123  24.819 -0.8936  0.9934 -0.9877
  174SAPI    C319722   0.624   4.295  24.447  1.0283 -0.2277 -0.0010
  174SAPI    HX19723   0.675   4.391  24.471 -0.3848  0.3218  0.9634
  174SAPI    HY19724   0.522   4.320  24.408  1.0035  0.5971  0.5537
  174SAPI   O3119725   0.706   4.225  24.359 -0.3525  0.3736 -0.1302
  174SAPI   C3119726   0.731   4.296  24.248 -0.0281  0.3508  1.2837
  174SAPI   O3219727   0.689   4.409  24.229 -0.0039  0.6864 -0.4938
  174SAPI   C3219728   0.826   4.220  24.151 -0.6940  0.0616 -0.1256
  174SAPI   H2X19729   0.791   4.114  24.150 -2.8865  0.6352 -4.1305
  174SAPI   H2Y19730   0.925   4.221  24.201 -0.7023  0.4868 -0.1158
  174SAPI   C2319731   0.979   3.932  24.744 -0.7532 -0.8691  0.4244
  174SAPI   H3R19732   1.015   3.888  24.648  3.3426 -0.8609  1.7512
  174SAPI   H3S19733   0.907   3.853  24.773 -1.6914 -0.4442 -0.6887
  174SAPI   C2419734   1.105   3.940  24.828 -0.6199 -0.0336  0.0602
  174SAPI   H4R19735   1.182   4.013  24.795  0.0303  0.8412  3.1717
  174SAPI   H4S19736   1.152   3.839  24.821 -1.3054 -0.3546  0.0396
  174SAPI   C2519737   1.077   3.976  24.975  0.3388  1.1690 -0.0337
  174SAPI   H5R19738   1.005   4.059  24.982  0.1271  1.1243 -1.3576
  174SAPI   C2619739   1.134   3.925  25.087  0.0245 -0.8588  0.1700
  174SAPI   H6R19740   1.102   3.962  25.185  1.3022 -0.0078  0.2929
  174SAPI   C2719741   1.225   3.810  25.087  0.1073 -0.3782 -0.1353
  174SAPI   H7R19742   1.285   3.803  24.993 -0.4220  1.2146 -0.6242
  174SAPI   H7S19743   1.161   3.720  25.079 -0.4281 -0.1840  1.5357
  174SAPI   C2819744   1.303   3.793  25.216  0.0386  0.0043  0.2482
  174SAPI   H8R19745   1.242   3.783  25.306 -0.5453  2.0230  0.1162
  174SAPI   C2919746   1.439   3.808  25.217 -0.8218  1.3480  0.0087
  174SAPI   H9R19747   1.503   3.792  25.305 -0.2192 -1.5672 -0.8163
  174SAPI  C21019748   1.523   3.825  25.085  0.1319  0.2993  0.4295
  174SAPI  H10R19749   1.488   3.753  25.007  3.6782 -0.8294 -0.3508
  174SAPI  H10S19750   1.627   3.785  25.084 -0.0142 -0.0775 -0.0038
  174SAPI  C21119751   1.516   3.963  25.025  0.1067  0.2368  0.3100
  174SAPI  H11R19752   1.424   4.003  24.980  0.2207  1.4111  1.0651
  174SAPI  C21219753   1.626   4.036  25.001  0.0376 -1.0314 -0.4925
  174SAPI  H12R19754   1.609   4.129  24.946  2.3187  1.1639  2.2698
  174SAPI  C21319755   1.765   4.007  25.031 -0.1335 -0.3525 -0.7661
  174SAPI  H13R19756   1.807   3.971  24.934  3.6303 -0.5557  0.7716
  174SAPI  H13S19757   1.772   3.931  25.112  2.5583  0.4384 -0.1520
  174SAPI  C21419758   1.840   4.128  25.076  0.5260  0.3194  0.0024
  174SAPI  H14R19759   1.777   4.204  25.125 -2.4322 -0.2697 -2.5790
  174SAPI  C21519760   1.973   4.151  25.066 -0.0577 -0.2676  0.5023
  174SAPI  H15R19761   2.018   4.241  25.110  1.3605 -0.9651  0.5162
  174SAPI  C21619762   2.073   4.056  25.012  0.1411  0.6153 -0.3333
  174SAPI  H16R19763   2.170   4.104  24.985  0.9823 -0.8998 -0.0638
  174SAPI  H16S19764   2.040   4.012  24.916  0.7772  0.1539 -0.3473
  174SAPI  C21719765   2.133   3.949  25.109 -0.0955 -0.0661 -0.5231
  174SAPI  H17R19766   2.231   3.912  25.074 -0.9257  0.1404 -3.3162
  174SAPI  H17S19767   2.056   3.869  25.105  1.9836 -2.0992 -3.3830
  174SAPI  C21819768   2.144   3.975  25.256  1.0308  0.3365  0.0523
  174SAPI  H18R19769   2.039   4.000  25.282  0.6438 -1.3487  0.2108
  174SAPI  H18S19770   2.207   4.065  25.277  3.0527 -0.4448 -2.1278
  174SAPI  C21919771   2.176   3.845  25.332  0.5350 -0.0079 -0.1922
  174SAPI  H19R19772   2.262   3.783  25.299 -0.5061 -0.9363 -1.2309
  174SAPI  H19S19773   2.091   3.781  25.299  2.1901 -1.7368 -1.2433
  174SAPI  C22019774   2.173   3.859  25.488  0.0190 -0.0549  0.5956
  174SAPI  H20R19775   2.175   3.760  25.538  2.2510 -0.2410  0.2474
  174SAPI  H20S19776   2.080   3.909  25.523  0.2996  0.5333  0.5186
  174SAPI  H20T19777   2.258   3.917  25.530 -0.2205 -0.4242  1.6232
  174SAPI   C3319778   0.826   4.288  24.014 -0.6039  0.2391 -0.4355
  174SAPI   H3X19779   0.836   4.394  24.044  1.3325  0.3338 -1.2694
  174SAPI   H3Y19780   0.729   4.277  23.962  1.0353 -1.5908 -3.4383
  174SAPI   C3419781   0.943   4.239  23.925  0.2025  0.7193  0.6371
  174SAPI   H4X19782   0.922   4.130  23.920  1.1620  0.5710 -0.4266
  174SAPI   H4Y19783   1.038   4.267  23.976  0.2440 -0.9278  1.5185
  174SAPI   C3519784   0.943   4.294  23.782  0.8356  0.2403  0.0598
  174SAPI   H5X19785   0.971   4.401  23.775  2.4155 -0.2211 -1.1040
  174SAPI   H5Y19786   0.839   4.282  23.745 -0.6840 -0.4123  4.0644
  174SAPI   C3619787   1.038   4.207  23.691 -0.0752 -0.4008  0.5414
  174SAPI   H6X19788   0.982   4.191  23.596  1.5184  1.0722 -0.7209
  174SAPI   H6Y19789   1.058   4.117  23.752 -1.7067 -0.1170  1.5517
  174SAPI   C3719790   1.172   4.285  23.652 -1.1643  0.7440  0.3405
  174SAPI   H7X19791   1.188   4.379  23.709  2.3089  1.6933 -1.8656
  174SAPI   H7Y19792   1.151   4.328  23.552  2.1953 -1.6450 -1.6079
  174SAPI   C3819793   1.303   4.206  23.639 -0.4406  0.1138  0.7554
  174SAPI   H8X19794   1.275   4.116  23.580  0.1715 -1.0197  2.1209
  174SAPI   H8Y19795   1.341   4.175  23.738 -1.2023 -0.5478  0.8532
  174SAPI   C3919796   1.421   4.282  23.572  0.5375  0.3840 -0.0902
  174SAPI   H9X19797   1.436   4.385  23.611 -0.6089  0.6292 -0.2555
  174SAPI   H9Y19798   1.386   4.294  23.467 -0.9257 -1.6347  0.1012
  174SAPI  C31019799   1.561   4.214  23.577  0.8983  0.0113 -0.1761
  174SAPI  H10X19800   1.562   4.121  23.517 -1.5455 -0.3315  0.1966
  174SAPI  H10Y19801   1.576   4.187  23.684  0.4881  0.4834  0.0048
  174SAPI  C31119802   1.679   4.304  23.534  0.5584  0.4126  0.0350
  174SAPI  H11X19803   1.660   4.414  23.531  3.3293  0.9958  0.9867
  174SAPI  H11Y19804   1.706   4.270  23.432  1.2075 -2.9898  1.2344
  174SAPI  C31219805   1.810   4.271  23.609  0.1356 -0.5562 -0.7077
  174SAPI  H12X19806   1.892   4.306  23.542  0.2205  0.4123 -0.1177
  174SAPI  H12Y19807   1.817   4.162  23.628 -1.7192 -0.6682 -0.5105
  174SAPI  C31319808   1.816   4.330  23.748  0.1489  0.3189  0.4008
  174SAPI  H13X19809   1.917   4.317  23.792  0.6503  0.6786 -0.6176
  174SAPI  H13Y19810   1.739   4.291  23.819  0.0758  0.1073  0.2055
  174SAPI  C31419811   1.790   4.486  23.758  0.1873 -0.6955 -0.7530
  174SAPI  H14X19812   1.683   4.511  23.740  0.3215  0.5458  0.0425
  174SAPI  H14Y19813   1.856   4.535  23.684  0.6258  1.0417  0.7075
  174SAPI  C31519814   1.818   4.522  23.914 -0.1790 -1.0358  0.8506
  174SAPI  H15X19815   1.926   4.510  23.938 -0.0580  1.6661  2.0652
  174SAPI  H15Y19816   1.755   4.447  23.967 -3.0208 -0.0142 -0.8522
  174SAPI  C31619817   1.774   4.659  23.966  0.7138  0.4384  0.2410
  174SAPI  H16X19818   1.667   4.660  23.939  0.9615 -0.3359 -0.8257
  174SAPI  H16Y19819   1.811   4.742  23.902 -1.6241  0.4359 -1.2344
  174SAPI  C31719820   1.797   4.685  24.111 -0.4833  0.1301 -0.3094
  174SAPI  H17X19821   1.907   4.671  24.120 -0.7273 -2.2806 -0.4305
  174SAPI  H17Y19822   1.750   4.610  24.177 -0.0758  1.0966  1.1217
  174SAPI  C31819823   1.780   4.828  24.156  0.1847 -0.0941 -0.4658
  174SAPI  H18X19824   1.818   4.841  24.259 -0.5650  0.7567 -0.2825
  174SAPI  H18Y19825   1.675   4.864  24.156  0.4475  0.7163 -1.2896
  174SAPI  H18Z19826   1.839   4.901  24.097  0.0020  1.7212  1.4774
  175SAPI   C1219827   2.514   1.539  13.449  0.2595  0.9147 -0.4238
  175SAPI    H219828   2.596   1.586  13.509  1.6270  0.0034 -1.5074
  175SAPI    O219829   2.547   1.409  13.397  0.6108 -0.5623  0.5317
  175SAPI   HO219830   2.631   1.413  13.350  0.1948  1.0403 -0.1646
  175SAPI   C1319831   2.388   1.524  13.532 -0.3462  0.5954  0.6440
  175SAPI    H319832   2.382   1.617  13.593 -5.1628  1.3505 -0.5784
  175SAPI    O319833   2.396   1.419  13.627  0.0514 -0.0459  1.3209
  175SAPI   HO319834   2.444   1.348  13.584 -1.2760  0.1909 -0.7194
  175SAPI   C1419835   2.248   1.534  13.453 -1.0340  0.5920 -0.5677
  175SAPI    H419836   2.231   1.432  13.414 -0.7951  1.2581 -2.5698
  175SAPI    O419837   2.133   1.560  13.532  0.5172  0.3750 -1.2552
  175SAPI   HO419838   2.073   1.596  13.466  0.1942  0.4403 -0.9300
  175SAPI   C1519839   2.254   1.617  13.323  0.4754  0.3338 -0.0391
  175SAPI    H519840   2.245   1.725  13.348  1.4486  0.5352 -0.5150
  175SAPI    O519841   2.132   1.595  13.252  0.3013 -0.7153  0.2294
  175SAPI   HO519842   2.155   1.561  13.165 -0.6353  0.1815 -0.4004
  175SAPI   C1619843   2.380   1.596  13.239  0.4746  0.5370  0.1683
  175SAPI    H619844   2.379   1.490  13.205 -2.2819  0.5416 -0.0225
  175SAPI    O619845   2.362   1.677  13.126  0.8493  0.5206 -0.3686
  175SAPI   HO619846   2.449   1.701  13.094  2.5853 -2.3573  1.7183
  175SAPI   C1119847   2.495   1.636  13.330 -0.2328  0.0686  0.5817
  175SAPI    H119848   2.475   1.736  13.374  1.8745  1.6936 -1.8997
  175SAPI     P19849   2.738   1.760  13.294  0.1838  0.1108 -0.2530
  175SAPI   O1319850   2.685   1.901  13.287 -0.2297 -0.2184 -0.2233
  175SAPI   O1419851   2.855   1.738  13.207 -0.1741  0.2470  0.3077
  175SAPI   O1219852   2.620   1.648  13.254  0.2214  0.2275 -0.0378
  175SAPI   O1119853   2.780   1.716  13.434 -0.0058 -0.3403 -0.2532
  175SAPI    C119854   2.895   1.651  13.479  0.0777  0.6659 -0.9323
  175SAPI    HA19855   2.965   1.609  13.404  2.6796  0.0578  1.6312
  175SAPI    HB19856   2.954   1.724  13.539 -1.1564  1.3056 -0.4708
  175SAPI    C219857   2.854   1.536  13.574  0.1432  0.1648  0.2444
  175SAPI    HS19858   2.792   1.464  13.516  1.0366 -2.4564  2.3373
  175SAPI   O2119859   2.781   1.589  13.683 -0.0202 -0.1465  0.2214
  175SAPI   C2119860   2.702   1.503  13.748 -0.4986 -0.2737  0.2328
  175SAPI   O2219861   2.681   1.388  13.723  0.2619  0.4426 -0.0821
  175SAPI   C2219862   2.634   1.581  13.869 -0.1951  0.3341  0.2296
  175SAPI   H2R19863   2.674   1.684  13.881  0.7803  0.0968 -0.8401
  175SAPI   H2S19864   2.531   1.602  13.833  0.2350  2.8331  0.3138
  175SAPI    C319865   2.983   1.470  13.634  0.4291 -0.8044  0.7101
  175SAPI    HX19866   3.037   1.564  13.658 -0.4205 -0.2040  0.3013
  175SAPI    HY19867   3.027   1.413  13.549 -0.8904  0.7513 -1.1149
  175SAPI   O3119868   2.962   1.399  13.760 -0.2726 -0.2819  1.0579
  175SAPI   C3119869   3.043   1.297  13.769  0.3912  0.2882 -0.3857
  175SAPI   O3219870   3.140   1.274  13.701 -0.4501 -0.4314  0.3139
  175SAPI   C3219871   2.977   1.203  13.867 -0.1990  0.3462 -0.5085
  175SAPI   H2X19872   2.867   1.205  13.852  0.1298  0.8936 -3.4356
  175SAPI   H2Y19873   3.005   1.234  13.970  0.0994  2.0151 -1.0537
  175SAPI   C2319874   2.629   1.503  14.000 -0.1895 -0.3207  1.1399
  175SAPI   H3R19875   2.716   1.434  14.009  0.4328 -0.2469 -2.7884
  175SAPI   H3S19876   2.530   1.454  13.999 -1.2366  1.6907 -0.0270
  175SAPI   C2419877   2.647   1.596  14.122  0.3589 -0.3900  0.2049
  175SAPI   H4R19878   2.736   1.663  14.113 -0.1392  0.6211  2.1992
  175SAPI   H4S19879   2.683   1.529  14.202  0.5553 -2.4964 -1.5634
  175SAPI   C2519880   2.524   1.679  14.142  1.1220 -0.1175 -0.7152
  175SAPI   H5R19881   2.504   1.755  14.065 -1.0269  0.5147  0.3907
  175SAPI   C2619882   2.433   1.683  14.246  0.2326 -0.2824 -0.1049
  175SAPI   H6R19883   2.352   1.757  14.245 -2.8564 -3.1829  3.3138
  175SAPI   C2719884   2.439   1.606  14.372  0.2194  0.0573 -0.0842
  175SAPI   H7R19885   2.512   1.655  14.440  1.1475  0.6639 -1.4821
  175SAPI   H7S19886   2.473   1.503  14.347 -1.2091 -0.9770  1.9225
  175SAPI   C2819887   2.307   1.608  14.452 -1.1764 -0.0567  0.3207
  175SAPI   H8R19888   2.236   1.529  14.421 -1.0922 -0.2722  0.6642
  175SAPI   C2919889   2.268   1.700  14.544  0.0919 -0.3217  0.5474
  175SAPI   H9R19890   2.171   1.693  14.595 -0.1787  1.5485  0.3372
  175SAPI  C21019891   2.346   1.819  14.598  0.3653  0.5357  0.1401
  175SAPI  H10R19892   2.272   1.902  14.589 -0.9194 -0.6272 -0.5249
  175SAPI  H10S19893   2.442   1.840  14.546 -0.4881  0.3765 -1.5981
  175SAPI  C21119894   2.377   1.792  14.743  0.4604 -0.0449  0.1174
  175SAPI  H11R19895   2.420   1.692  14.753 -2.7024 -1.7245 -1.4090
  175SAPI  C21219896   2.387   1.897  14.832 -0.5102 -0.3273 -0.3494
  175SAPI  H12R19897   2.402   1.867  14.937 -1.5585 -2.1126 -0.6693
  175SAPI  C21319898   2.351   2.050  14.815  1.1970  0.5089  1.1717
  175SAPI  H13R19899   2.285   2.068  14.727  0.8227 -1.0237  1.1081
  175SAPI  H13S19900   2.439   2.116  14.801  0.4111  1.0800 -1.6378
  175SAPI  C21419901   2.288   2.108  14.946  0.4177 -0.4156 -0.3317
  175SAPI  H14R19902   2.178   2.106  14.945  0.3543 -2.6805 -3.8109
  175SAPI  C21519903   2.353   2.136  15.060  0.3345 -0.1629 -0.0968
  175SAPI  H15R19904   2.295   2.183  15.141 -0.7393 -0.3638 -0.7327
  175SAPI  C21619905   2.506   2.132  15.077 -0.0919 -0.4135  0.2614
  175SAPI  H16R19906   2.529   2.227  15.131  1.6167 -0.2248 -0.7459
  175SAPI  H16S19907   2.558   2.136  14.980  1.7217 -0.6735  1.1784
  175SAPI  C21719908   2.553   2.009  15.158 -0.5223 -0.0906  0.2832
  175SAPI  H17R19909   2.545   1.914  15.101  2.7027 -1.7754  2.3763
  175SAPI  H17S19910   2.501   1.992  15.255 -2.1194  1.4162 -0.2491
  175SAPI  C21819911   2.700   2.025  15.182  0.3373  0.3172 -0.2593
  175SAPI  H18R19912   2.715   2.100  15.263  1.3022  1.7566 -1.7019
  175SAPI  H18S19913   2.753   2.064  15.092  0.1764 -1.7120 -1.2848
  175SAPI  C21919914   2.780   1.897  15.220  0.2096 -0.0251  0.5338
  175SAPI  H19R19915   2.767   1.808  15.155 -1.2541  1.1743 -0.9082
  175SAPI  H19S19916   2.738   1.857  15.316 -1.4883  0.6224  0.1080
  175SAPI  C22019917   2.930   1.921  15.233 -0.2832 -0.2386  0.5642
  175SAPI  H20R19918   2.949   2.022  15.275 -3.4654  0.5669  0.3052
  175SAPI  H20S19919   2.968   1.910  15.129  0.7932 -2.5987  1.1450
  175SAPI  H20T19920   2.990   1.841  15.281  1.9762 -0.4481 -2.2713
  175SAPI   C3319921   3.029   1.060  13.843 -0.7056  0.3973 -0.0532
  175SAPI   H3X19922   3.139   1.050  13.854 -0.6460  0.3613 -0.6269
  175SAPI   H3Y19923   2.998   1.027  13.741  2.5649 -1.7835 -0.4963
  175SAPI   C3419924   2.954   0.967  13.942  0.2264 -0.0997 -0.1861
  175SAPI   H4X19925   2.994   0.864  13.928 -0.2084 -0.1217 -1.3778
  175SAPI   H4Y19926   2.847   0.951  13.918  0.3647 -0.4180 -0.6116
  175SAPI   C3519927   2.974   1.005  14.092  0.6587 -0.2163 -0.8990
  175SAPI   H5X19928   2.900   1.082  14.123  1.8993  1.1894 -1.3109
  175SAPI   H5Y19929   3.080   1.038  14.096  1.3712 -2.4798  0.1775
  175SAPI   C3619930   2.957   0.879  14.184  0.5104  0.0737  0.9028
  175SAPI   H6X19931   2.992   0.793  14.123  0.9419  0.2608  0.8807
  175SAPI   H6Y19932   2.849   0.863  14.202  0.6093 -1.4318  0.3108
  175SAPI   C3719933   3.028   0.890  14.315 -0.5407 -0.5527  0.1074
  175SAPI   H7X19934   3.067   0.992  14.334  0.2851 -1.0275  1.0533
  175SAPI   H7Y19935   3.115   0.822  14.301  1.3078  1.7111  0.1650
  175SAPI   C3819936   2.948   0.843  14.430 -0.3152 -0.3754 -0.1477
  175SAPI   H8X19937   2.901   0.745  14.407 -0.0851 -0.5954  0.3134
  175SAPI   H8Y19938   2.866   0.917  14.444 -1.3659 -1.6846  0.7976
  175SAPI   C3919939   3.021   0.822  14.563  0.0662 -0.1423 -0.5123
  175SAPI   H9X19940   3.062   0.911  14.616 -2.6923 -0.6082  2.7065
  175SAPI   H9Y19941   3.114   0.763  14.552 -0.5962 -2.1245  3.1697
  175SAPI  C31019942   2.924   0.749  14.659  0.3571 -0.2417 -0.3302
  175SAPI  H10X19943   2.917   0.641  14.634 -2.4562 -0.6118  1.5501
  175SAPI  H10Y19944   2.817   0.780  14.656 -0.2930 -2.3464 -1.7923
  175SAPI  C31119945   2.971   0.750  14.804  0.0818 -0.1369 -0.2832
  175SAPI  H11X19946   3.081   0.748  14.813 -0.0817  0.4074  3.3107
  175SAPI  H11Y19947   2.942   0.659  14.861 -1.8924  0.4873 -0.2274
  175SAPI  C31219948   2.913   0.869  14.879 -0.1683 -0.4346  0.0709
  175SAPI  H12X19949   2.805   0.848  14.895 -0.3593  0.3650 -0.1328
  175SAPI  H12Y19950   2.910   0.957  14.812  0.6758 -0.9782 -0.7000
  175SAPI  C31319951   2.998   0.913  15.002  0.5539  0.1057 -0.1433
  175SAPI  H13X19952   3.089   0.960  14.959 -1.7609  3.7889 -1.5165
  175SAPI  H13Y19953   3.012   0.817  15.058 -2.7204 -0.5997 -0.3035
  175SAPI  C31419954   2.930   1.012  15.097  0.2940 -0.0134 -0.4944
  175SAPI  H14X19955   2.830   0.967  15.115  1.1624 -1.2579  1.5118
  175SAPI  H14Y19956   2.913   1.108  15.044  1.9073  1.1428  0.9707
  175SAPI  C31519957   3.001   1.024  15.232 -0.3021  0.0959  0.1767
  175SAPI  H15X19958   3.017   0.923  15.275 -0.7807 -0.7880 -1.6287
  175SAPI  H15Y19959   2.932   1.085  15.294 -0.5236  1.2142 -1.1105
  175SAPI  C31619960   3.141   1.096  15.227 -0.4281  0.1301  0.1939
  175SAPI  H16X19961   3.125   1.188  15.167 -1.2186 -1.1792 -1.6926
  175SAPI  H16Y19962   3.209   1.038  15.161 -3.2082 -5.6502  1.7108
  175SAPI  C31719963   3.182   1.119  15.369 -0.1173  0.1671  0.7830
  175SAPI  H17X19964   3.183   1.025  15.428  0.6843 -1.1650 -1.2677
  175SAPI  H17Y19965   3.115   1.197  15.412  2.3546  2.1268  1.3585
  175SAPI  C31819966   3.321   1.183  15.377  0.0887  0.0362 -0.1761
  175SAPI  H18X19967   3.324   1.273  15.311 -1.1717 -1.0286 -1.7688
  175SAPI  H18Y19968   3.405   1.111  15.360 -1.0649 -1.5013  0.4206
  175SAPI  H18Z19969   3.338   1.214  15.482  1.3261 -0.7166 -0.1295
  176SAPI   C1219970   1.421   1.405  15.083  0.2871 -0.1730  0.0450
  176SAPI    H219971   1.438   1.491  15.015 -0.4115  0.3928  0.5761
  176SAPI    O219972   1.282   1.408  15.120 -0.0874 -0.6951  0.4181
  176SAPI   HO219973   1.279   1.493  15.165  2.6280 -1.5556  2.5309
  176SAPI   C1319974   1.441   1.280  15.003 -0.0576  0.3321  0.2480
  176SAPI    H319975   1.544   1.288  14.963  0.1270 -1.0720  0.3967
  176SAPI    O319976   1.354   1.259  14.887  0.1922  0.1297  0.7425
  176SAPI   HO319977   1.263   1.246  14.913 -0.3183 -2.1098 -1.7994
  176SAPI   C1419978   1.459   1.147  15.084 -0.5150  0.2041 -0.3784
  176SAPI    H419979   1.356   1.105  15.091 -0.0657 -1.4144 -2.4951
  176SAPI    O419980   1.541   1.053  15.011  0.0615 -0.0437 -0.0175
  176SAPI   HO419981   1.627   1.096  15.002 -2.0079  4.7615 -0.1837
  176SAPI   C1519982   1.506   1.166  15.226  0.5506 -0.3715  0.1521
  176SAPI    H519983   1.616   1.165  15.214  0.2441  0.8594 -4.6477
  176SAPI    O519984   1.461   1.063  15.309 -0.1883  0.0217 -0.4200
  176SAPI   HO519985   1.369   1.082  15.325 -0.3069 -1.9544  1.8205
  176SAPI   C1619986   1.476   1.299  15.295  0.6675 -0.0800  0.1885
  176SAPI    H619987   1.372   1.305  15.332  1.0146 -0.8995  1.3380
  176SAPI    O619988   1.552   1.309  15.415  0.1592  0.1713 -0.1274
  176SAPI   HO619989   1.645   1.321  15.392  1.1332 -1.0249  2.6572
  176SAPI   C1119990   1.508   1.416  15.205  0.8701 -1.2496 -0.1868
  176SAPI    H119991   1.614   1.406  15.175  0.4676 -2.7481 -1.1927
  176SAPI     P19992   1.582   1.680  15.237  0.1319  0.3279  0.1644
  176SAPI   O1319993   1.488   1.784  15.194 -0.3826 -0.3903  0.1856
  176SAPI   O1419994   1.698   1.639  15.157  0.1548  0.3828 -0.2975
  176SAPI   O1219995   1.493   1.544  15.276 -0.2022 -0.1539 -0.0652
  176SAPI   O1119996   1.637   1.734  15.377 -0.3891  0.3479 -0.0901
  176SAPI    C119997   1.706   1.650  15.476  0.3538 -0.0222 -0.4775
  176SAPI    HA19998   1.630   1.613  15.548  0.9596  1.9334  1.2766
  176SAPI    HB19999   1.751   1.561  15.428  0.1973 -1.1257  1.3375
  176SAPI    C220000   1.808   1.732  15.555 -0.2871  0.6269  0.0411
  176SAPI    HS20001   1.754   1.822  15.590  1.7695  2.0753 -0.3228
  176SAPI   O2120002   1.918   1.765  15.469 -0.2217 -0.1896  0.4980
  176SAPI   C2120003   1.967   1.893  15.489  0.0576 -0.2866  0.1264
  176SAPI   O2220004   1.925   1.968  15.575 -0.0806 -0.1053  0.0087
  176SAPI   C2220005   2.076   1.915  15.386 -0.2402 -0.2196  0.3930
  176SAPI   H2R20006   2.122   1.818  15.360 -0.8720 -0.8464  1.5372
  176SAPI   H2S20007   2.029   1.925  15.286  0.8808 -1.3617 -0.2676
  176SAPI    C320008   1.863   1.656  15.679  0.1923  0.9927 -0.1486
  176SAPI    HX20009   1.911   1.564  15.639  1.0728  1.0634  0.6965
  176SAPI    HY20010   1.781   1.632  15.750 -0.4613 -0.1618 -1.2672
  176SAPI   O3120011   1.964   1.735  15.753 -0.0329 -0.0552 -0.2777
  176SAPI   C3120012   2.046   1.668  15.838  0.4576 -0.2128 -0.1634
  176SAPI   O3220013   2.027   1.555  15.876 -0.0663 -0.0602  0.5675
  176SAPI   C3220014   2.147   1.769  15.908  0.2034 -0.0114  0.1147
  176SAPI   H2X20015   2.128   1.758  16.017 -0.1019  0.6465  0.1321
  176SAPI   H2Y20016   2.110   1.870  15.882 -1.9935 -0.8944 -0.3973
  176SAPI   C2320017   2.167   2.035  15.414  0.0745  0.5369 -0.1306
  176SAPI   H3R20018   2.108   2.127  15.433  0.6858  1.1370 -1.0349
  176SAPI   H3S20019   2.235   2.060  15.329  1.1545  2.0683  1.1294
  176SAPI   C2420020   2.253   2.032  15.543 -0.2777 -0.7905 -0.4969
  176SAPI   H4R20021   2.296   1.929  15.548  1.4706 -0.0523  1.2732
  176SAPI   H4S20022   2.186   2.035  15.632  0.2751 -0.9335 -0.0704
  176SAPI   C2520023   2.349   2.148  15.556 -0.8675 -0.0005 -0.6036
  176SAPI   H5R20024   2.309   2.250  15.556 -0.4664  0.1687 -1.6876
  176SAPI   C2620025   2.484   2.134  15.548  0.3042 -0.3753  0.0783
  176SAPI   H6R20026   2.544   2.226  15.560  1.1150 -0.5703 -2.0675
  176SAPI   C2720027   2.561   2.004  15.524 -0.4026 -0.3689  0.6400
  176SAPI   H7R20028   2.648   2.023  15.457 -0.3333 -2.9405 -0.0879
  176SAPI   H7S20029   2.498   1.925  15.479  1.0256 -1.6892  0.8669
  176SAPI   C2820030   2.620   1.948  15.653 -0.1658  0.0550 -0.0821
  176SAPI   H8R20031   2.557   1.864  15.687 -1.6134  1.6588  1.4443
  176SAPI   C2920032   2.746   1.962  15.702  0.1629  0.5202 -0.3191
  176SAPI   H9R20033   2.756   1.910  15.798 -1.5418  3.0159  1.2986
  176SAPI  C21020034   2.853   2.050  15.655  0.3969  0.7575 -0.1365
  176SAPI  H10R20035   2.861   2.121  15.741 -0.0093  0.3747  0.2210
  176SAPI  H10S20036   2.829   2.116  15.569  1.0521  0.2167 -0.7466
  176SAPI  C21120037   2.986   1.984  15.627 -0.5827  0.5061  0.8634
  176SAPI  H11R20038   2.984   1.901  15.556  0.0312  1.2368 -0.0425
  176SAPI  C21220039   3.112   2.032  15.657 -0.0720  0.4822  0.1876
  176SAPI  H12R20040   3.197   1.964  15.645  0.2558  0.8245  0.5629
  176SAPI  C21320041   3.144   2.149  15.746 -0.4732  0.0363  0.0636
  176SAPI  H13R20042   3.065   2.160  15.823  2.1422 -0.3003  2.9461
  176SAPI  H13S20043   3.148   2.238  15.679  1.9310  0.5244  0.7541
  176SAPI  C21420044   3.276   2.134  15.829  0.2116  0.5622 -1.1598
  176SAPI  H14R20045   3.254   2.055  15.903 -0.4443  1.3174 -0.5390
  176SAPI  C21520046   3.386   2.203  15.824 -1.1805  0.4411  0.5795
  176SAPI  H15R20047   3.463   2.184  15.900 -1.6482  1.2832  1.2822
  176SAPI  C21620048   3.413   2.307  15.715  0.6510 -0.5848 -0.3998
  176SAPI  H16R20049   3.405   2.401  15.774 -1.4880 -1.3835  0.6913
  176SAPI  H16S20050   3.326   2.329  15.649  1.5365  3.3980 -0.4699
  176SAPI  C21720051   3.541   2.297  15.634  0.0563  0.4539 -0.0948
  176SAPI  H17R20052   3.630   2.267  15.694  1.5803  0.5042 -2.2277
  176SAPI  H17S20053   3.570   2.401  15.606 -0.1917  0.3792 -0.6416
  176SAPI  C21820054   3.539   2.216  15.496 -0.5134  0.2496 -0.4402
  176SAPI  H18R20055   3.631   2.255  15.448  0.8771 -0.7718  1.2648
  176SAPI  H18S20056   3.454   2.249  15.432 -0.6353 -1.6308 -1.3409
  176SAPI  C21920057   3.562   2.064  15.493  0.6592  0.5786 -0.0707
  176SAPI  H19R20058   3.572   2.025  15.389 -0.7252 -0.9438  0.3210
  176SAPI  H19S20059   3.475   2.007  15.532  0.1291 -0.0324 -2.0251
  176SAPI  C22020060   3.684   2.015  15.571  0.1872 -0.3957 -0.2787
  176SAPI  H20R20061   3.775   2.058  15.523  0.2277  0.8987  0.8808
  176SAPI  H20S20062   3.689   1.905  15.555  2.7183 -0.0415 -2.7001
  176SAPI  H20T20063   3.678   2.047  15.677 -2.1882 -0.0482 -0.4693
  176SAPI   C3320064   2.294   1.741  15.868  0.2448 -0.2731 -0.5409
  176SAPI   H3X20065   2.314   1.769  15.762 -2.3537  1.3627 -0.6794
  176SAPI   H3Y20066   2.328   1.640  15.898 -2.8036 -1.6344 -1.2824
  176SAPI   C3420067   2.393   1.820  15.953 -0.5145 -0.6311 -0.3707
  176SAPI   H4X20068   2.493   1.795  15.911 -0.4074  0.3801 -0.7332
  176SAPI   H4Y20069   2.379   1.795  16.060  0.4522  0.3006 -0.0136
  176SAPI   C3520070   2.368   1.974  15.953  1.1095 -0.6817 -0.6074
  176SAPI   H5X20071   2.260   1.981  15.980  1.3004 -2.7093  0.8841
  176SAPI   H5Y20072   2.375   2.030  15.857 -2.5973  0.7409 -0.2333
  176SAPI   C3620073   2.455   2.051  16.059  0.2686 -0.6767  0.3546
  176SAPI   H6X20074   2.563   2.043  16.033  0.7690 -0.5967  2.2482
  176SAPI   H6Y20075   2.437   2.000  16.156  4.2667  0.1884  1.7689
  176SAPI   C3720076   2.419   2.200  16.068 -0.0630 -0.3002  0.8261
  176SAPI   H7X20077   2.478   2.253  16.146  1.3727  0.2504 -0.5933
  176SAPI   H7Y20078   2.313   2.216  16.100 -0.7976  2.2914 -2.3357
  176SAPI   C3820079   2.456   2.272  15.932 -0.2387  0.1505 -0.5137
  176SAPI   H8X20080   2.369   2.262  15.864 -0.4188 -0.5058 -0.1883
  176SAPI   H8Y20081   2.539   2.221  15.879  0.6215  0.9669  0.0099
  176SAPI   C3920082   2.497   2.418  15.951 -0.0470 -0.2573 -0.3456
  176SAPI   H9X20083   2.595   2.418  16.003  0.3193 -2.5603 -0.9282
  176SAPI   H9Y20084   2.427   2.468  16.022 -0.1603  0.4405 -0.9329
  176SAPI  C31020085   2.514   2.498  15.820 -0.3613 -0.4506 -0.3450
  176SAPI  H10X20086   2.445   2.585  15.823  0.3573  0.1830 -1.3339
  176SAPI  H10Y20087   2.479   2.436  15.735  0.6425 -3.3734  1.2211
  176SAPI  C31120088   2.663   2.540  15.789 -0.6090  0.3741 -0.1849
  176SAPI  H11X20089   2.705   2.611  15.864 -0.2725  2.8198 -2.5510
  176SAPI  H11Y20090   2.662   2.596  15.693  0.8665  2.0723  0.7150
  176SAPI  C31220091   2.745   2.416  15.778 -0.4483 -0.3506  0.1367
  176SAPI  H12X20092   2.714   2.360  15.687  0.8938  0.6858 -0.9991
  176SAPI  H12Y20093   2.732   2.344  15.862 -1.0087  0.0033  0.3613
  176SAPI  C31320094   2.890   2.447  15.750  0.1074 -0.6670  0.2629
  176SAPI  H13X20095   2.890   2.541  15.692 -1.9917 -0.1408  1.0523
  176SAPI  H13Y20096   2.946   2.362  15.704 -0.9480 -0.4724 -1.5012
  176SAPI  C31420097   2.966   2.479  15.883  0.5319 -0.0957  0.3024
  176SAPI  H14X20098   2.981   2.385  15.939  2.2339 -0.0184  0.0432
  176SAPI  H14Y20099   2.906   2.549  15.944 -1.1978  1.0646 -2.4990
  176SAPI  C31520100   3.107   2.533  15.863 -0.1838  0.0261 -0.7162
  176SAPI  H15X20101   3.098   2.617  15.791  0.5444  1.1488  0.4633
  176SAPI  H15Y20102   3.175   2.455  15.822 -1.7370 -2.5690  1.3071
  176SAPI  C31620103   3.167   2.586  15.990  0.5277  0.4884  0.3735
  176SAPI  H16X20104   3.178   2.511  16.072 -1.0756 -1.4383 -1.0789
  176SAPI  H16Y20105   3.103   2.657  16.046 -1.3764 -1.5248  0.8994
  176SAPI  C31720106   3.301   2.656  15.960 -1.0041 -0.2565  0.6243
  176SAPI  H17X20107   3.286   2.714  15.866 -0.2420 -1.9570 -0.5996
  176SAPI  H17Y20108   3.363   2.572  15.922 -0.9629 -2.1726  4.4502
  176SAPI  C31820109   3.357   2.723  16.082 -0.5268 -0.4376  0.0546
  176SAPI  H18X20110   3.281   2.781  16.139 -0.1951 -0.3361  0.3986
  176SAPI  H18Y20111   3.446   2.787  16.069  0.7758 -1.7221  2.0691
  176SAPI  H18Z20112   3.381   2.643  16.154 -1.9026 -2.1704 -1.3064
  177SLPC     N20113   1.438   3.212  27.463  0.8264  0.6953 -0.4667
  177SLPC   C1320114   1.567   3.212  27.535  0.1570  0.0769 -0.3848
  177SLPC  H13A20115   1.556   3.199  27.641  1.2482  1.3012 -0.0897
  177SLPC  H13B20116   1.621   3.120  27.519 -1.0919 -1.3750  2.8674
  177SLPC  H13C20117   1.625   3.301  27.513  0.1119  0.4681  0.9749
  177SLPC   C1420118   1.367   3.350  27.457  0.2738  0.4277 -0.5869
  177SLPC  H14A20119   1.432   3.436  27.456 -0.0731  0.7197  0.4273
  177SLPC  H14B20120   1.314   3.353  27.363 -2.5712  2.0824  0.9657
  177SLPC  H14C20121   1.289   3.372  27.528  1.1188  1.0049  0.1807
  177SLPC   C1520122   1.352   3.116  27.533 -0.4092  0.4894 -0.1635
  177SLPC  H15A20123   1.260   3.103  27.479  0.0852 -1.1555 -0.6698
  177SLPC  H15B20124   1.394   3.017  27.536 -0.5262  0.4121 -0.9133
  177SLPC  H15C20125   1.332   3.159  27.631 -0.5264  0.6658 -0.2635
  177SLPC   C1220126   1.462   3.168  27.323  0.3968 -0.0376  0.0956
  177SLPC  H12A20127   1.519   3.078  27.337  1.4515  0.9985  3.4356
  177SLPC  H12B20128   1.524   3.239  27.270 -0.0683 -0.2540 -0.7662
  177SLPC   C1120129   1.343   3.166  27.217  1.0364  0.4535 -0.0029
  177SLPC  H11A20130   1.254   3.120  27.265  0.4390  1.1116 -0.4708
  177SLPC  H11B20131   1.381   3.105  27.133 -1.7087 -0.8250 -0.4082
  177SLPC     P20132   1.235   3.329  27.046 -0.3206 -0.1183 -1.0144
  177SLPC   O1320133   1.194   3.211  26.978  0.2838  0.4990  0.3707
  177SLPC   O1420134   1.131   3.430  27.075  0.2285  0.0125  0.5362
  177SLPC   O1220135   1.312   3.294  27.180  1.0641 -0.0304 -0.5878
  177SLPC   O1120136   1.343   3.394  26.963 -0.1228 -0.2554 -0.2792
  177SLPC    C120137   1.479   3.406  27.005 -0.2170 -0.7911 -0.6214
  177SLPC    HA20138   1.490   3.488  27.079  2.0885 -1.0041 -0.6664
  177SLPC    HB20139   1.526   3.310  27.036  1.5224  0.0687 -0.4556
  177SLPC    C220140   1.564   3.452  26.883 -0.8480 -0.3862  0.1962
  177SLPC    HS20141   1.539   3.555  26.850  2.0472  0.7317  1.1930
  177SLPC   O2120142   1.556   3.365  26.768  0.7074  0.2126 -0.0314
  177SLPC   C2120143   1.469   3.400  26.676  0.4578  0.6408  0.4816
  177SLPC   O2220144   1.386   3.492  26.691 -0.1308 -0.1814 -0.6511
  177SLPC   C2220145   1.500   3.321  26.541  0.0247 -0.9112  0.1380
  177SLPC   H2R20146   1.605   3.351  26.524 -0.1363 -0.2115  0.3735
  177SLPC   H2S20147   1.489   3.212  26.559 -0.8024 -0.8273  0.1683
  177SLPC    C320148   1.718   3.463  26.921 -0.9657  0.6152  0.2081
  177SLPC    HX20149   1.752   3.366  26.964  3.0440  1.9553  0.4611
  177SLPC    HY20150   1.742   3.530  27.006  3.5469 -1.2865  0.7399
  177SLPC   O3120151   1.798   3.493  26.805  0.2397  0.4319 -0.6698
  177SLPC   C3120152   1.812   3.625  26.781  0.0382  0.2259  0.3589
  177SLPC   O3220153   1.784   3.713  26.863 -0.0487  0.0416  0.0110
  177SLPC   C3220154   1.889   3.644  26.657  0.8337 -0.7827  0.8852
  177SLPC   H2X20155   1.897   3.547  26.601 -0.7035 -0.7157  0.4863
  177SLPC   H2Y20156   1.989   3.666  26.697  1.7830 -1.9810 -0.6811
  177SLPC   C2320157   1.398   3.362  26.431  0.0177 -0.2304 -0.3002
  177SLPC   H3R20158   1.415   3.470  26.411  2.2982 -0.4425  0.2176
  177SLPC   H3S20159   1.296   3.344  26.473  1.1276 -0.2274  2.6309
  177SLPC   C2420160   1.423   3.283  26.303  0.2973 -0.7164 -0.4421
  177SLPC   H4R20161   1.368   3.314  26.211 -0.0749 -0.5957 -0.1848
  177SLPC   H4S20162   1.384   3.180  26.322 -1.0918  0.0098  0.9722
  177SLPC   C2520163   1.562   3.279  26.258  0.7418  0.8306 -0.1918
  177SLPC   H5R20164   1.594   3.174  26.273 -1.4702  0.3227  1.4278
  177SLPC   H5S20165   1.627   3.351  26.314  0.0497  0.3087  1.3369
  177SLPC   C2620166   1.575   3.317  26.107 -0.1765 -0.8485  0.8494
  177SLPC   H6R20167   1.530   3.417  26.092 -4.0642 -2.7601 -1.6940
  177SLPC   H6S20168   1.509   3.250  26.048 -2.2851  2.5159 -0.8785
  177SLPC   C2720169   1.711   3.305  26.036 -0.3069 -0.0475  0.0943
  177SLPC   H7R20170   1.770   3.395  26.063 -0.5441  1.0721 -2.8273
  177SLPC   H7S20171   1.687   3.316  25.928 -1.1287 -2.0898  0.0108
  177SLPC   C2820172   1.779   3.165  26.049  0.1564 -0.1864 -0.1853
  177SLPC   H8R20173   1.785   3.138  26.157 -0.0202 -1.4320 -0.4705
  177SLPC   H8S20174   1.882   3.160  26.008  1.4518 -1.7628  2.9219
  177SLPC   C2920175   1.690   3.068  25.977  0.0834 -0.2815  0.4996
  177SLPC   H9R20176   1.611   3.021  26.038  0.3031 -1.7936 -0.3283
  177SLPC  C21020177   1.704   3.031  25.850 -0.3479  0.1302  0.3028
  177SLPC  H10R20178   1.630   2.959  25.812 -0.3818  0.5038 -0.3621
  177SLPC  C21120179   1.798   3.080  25.741 -0.1846  0.1251  0.0104
  177SLPC  H11R20180   1.729   3.151  25.690 -2.3599 -2.4322 -0.8490
  177SLPC  H11S20181   1.888   3.136  25.774  0.2505  0.1022 -1.0755
  177SLPC  C21220182   1.838   2.985  25.635  0.0416 -0.5601 -0.4360
  177SLPC  H12R20183   1.941   2.948  25.637  0.9500  1.7744  1.4983
  177SLPC  C21320184   1.753   2.922  25.547  0.5996 -0.3751  0.3117
  177SLPC  H13R20185   1.790   2.850  25.473 -0.3344 -0.5391 -0.0045
  177SLPC  C21420186   1.608   2.960  25.526 -0.0385 -0.3131 -0.1939
  177SLPC  H14R20187   1.570   3.037  25.596  2.5119  1.2874 -0.4408
  177SLPC  H14S20188   1.552   2.866  25.547  1.0179 -0.8854  0.1391
  177SLPC  C21520189   1.564   3.007  25.385  0.0211 -0.0707 -0.2727
  177SLPC  H15R20190   1.627   3.096  25.367 -0.0083 -0.0767 -0.4049
  177SLPC  H15S20191   1.454   3.018  25.401  0.1127 -0.7227  0.9437
  177SLPC  C21620192   1.584   2.905  25.272 -0.1317  0.3969  0.5105
  177SLPC  H16R20193   1.518   2.816  25.280  1.1511 -0.9090 -2.1534
  177SLPC  H16S20194   1.687   2.865  25.279 -0.6598 -1.1672 -0.2958
  177SLPC  C21720195   1.565   2.957  25.129  0.0408  0.7012 -0.5043
  177SLPC  H17R20196   1.485   3.033  25.145 -0.3674  0.2962 -0.5992
  177SLPC  H17S20197   1.510   2.884  25.066 -0.1435  1.2024 -0.9268
  177SLPC  C21820198   1.681   3.015  25.053  0.2826 -0.3896 -0.0874
  177SLPC  H18R20199   1.761   2.943  25.025  1.8315  0.8612  0.9802
  177SLPC  H18S20200   1.722   3.098  25.113 -2.1956 -0.5457  1.9766
  177SLPC  H18T20201   1.654   3.049  24.950  1.3042  1.2311  0.1595
  177SLPC   C3320202   1.837   3.765  26.575 -0.3656 -0.4807 -0.0591
  177SLPC   H3X20203   1.919   3.820  26.523 -0.0764 -1.5841 -0.8136
  177SLPC   H3Y20204   1.798   3.847  26.640 -1.7827 -0.8060 -0.4654
  177SLPC   C3420205   1.739   3.727  26.458 -0.3756  0.0635 -0.3859
  177SLPC   H4X20206   1.660   3.661  26.499 -0.6520  0.6796  0.0989
  177SLPC   H4Y20207   1.808   3.667  26.395 -0.2250 -1.3039  1.0143
  177SLPC   C3520208   1.680   3.840  26.376  0.4189  0.1241  0.2397
  177SLPC   H5X20209   1.750   3.920  26.343  0.9920 -0.7618 -0.7739
  177SLPC   H5Y20210   1.610   3.887  26.449  1.0847 -0.3335  1.1978
  177SLPC   C3620211   1.598   3.773  26.258 -0.3255 -0.2067 -0.0641
  177SLPC   H6X20212   1.545   3.687  26.305  0.7303 -0.4989  0.6420
  177SLPC   H6Y20213   1.674   3.738  26.184  0.2580  0.8936 -0.0035
  177SLPC   C3720214   1.503   3.876  26.195  0.0365 -0.0358 -0.4460
  177SLPC   H7X20215   1.562   3.966  26.168  0.7634 -0.5461 -0.6021
  177SLPC   H7Y20216   1.424   3.905  26.267 -0.3499 -1.6437 -0.1809
  177SLPC   C3820217   1.448   3.824  26.066 -0.1940  0.5327  0.3815
  177SLPC   H8X20218   1.421   3.719  26.090  1.3838  0.2783  1.1426
  177SLPC   H8Y20219   1.515   3.827  25.977  0.5351  0.4432  0.9164
  177SLPC   C3920220   1.317   3.897  26.024  0.5214 -0.0858 -0.2508
  177SLPC   H9X20221   1.332   4.003  25.995 -1.7281 -0.3041 -2.4781
  177SLPC   H9Y20222   1.250   3.893  26.113 -1.3673  1.0694 -1.5535
  177SLPC  C31020223   1.252   3.832  25.902  0.3524 -0.0725 -0.0026
  177SLPC  H10X20224   1.156   3.888  25.900  0.9359  0.9632  0.4183
  177SLPC  H10Y20225   1.224   3.725  25.919  1.4748 -0.3436  0.2302
  177SLPC  C31120226   1.332   3.847  25.769 -0.2678  0.3197 -0.8415
  177SLPC  H11X20227   1.428   3.791  25.764  0.6909  1.8591 -0.2219
  177SLPC  H11Y20228   1.358   3.954  25.765  0.5022  0.3559  2.2223
  177SLPC  C31220229   1.247   3.817  25.643 -0.5619  0.2683 -0.1673
  177SLPC  H12X20230   1.215   3.711  25.639 -1.0136  0.4224 -0.8005
  177SLPC  H12Y20231   1.300   3.850  25.551 -3.8638  0.7184 -2.0712
  177SLPC  C31320232   1.121   3.902  25.629 -0.3959  0.2452 -0.3994
  177SLPC  H13X20233   1.152   4.006  25.653 -0.1004  0.2204 -0.6706
  177SLPC  H13Y20234   1.050   3.882  25.712  0.6497  1.0830  0.7322
  177SLPC  C31420235   1.051   3.875  25.494 -0.6462 -0.1608 -0.1414
  177SLPC  H14X20236   1.025   3.768  25.484 -1.5753  0.2029 -2.0867
  177SLPC  H14Y20237   1.110   3.903  25.403  1.2042 -0.8799  0.7888
  177SLPC  C31520238   0.925   3.958  25.479  0.4691  0.4553 -0.6113
  177SLPC  H15X20239   0.849   3.919  25.550 -0.2175  2.4059 -0.2199
  177SLPC  H15Y20240   0.889   3.948  25.375 -1.2560 -0.0926  0.0137
  177SLPC  C31620241   0.943   4.106  25.507  0.2069 -0.0973 -0.1263
  177SLPC  H16X20242   1.038   4.139  25.459 -0.1403 -0.5064 -1.1347
  177SLPC  H16Y20243   0.945   4.129  25.616  0.5200 -0.0793 -0.1348
  177SLPC  C31720244   0.834   4.196  25.440 -0.1408  0.1535  0.1425
  177SLPC  H17X20245   0.834   4.179  25.330  0.8822 -1.1898  0.3267
  177SLPC  H17Y20246   0.852   4.304  25.457 -0.4475  0.2290  0.0008
  177SLPC  C31820247   0.697   4.146  25.480 -0.1562 -0.0325  0.4256
  177SLPC  H18X20248   0.627   4.233  25.487  0.4346  0.5025 -0.2300
  177SLPC  H18Y20249   0.697   4.111  25.586  0.6103 -1.1410  0.0652
  177SLPC  H18Z20250   0.659   4.071  25.408 -1.1464 -0.1212  1.0218
  178SLPC     N20251   4.121   3.254  21.338 -0.1213 -0.0485  0.2065
  178SLPC   C1320252   4.048   3.365  21.407 -0.1316  0.0534  0.0041
  178SLPC  H13A20253   3.998   3.426  21.333 -0.4896  0.3682  0.4999
  178SLPC  H13B20254   3.971   3.321  21.470  0.1651 -1.8575 -0.8883
  178SLPC  H13C20255   4.101   3.434  21.471 -0.8654 -1.9125  2.9143
  178SLPC   C1420256   4.017   3.163  21.289 -0.4330  0.1909 -0.3127
  178SLPC  H14A20257   3.964   3.122  21.374  2.5436  0.9019  2.0637
  178SLPC  H14B20258   3.948   3.202  21.216 -2.3254  0.8902  1.7453
  178SLPC  H14C20259   4.059   3.082  21.232 -2.6539 -0.8129 -0.6437
  178SLPC   C1520260   4.207   3.173  21.437 -0.6425  0.5507  0.3069
  178SLPC  H15A20261   4.304   3.219  21.447 -1.0037  1.3375  0.2712
  178SLPC  H15B20262   4.164   3.148  21.533  1.0315  0.2295  0.9915
  178SLPC  H15C20263   4.229   3.078  21.391 -0.8158  0.1642  1.0100
  178SLPC   C1220264   4.203   3.310  21.222  0.5554  0.4900  0.2012
  178SLPC  H12A20265   4.261   3.397  21.251  1.4893 -0.1024  0.1549
  178SLPC  H12B20266   4.127   3.348  21.156 -1.5594 -0.0076  2.2252
  178SLPC   C1120267   4.292   3.211  21.153 -0.2660 -0.2082  0.0829
  178SLPC  H11A20268   4.322   3.253  21.054 -1.2268  1.4125  0.4515
  178SLPC  H11B20269   4.243   3.113  21.139 -1.6906  0.6894 -1.6070
  178SLPC     P20270   4.528   3.288  21.247 -0.3961 -0.3425 -0.3697
  178SLPC   O1320271   4.476   3.406  21.316  0.0960  0.0306 -0.0525
  178SLPC   O1420272   4.650   3.229  21.307 -0.4855  0.1369  0.1717
  178SLPC   O1220273   4.419   3.181  21.217 -0.4267 -0.1852 -0.0504
  178SLPC   O1120274   4.564   3.334  21.106 -0.0394 -0.5037  0.3440
  178SLPC    C120275   4.613   3.251  21.004 -0.2030 -0.3068  0.0086
  178SLPC    HA20276   4.677   3.171  21.046  0.9315  0.2368 -0.6448
  178SLPC    HB20277   4.530   3.206  20.945 -0.3146 -1.1429  0.7767
  178SLPC    C220278   4.707   3.340  20.914  0.5196 -0.4516 -0.1963
  178SLPC    HS20279   4.769   3.265  20.859  0.1058 -1.5797  0.8343
  178SLPC   O2120280   4.792   3.420  20.999  0.2304  0.1293 -1.2594
  178SLPC   C2120281   4.891   3.350  21.043 -0.5304  0.4505 -1.0809
  178SLPC   O2220282   4.919   3.233  21.019 -0.0014 -0.0595 -0.1439
  178SLPC   C2220283   4.956   3.419  21.158 -1.1564 -0.1800  0.4731
  178SLPC   H2R20284   4.980   3.522  21.125 -0.5812  0.2906  2.2937
  178SLPC   H2S20285   4.875   3.420  21.233 -2.3251 -0.3913 -0.7471
  178SLPC    C320286   4.627   3.432  20.815  0.1302  0.1818 -0.4793
  178SLPC    HX20287   4.709   3.490  20.769  1.3469 -1.2048 -0.1325
  178SLPC    HY20288   4.564   3.501  20.876  2.0112  0.1036  1.6908
  178SLPC   O3120289   4.543   3.356  20.726 -0.0741 -0.0225 -0.1438
  178SLPC   C3120290   4.539   3.407  20.594 -1.2593  0.3713  0.2993
  178SLPC   O3220291   4.591   3.511  20.563  1.0038 -0.8553  0.2577
  178SLPC   C3220292   4.460   3.323  20.492  0.1176 -0.5035  0.3013
  178SLPC   H2X20293   4.354   3.329  20.525 -0.0607 -1.6244 -0.0250
  178SLPC   H2Y20294   4.491   3.217  20.500 -1.2578 -1.0079 -0.5935
  178SLPC   C2320295   5.076   3.348  21.224  0.4261 -0.4052  0.5008
  178SLPC   H3R20296   5.157   3.311  21.158 -0.0011 -0.6241  0.0913
  178SLPC   H3S20297   5.038   3.252  21.265 -0.0647 -1.1130 -1.4908
  178SLPC   C2420298   5.145   3.434  21.339 -0.0924  0.1808 -0.4622
  178SLPC   H4R20299   5.066   3.460  21.413 -0.7980  0.7371 -1.3834
  178SLPC   H4S20300   5.198   3.527  21.307  0.9063 -0.3003 -0.2243
  178SLPC   C2520301   5.248   3.347  21.424  0.2363  0.3561  0.1037
  178SLPC   H5R20302   5.201   3.249  21.446 -0.5025  0.4006 -1.1811
  178SLPC   H5S20303   5.265   3.404  21.519  3.8156  0.7863 -0.6521
  178SLPC   C2620304   5.380   3.337  21.355 -0.3222  0.6042  0.4228
  178SLPC   H6R20305   5.412   3.442  21.336  1.1833  0.3543  1.3809
  178SLPC   H6S20306   5.378   3.287  21.256  1.6204  0.2774  0.5139
  178SLPC   C2720307   5.489   3.255  21.424  0.2437  0.3879  0.0682
  178SLPC   H7R20308   5.463   3.149  21.402 -0.0995  0.5880 -0.4922
  178SLPC   H7S20309   5.495   3.273  21.533 -4.2746 -0.0142  0.5742
  178SLPC   C2820310   5.633   3.260  21.363 -0.2596  0.1366 -0.2159
  178SLPC   H8R20311   5.616   3.221  21.260 -0.4125  0.8993 -0.4817
  178SLPC   H8S20312   5.692   3.184  21.419  2.8600  3.1333  0.8719
  178SLPC   C2920313   5.718   3.384  21.377 -0.0730 -0.6415  0.3517
  178SLPC   H9R20314   5.771   3.394  21.472  2.0071  1.4088 -0.9218
  178SLPC  C21020315   5.749   3.475  21.277  0.2760  0.4061 -0.2621
  178SLPC  H10R20316   5.815   3.560  21.301  0.7405 -0.2504  0.8719
  178SLPC  C21120317   5.698   3.461  21.137  0.0733 -0.2256 -0.4208
  178SLPC  H11R20318   5.690   3.559  21.086  0.8617 -0.0643 -0.2486
  178SLPC  H11S20319   5.599   3.412  21.133  0.8502 -2.0560  0.9521
  178SLPC  C21220320   5.801   3.385  21.055 -0.3842 -0.2470 -0.1934
  178SLPC  H12R20321   5.825   3.285  21.092  1.6532  0.0198 -0.6821
  178SLPC  C21320322   5.851   3.417  20.935  0.2696 -0.0659 -0.7314
  178SLPC  H13R20323   5.912   3.342  20.882  2.8004  1.1465  0.2942
  178SLPC  C21420324   5.821   3.542  20.853 -0.0320  0.4763 -0.5759
  178SLPC  H14R20325   5.815   3.636  20.913  3.5129 -0.3436  1.3515
  178SLPC  H14S20326   5.723   3.541  20.802 -1.1597  0.4926  1.4688
  178SLPC  C21520327   5.914   3.562  20.727  0.4109  0.0812  0.4230
  178SLPC  H15R20328   6.018   3.592  20.752 -0.3063  3.1696  0.0464
  178SLPC  H15S20329   5.869   3.647  20.672 -0.6505 -1.3887 -1.0774
  178SLPC  C21620330   5.920   3.451  20.619  0.3921 -0.7641 -0.1864
  178SLPC  H16R20331   5.825   3.437  20.563  0.3932  0.0044 -0.3886
  178SLPC  H16S20332   5.952   3.353  20.661  3.3903  0.1692 -0.0100
  178SLPC  C21720333   6.015   3.479  20.498  0.4360  0.2422 -0.0465
  178SLPC  H17R20334   6.121   3.496  20.527  0.2864  1.0606  0.0542
  178SLPC  H17S20335   5.982   3.576  20.456 -1.1793 -0.2788 -0.0217
  178SLPC  C21820336   5.993   3.383  20.383 -0.1029  0.1629  0.3586
  178SLPC  H18R20337   6.054   3.291  20.401  1.6227  1.4268  1.2820
  178SLPC  H18S20338   6.022   3.437  20.291 -0.7035  2.4011  1.4202
  178SLPC  H18T20339   5.884   3.370  20.366 -0.0893 -0.3122  0.6099
  178SLPC   C3320340   4.477   3.366  20.349  0.6889  0.3805  0.0105
  178SLPC   H3X20341   4.445   3.277  20.291 -0.9094 -0.2949  1.8492
  178SLPC   H3Y20342   4.582   3.388  20.321  0.2533  0.7894 -1.3957
  178SLPC   C3420343   4.378   3.474  20.310 -0.3835 -0.3837  0.8885
  178SLPC   H4X20344   4.410   3.564  20.367 -0.3516 -0.7363  1.4348
  178SLPC   H4Y20345   4.279   3.441  20.350 -0.8920  1.5306  1.3080
  178SLPC   C3520346   4.360   3.499  20.160 -0.7325 -0.0905  0.5898
  178SLPC   H5X20347   4.269   3.560  20.139 -0.5456  0.0480  0.1876
  178SLPC   H5Y20348   4.334   3.402  20.113 -2.5604  0.6448 -0.0259
  178SLPC   C3620349   4.480   3.561  20.086 -0.0013  0.1724  0.2592
  178SLPC   H6X20350   4.568   3.493  20.087 -0.8770 -0.9952  0.8253
  178SLPC   H6Y20351   4.513   3.659  20.125  1.0929  0.0315 -0.2703
  178SLPC   C3720352   4.435   3.578  19.939  0.0113  0.3044  1.1922
  178SLPC   H7X20353   4.350   3.650  19.944 -1.1326 -1.0141  1.1764
  178SLPC   H7Y20354   4.408   3.477  19.903  0.2382  1.1351 -1.5227
  178SLPC   C3820355   4.551   3.632  19.854 -0.1926 -0.2540  0.3001
  178SLPC   H8X20356   4.633   3.558  19.843 -0.0592  0.1341 -1.6032
  178SLPC   H8Y20357   4.592   3.720  19.907 -0.9694  0.5418 -0.4043
  178SLPC   C3920358   4.507   3.659  19.703 -0.4711  0.1868 -0.1904
  178SLPC   H9X20359   4.416   3.722  19.694 -0.9019 -0.6962 -3.4745
  178SLPC   H9Y20360   4.469   3.568  19.652 -1.6199  1.1914 -1.1810
  178SLPC  C31020361   4.619   3.708  19.611  0.0871 -0.3315  0.4105
  178SLPC  H10X20362   4.710   3.645  19.622  2.2595  2.6619  1.0440
  178SLPC  H10Y20363   4.652   3.798  19.668  1.0130 -1.0142  0.9814
  178SLPC  C31120364   4.584   3.764  19.478 -0.0392  0.6855 -0.2649
  178SLPC  H11X20365   4.668   3.811  19.422  0.9254 -1.1087 -0.4053
  178SLPC  H11Y20366   4.501   3.838  19.484 -0.2229  0.4469  0.2099
  178SLPC  C31220367   4.539   3.653  19.381 -0.0804  0.2712 -0.2556
  178SLPC  H12X20368   4.464   3.591  19.435 -0.6340  2.2052  1.3242
  178SLPC  H12Y20369   4.622   3.579  19.384 -0.0675  0.2934 -0.0634
  178SLPC  C31320370   4.500   3.691  19.239 -0.1615  0.2986 -0.1166
  178SLPC  H13X20371   4.589   3.739  19.194 -0.9667  1.0195 -0.9829
  178SLPC  H13Y20372   4.434   3.780  19.243  0.0261  0.4586 -0.5719
  178SLPC  C31420373   4.463   3.569  19.143 -0.3655  0.0555 -0.2957
  178SLPC  H14X20374   4.357   3.537  19.147 -0.9697  1.9132 -0.4376
  178SLPC  H14Y20375   4.529   3.483  19.169 -0.2821 -0.7596 -2.9596
  178SLPC  C31520376   4.495   3.589  18.996  0.0401  0.0885  0.5450
  178SLPC  H15X20377   4.459   3.687  18.957  1.1640  0.7120  1.0339
  178SLPC  H15Y20378   4.605   3.590  18.982 -0.1134  1.2522 -0.8211
  178SLPC  C31620379   4.435   3.463  18.923 -0.5388 -0.0836 -0.3344
  178SLPC  H16X20380   4.324   3.462  18.928 -0.5289 -1.0230 -0.1703
  178SLPC  H16Y20381   4.471   3.369  18.970 -0.0585  0.5217  0.5378
  178SLPC  C31720382   4.485   3.467  18.783  0.4349  0.0470 -0.4798
  178SLPC  H17X20383   4.474   3.364  18.742 -0.3268 -0.1255  0.1288
  178SLPC  H17Y20384   4.594   3.490  18.779  0.1954  1.3727  0.2067
  178SLPC  C31820385   4.399   3.556  18.699  0.2886  0.1253  0.7094
  178SLPC  H18X20386   4.436   3.560  18.595 -0.4576  0.2090  0.4433
  178SLPC  H18Y20387   4.398   3.658  18.744 -2.0320 -0.1928  1.5073
  178SLPC  H18Z20388   4.294   3.521  18.696  1.1808 -2.9564  1.7664
  179SLPC     N20389   4.345   3.494  21.931  0.1189  0.5410  0.9643
  179SLPC   C1320390   4.417   3.367  21.959  0.4645 -0.1305  0.1206
  179SLPC  H13A20391   4.437   3.314  21.867 -1.3641 -1.8740  0.6554
  179SLPC  H13B20392   4.513   3.383  22.006  0.1533 -0.0017  0.7198
  179SLPC  H13C20393   4.367   3.306  22.033 -0.5218  1.6000  0.9186
  179SLPC   C1420394   4.221   3.460  21.866  0.2960  0.0325  0.3770
  179SLPC  H14A20395   4.237   3.432  21.763 -0.0604  0.7623  0.1156
  179SLPC  H14B20396   4.152   3.390  21.911  2.2763 -1.7789  0.7763
  179SLPC  H14C20397   4.166   3.551  21.847  0.6776  0.5343  1.5842
  179SLPC   C1520398   4.427   3.593  21.840  0.0500  0.6858 -0.5562
  179SLPC  H15A20399   4.516   3.618  21.896  1.6374 -2.1299 -1.6207
  179SLPC  H15B20400   4.444   3.554  21.741  1.3280 -0.3948  0.0619
  179SLPC  H15C20401   4.369   3.683  21.825 -1.3215  0.1171  0.9189
  179SLPC   C1220402   4.313   3.563  22.063  0.1275 -0.2307 -0.2451
  179SLPC  H12A20403   4.251   3.493  22.118 -1.1002  0.3428 -0.8737
  179SLPC  H12B20404   4.237   3.638  22.046 -1.8696 -2.1060 -0.0687
  179SLPC   C1120405   4.429   3.609  22.161 -1.0821 -0.4119 -0.4147
  179SLPC  H11A20406   4.474   3.520  22.210  0.8151  0.4911 -0.4363
  179SLPC  H11B20407   4.391   3.681  22.237 -0.9303 -2.3506  1.6114
  179SLPC     P20408   4.688   3.656  22.098  0.5156  0.7420 -0.0230
  179SLPC   O1320409   4.725   3.597  22.231  0.3884 -0.1029  0.1929
  179SLPC   O1420410   4.723   3.578  21.974  0.3285  0.4271 -0.3582
  179SLPC   O1220411   4.531   3.679  22.089  0.3052 -0.1396 -0.9628
  179SLPC   O1120412   4.752   3.799  22.095  0.5038 -0.3901  0.3084
  179SLPC    C120413   4.766   3.873  21.976 -0.9670  1.1897 -0.1004
  179SLPC    HA20414   4.688   3.843  21.902  0.3971  0.2341 -1.2059
  179SLPC    HB20415   4.763   3.979  22.007  1.9520  1.5202 -0.7192
  179SLPC    C220416   4.906   3.852  21.918  0.3332  0.1822 -0.1419
  179SLPC    HS20417   4.925   3.748  21.885  1.7602  0.3371  0.1095
  179SLPC   O2120418   5.005   3.884  22.019 -0.0153 -0.2245 -0.8188
  179SLPC   C2120419   5.121   3.816  22.036 -0.0361 -0.1420  0.5679
  179SLPC   O2220420   5.153   3.717  21.979  0.7515 -0.0165  0.0557
  179SLPC   C2220421   5.207   3.900  22.122 -1.2124 -0.0947 -0.0887
  179SLPC   H2R20422   5.261   3.971  22.057  0.7352 -0.4333  1.0862
  179SLPC   H2S20423   5.139   3.960  22.186 -0.4267 -1.1466  1.8023
  179SLPC    C320424   4.927   3.937  21.790 -0.3565 -1.0537 -0.3661
  179SLPC    HX20425   4.937   4.041  21.829  1.0677 -2.3136  3.0297
  179SLPC    HY20426   4.844   3.930  21.717  0.4442 -0.1444 -1.3901
  179SLPC   O3120427   5.053   3.915  21.733 -0.2916 -0.4104  0.1276
  179SLPC   C3120428   5.064   3.816  21.646 -0.0543  0.1131 -0.3596
  179SLPC   O3220429   4.974   3.729  21.629  0.3586 -0.4512  0.4283
  179SLPC   C3220430   5.200   3.807  21.586 -0.0929  0.1352  0.4801
  179SLPC   H2X20431   5.245   3.909  21.589  0.5437 -0.1237 -0.1665
  179SLPC   H2Y20432   5.192   3.783  21.478  2.6353  0.2910  0.1807
  179SLPC   C2320433   5.322   3.826  22.197 -1.0728  0.2796  0.1939
  179SLPC   H3R20434   5.302   3.717  22.196  0.1522  0.0429  0.5058
  179SLPC   H3S20435   5.307   3.859  22.302 -0.5632  1.7835 -0.1801
  179SLPC   C2420436   5.468   3.844  22.150  0.1267 -0.2719 -0.1927
  179SLPC   H4R20437   5.494   3.793  22.055  0.5877  0.1573 -0.2997
  179SLPC   H4S20438   5.543   3.795  22.215  1.5525 -0.7428 -2.1029
  179SLPC   C2520439   5.524   3.988  22.132  0.1412 -0.3341 -0.3684
  179SLPC   H5R20440   5.448   4.045  22.191 -0.1601 -3.2764  2.4204
  179SLPC   H5S20441   5.492   4.008  22.028 -0.6521  0.5175  0.0185
  179SLPC   C2620442   5.675   4.014  22.151  0.2638  0.6719 -0.2905
  179SLPC   H6R20443   5.688   4.048  22.256 -0.0629  1.6242 -0.5484
  179SLPC   H6S20444   5.695   4.100  22.083  0.2994  1.9704  1.3145
  179SLPC   C2720445   5.779   3.902  22.117 -0.2044  0.9716  0.2271
  179SLPC   H7R20446   5.752   3.811  22.175  0.1221  0.1090 -0.9325
  179SLPC   H7S20447   5.875   3.945  22.152 -1.3828  4.3851 -0.3394
  179SLPC   C2820448   5.792   3.865  21.966 -0.4420 -1.2829  0.9115
  179SLPC   H8R20449   5.687   3.845  21.936 -0.6908  1.0178  0.0127
  179SLPC   H8S20450   5.826   3.759  21.967 -0.6636 -1.3543  1.8322
  179SLPC   C2920451   5.871   3.943  21.852  0.6592 -0.4675 -0.6839
  179SLPC   H9R20452   5.811   3.980  21.768 -0.5553  0.5043  0.5689
  179SLPC  C21020453   5.998   3.969  21.866 -0.3303 -0.5474  0.2515
  179SLPC  H10R20454   6.038   4.034  21.787  1.2051 -2.3142 -0.5061
  179SLPC  C21120455   6.098   3.937  21.975  0.4973  0.5338  0.2933
  179SLPC  H11R20456   6.182   3.888  21.922 -0.7590  1.3120 -2.5843
  179SLPC  H11S20457   6.063   3.857  22.044  1.1605  0.6478  0.7731
  179SLPC  C21220458   6.143   4.055  22.061  0.4451  0.7487 -0.0659
  179SLPC  H12R20459   6.081   4.065  22.151  0.4672 -0.8738  0.1576
  179SLPC  C21320460   6.240   4.145  22.028 -0.2583  0.1630  0.5954
  179SLPC  H13R20461   6.257   4.229  22.097 -2.5666  2.6069 -1.5615
  179SLPC  C21420462   6.308   4.163  21.898 -0.0694  0.1316  0.5460
  179SLPC  H14R20463   6.328   4.266  21.861  1.5830 -0.2076  0.3732
  179SLPC  H14S20464   6.249   4.122  21.813  0.0236 -1.9113  1.4126
  179SLPC  C21520465   6.442   4.084  21.905  0.1397 -0.9767 -0.6203
  179SLPC  H15R20466   6.492   4.075  21.806  1.0636  1.5275 -0.4663
  179SLPC  H15S20467   6.440   3.985  21.956  1.5100 -0.1319  1.1946
  179SLPC  C21620468   6.548   4.166  21.994  0.1102 -0.5792 -0.2720
  179SLPC  H16R20469   6.504   4.176  22.096  0.5717  5.0084 -0.3321
  179SLPC  H16S20470   6.568   4.268  21.954  1.4709 -1.0720 -0.8925
  179SLPC  C21720471   6.690   4.105  22.010 -0.1296  0.2651  0.0030
  179SLPC  H17R20472   6.681   3.997  22.034 -0.5586 -0.3138 -2.4339
  179SLPC  H17S20473   6.753   4.153  22.087 -2.3305 -0.3363  2.2994
  179SLPC  C21820474   6.773   4.113  21.884 -0.4262 -0.0660  0.1466
  179SLPC  H18R20475   6.783   4.214  21.840  1.2412 -1.3604 -2.6668
  179SLPC  H18S20476   6.742   4.042  21.804  1.0969  0.1870 -0.7077
  179SLPC  H18T20477   6.877   4.084  21.912 -0.2986  0.7091  0.4965
  179SLPC   C3320478   5.303   3.708  21.642 -0.2413 -0.1966  0.2612
  179SLPC   H3X20479   5.263   3.605  21.648 -0.6275 -0.1856 -1.6241
  179SLPC   H3Y20480   5.339   3.750  21.738  0.7402 -1.6690  0.5776
  179SLPC   C3420481   5.423   3.687  21.539  0.1898 -0.0566 -0.4776
  179SLPC   H4X20482   5.379   3.679  21.437 -1.2072  0.8850  0.0147
  179SLPC   H4Y20483   5.478   3.594  21.565  1.8843  0.7436 -1.0621
  179SLPC   C3520484   5.520   3.804  21.526  0.1772 -0.1167  0.1924
  179SLPC   H5X20485   5.548   3.837  21.629 -1.3658 -1.9298  1.2718
  179SLPC   H5Y20486   5.455   3.888  21.495 -1.2713 -0.9705  0.8173
  179SLPC   C3620487   5.641   3.780  21.433  0.3602  0.1924  0.5726
  179SLPC   H6X20488   5.607   3.777  21.327  1.5654 -0.0199  0.1713
  179SLPC   H6Y20489   5.689   3.681  21.448  0.4123 -0.1327 -1.4026
  179SLPC   C3720490   5.749   3.884  21.451  0.1226 -0.3154 -0.1910
  179SLPC   H7X20491   5.794   3.881  21.552  2.7174 -0.1001 -1.2688
  179SLPC   H7Y20492   5.693   3.980  21.440 -0.1108 -0.4401 -0.1074
  179SLPC   C3820493   5.866   3.883  21.350  0.7330 -1.2699  1.1673
  179SLPC   H8X20494   5.909   3.986  21.344 -2.7834  0.3052  0.1286
  179SLPC   H8Y20495   5.831   3.865  21.247  0.3840  1.6086  0.6780
  179SLPC   C3920496   5.981   3.785  21.382  0.3751  0.1846  0.6346
  179SLPC   H9X20497   5.951   3.680  21.360  3.5578 -0.7962  0.4692
  179SLPC   H9Y20498   5.985   3.785  21.493 -1.0761  3.4124  0.7839
  179SLPC  C31020499   6.106   3.813  21.300  0.6231 -0.7411  0.5995
  179SLPC  H10X20500   6.203   3.778  21.340  1.7841 -0.4307 -1.7878
  179SLPC  H10Y20501   6.117   3.923  21.291  3.1819 -0.9427  0.7488
  179SLPC  C31120502   6.096   3.759  21.158 -0.4597  0.3009  0.2356
  179SLPC  H11X20503   6.014   3.806  21.100  0.5847  2.5061  0.4378
  179SLPC  H11Y20504   6.058   3.655  21.164  1.7258 -0.4990  1.0203
  179SLPC  C31220505   6.231   3.767  21.075  0.3790 -0.0076  0.1621
  179SLPC  H12X20506   6.305   3.696  21.119  1.5708  1.6924  1.0202
  179SLPC  H12Y20507   6.269   3.871  21.082  0.1535  0.1827 -1.2010
  179SLPC  C31320508   6.207   3.742  20.929 -0.0809  0.0001  0.1832
  179SLPC  H13X20509   6.123   3.803  20.890  0.7208  1.5770  0.8227
  179SLPC  H13Y20510   6.195   3.634  20.905 -0.3001 -0.3343  1.7095
  179SLPC  C31420511   6.334   3.791  20.855 -0.3972  0.0249  0.1798
  179SLPC  H14X20512   6.422   3.755  20.913 -0.3048 -0.2448 -0.1297
  179SLPC  H14Y20513   6.334   3.902  20.862 -2.7114  0.3523 -2.8648
  179SLPC  C31520514   6.353   3.735  20.717  0.9152 -1.1940  0.1206
  179SLPC  H15X20515   6.249   3.741  20.678  1.2625 -0.3142 -0.7151
  179SLPC  H15Y20516   6.375   3.627  20.706 -0.8727 -1.4145 -1.9274
  179SLPC  C31620517   6.459   3.817  20.630 -0.5137  0.0165 -0.0959
  179SLPC  H16X20518   6.553   3.799  20.686 -1.3479  1.6320  1.9444
  179SLPC  H16Y20519   6.461   3.928  20.640  2.4788 -0.0350  0.7181
  179SLPC  C31720520   6.459   3.781  20.479  0.5320  0.3195 -0.0772
  179SLPC  H17X20521   6.555   3.821  20.439 -0.5259  1.4562 -1.5509
  179SLPC  H17Y20522   6.375   3.832  20.429 -2.2356 -2.9604  0.8729
  179SLPC  C31820523   6.441   3.629  20.468 -0.6405  0.2599  0.4392
  179SLPC  H18X20524   6.475   3.606  20.365  0.2667 -3.0922  1.3587
  179SLPC  H18Y20525   6.342   3.583  20.490 -0.5400  1.1250  3.0673
  179SLPC  H18Z20526   6.513   3.578  20.536 -0.4280  0.8562  0.6661
  180SLPC     N20527   3.056   3.612  27.110  0.3567 -0.3565  0.2360
  180SLPC   C1320528   2.936   3.519  27.133 -0.1718 -0.0135  0.0375
  180SLPC  H13A20529   2.959   3.414  27.120  3.4980  0.6291  0.2271
  180SLPC  H13B20530   2.905   3.529  27.236  1.4553  1.0450  0.4662
  180SLPC  H13C20531   2.858   3.556  27.068 -0.8000  2.9244  2.2806
  180SLPC   C1420532   3.115   3.598  26.975 -0.6566  0.0133 -0.9026
  180SLPC  H14A20533   3.054   3.654  26.906 -0.6926  0.9981 -0.0938
  180SLPC  H14B20534   3.211   3.646  26.979  0.3100 -1.8117 -1.1027
  180SLPC  H14C20535   3.128   3.495  26.944  0.7063 -0.0756 -0.1047
  180SLPC   C1520536   3.156   3.581  27.221  0.5347  0.2476 -0.6071
  180SLPC  H15A20537   3.106   3.595  27.315 -0.1162 -2.3640 -0.4768
  180SLPC  H15B20538   3.199   3.482  27.226  0.9100  0.4719  1.7824
  180SLPC  H15C20539   3.238   3.649  27.203  1.2536 -0.0305  1.3516
  180SLPC   C1220540   3.008   3.753  27.116 -0.1572 -0.0841 -0.3781
  180SLPC  H12A20541   2.938   3.759  27.198 -2.8388 -0.4245 -2.4903
  180SLPC  H12B20542   2.946   3.777  27.030  0.5801  1.1989 -0.5838
  180SLPC   C1120543   3.106   3.869  27.122 -0.0240 -0.4609 -0.3474
  180SLPC  H11A20544   3.168   3.870  27.214  0.0510  1.1793 -0.3978
  180SLPC  H11B20545   3.050   3.965  27.125  0.0471 -0.3765 -1.3550
  180SLPC     P20546   3.318   3.957  27.013  0.1699  0.4472  0.0661
  180SLPC   O1320547   3.309   4.060  27.116 -0.6958  0.5226  0.0331
  180SLPC   O1420548   3.427   3.858  27.038 -0.7289  0.7148 -0.0074
  180SLPC   O1220549   3.182   3.882  27.005  0.0551 -0.5836  0.0861
  180SLPC   O1120550   3.319   4.031  26.875  0.0674  0.4477  0.1553
  180SLPC    C120551   3.275   3.964  26.753 -0.2931 -0.1946 -0.7754
  180SLPC    HA20552   3.360   3.950  26.683  0.9312 -0.8608  0.7662
  180SLPC    HB20553   3.257   3.857  26.779  0.7568  0.2461  2.1914
  180SLPC    C220554   3.150   4.024  26.691 -0.2069  0.6722 -0.8319
  180SLPC    HS20555   3.122   3.962  26.603 -0.5758  0.2337 -0.4011
  180SLPC   O2120556   3.170   4.161  26.653  0.7599  0.1723  0.3866
  180SLPC   C2120557   3.219   4.176  26.529  0.1495  0.0298  0.4943
  180SLPC   O2220558   3.260   4.080  26.460  0.2642  0.1464 -0.0965
  180SLPC   C2220559   3.213   4.321  26.480 -0.2969  0.4217 -0.0862
  180SLPC   H2R20560   3.244   4.374  26.573  0.2044 -0.7509  0.4443
  180SLPC   H2S20561   3.282   4.343  26.396  1.1663 -1.1520  0.6379
  180SLPC    C320562   3.032   4.028  26.785  0.1315  0.4985  0.4502
  180SLPC    HX20563   3.053   4.095  26.871 -0.7002  2.6217 -0.9077
  180SLPC    HY20564   3.011   3.927  26.825  0.7069 -0.7051 -2.0615
  180SLPC   O3120565   2.918   4.088  26.725  0.4332  0.1385 -0.6055
  180SLPC   C3120566   2.837   4.012  26.661  0.3883 -0.0676  0.6205
  180SLPC   O3220567   2.857   3.894  26.635 -0.2627 -0.2086  0.0545
  180SLPC   C3220568   2.716   4.092  26.625  0.4825 -1.0475  0.5021
  180SLPC   H2X20569   2.744   4.172  26.553 -1.5950  1.3647  2.2122
  180SLPC   H2Y20570   2.699   4.147  26.720 -0.3947 -1.3687  0.5417
  180SLPC   C2320571   3.072   4.366  26.446  0.1387  0.1522  0.1862
  180SLPC   H3R20572   3.073   4.477  26.434 -1.8509  0.1864 -0.0890
  180SLPC   H3S20573   3.001   4.349  26.530  0.8202  0.1131  0.7573
  180SLPC   C2420574   3.018   4.302  26.318 -0.1940 -0.2104  0.1442
  180SLPC   H4R20575   2.969   4.205  26.345 -1.9236  0.9498  1.3889
  180SLPC   H4S20576   3.104   4.284  26.250  0.7757  1.6550  0.8040
  180SLPC   C2520577   2.928   4.394  26.233 -0.2136 -0.0644  0.2431
  180SLPC   H5R20578   2.858   4.452  26.297  1.5534  1.2442  1.0796
  180SLPC   H5S20579   2.868   4.328  26.166 -0.9243  1.1699 -0.3710
  180SLPC   C2620580   3.002   4.491  26.151 -0.4908 -0.5526  0.5543
  180SLPC   H6R20581   3.075   4.442  26.082  0.0707  3.7901 -2.4020
  180SLPC   H6S20582   3.071   4.545  26.219  1.1710  0.7426 -1.9659
  180SLPC   C2720583   2.902   4.574  26.054 -0.0543  0.4503 -0.8100
  180SLPC   H7R20584   2.827   4.623  26.120 -0.0604 -0.2313 -0.3053
  180SLPC   H7S20585   2.858   4.505  25.979  2.4585 -0.5085 -1.4923
  180SLPC   C2820586   2.979   4.679  25.969 -0.2429 -0.0510  0.7397
  180SLPC   H8R20587   3.035   4.738  26.045  0.3142 -0.7754  0.9002
  180SLPC   H8S20588   2.902   4.747  25.926  1.5002  0.5705 -1.5928
  180SLPC   C2920589   3.062   4.623  25.855 -0.2548 -0.7162  0.1323
  180SLPC   H9R20590   3.164   4.593  25.882  0.2505  0.3644 -0.5000
  180SLPC  C21020591   3.025   4.613  25.722 -0.2115  0.6634  0.0940
  180SLPC  H10R20592   3.100   4.608  25.641  2.0131  0.9118  2.0231
  180SLPC  C21120593   2.885   4.629  25.680 -0.5081  0.0767  0.0942
  180SLPC  H11R20594   2.870   4.738  25.659 -2.6079  0.0460  1.1355
  180SLPC  H11S20595   2.817   4.596  25.762  1.8558 -4.9124  0.3801
  180SLPC  C21220596   2.834   4.567  25.555  0.2777 -0.3456  0.8371
  180SLPC  H12R20597   2.904   4.514  25.489  1.0252  0.8586  0.6318
  180SLPC  C21320598   2.702   4.549  25.532  0.3447 -0.0402  0.7030
  180SLPC  H13R20599   2.663   4.509  25.437 -2.7354  1.7415  1.0981
  180SLPC  C21420600   2.582   4.592  25.609  0.6295  0.0777 -0.4098
  180SLPC  H14R20601   2.586   4.602  25.720 -0.1788  0.2902 -0.3942
  180SLPC  H14S20602   2.513   4.510  25.581 -0.2973 -0.1290  2.2094
  180SLPC  C21520603   2.539   4.729  25.557  0.0403  0.4933 -0.1505
  180SLPC  H15R20604   2.490   4.726  25.457 -2.3197  1.3732  0.9124
  180SLPC  H15S20605   2.633   4.789  25.555  0.5215 -0.2580 -0.5729
  180SLPC  C21620606   2.438   4.781  25.653 -0.0073  0.2544 -0.1869
  180SLPC  H16R20607   2.462   4.757  25.759  1.6832 -1.5153 -0.9252
  180SLPC  H16S20608   2.342   4.728  25.632 -0.9114  1.5266  0.5646
  180SLPC  C21720609   2.400   4.923  25.635 -0.0639  0.2536  0.4502
  180SLPC  H17R20610   2.295   4.947  25.661  0.4979  0.2318  2.9557
  180SLPC  H17S20611   2.404   4.939  25.525 -0.9273  1.1244  0.5316
  180SLPC  C21820612   2.499   5.017  25.701 -0.0437  0.4605  0.3648
  180SLPC  H18R20613   2.477   5.122  25.670  0.2236  0.3703 -0.1290
  180SLPC  H18S20614   2.607   4.991  25.693  0.3160  0.6154  3.4669
  180SLPC  H18T20615   2.498   5.012  25.812 -0.0108  0.3945  0.3647
  180SLPC   C3320616   2.595   4.001  26.585  0.1249 -0.1441 -0.1920
  180SLPC   H3X20617   2.496   4.050  26.592  0.4164  0.2938  1.2511
  180SLPC   H3Y20618   2.600   3.914  26.655  0.4381 -0.7559 -0.9627
  180SLPC   C3420619   2.605   3.946  26.444 -0.5834 -0.5802  0.3702
  180SLPC   H4X20620   2.692   3.879  26.453 -0.1464  0.0876  1.3563
  180SLPC   H4Y20621   2.637   4.018  26.366 -0.0476 -1.3104 -0.0936
  180SLPC   C3520622   2.479   3.874  26.394 -0.4068 -0.3387 -0.5612
  180SLPC   H5X20623   2.487   3.832  26.291 -1.0487  0.6756 -1.0350
  180SLPC   H5Y20624   2.401   3.952  26.386 -0.4606 -0.4662 -1.4201
  180SLPC   C3620625   2.431   3.763  26.476  0.1524 -0.0520  0.3849
  180SLPC   H6X20626   2.446   3.780  26.585  3.8819 -1.2470  0.2306
  180SLPC   H6Y20627   2.494   3.677  26.446  0.2099 -0.8719  2.6143
  180SLPC   C3720628   2.283   3.730  26.449 -0.5073  0.3010  0.0946
  180SLPC   H7X20629   2.218   3.810  26.490 -1.6400 -0.2328 -0.6218
  180SLPC   H7Y20630   2.250   3.639  26.503  2.5383 -0.8114  0.2709
  180SLPC   C3820631   2.248   3.713  26.297  0.0814  0.4648 -0.4808
  180SLPC   H8X20632   2.331   3.647  26.265 -0.3823 -1.1267  1.3900
  180SLPC   H8Y20633   2.246   3.813  26.249 -0.5224 -0.4359 -2.4678
  180SLPC   C3920634   2.117   3.644  26.263  0.1670 -0.0532  0.7284
  180SLPC   H9X20635   2.040   3.705  26.313  0.6539  0.6350  0.6558
  180SLPC   H9Y20636   2.112   3.542  26.306 -1.0401 -0.7764 -0.9974
  180SLPC  C31020637   2.103   3.623  26.114  0.1071  0.6787 -0.0958
  180SLPC  H10X20638   2.158   3.528  26.097  1.1100  1.3671 -0.8046
  180SLPC  H10Y20639   2.159   3.691  26.047 -0.5986  0.2805 -1.1125
  180SLPC  C31120640   1.957   3.624  26.074 -1.0646  0.2022  0.2741
  180SLPC  H11X20641   1.917   3.720  26.114  0.5369  0.6464  0.8835
  180SLPC  H11Y20642   1.893   3.550  26.126 -1.9011  0.8338  0.1823
  180SLPC  C31220643   1.929   3.612  25.926 -0.4764 -0.1008 -0.4209
  180SLPC  H12X20644   1.954   3.511  25.885  1.7257  0.0612  0.3894
  180SLPC  H12Y20645   1.992   3.686  25.872 -2.7287  2.0142 -0.3354
  180SLPC  C31320646   1.784   3.659  25.888  0.0462  0.4116  0.3927
  180SLPC  H13X20647   1.756   3.751  25.944 -1.0435  0.9279 -0.9493
  180SLPC  H13Y20648   1.715   3.573  25.897  1.4965 -0.7597  0.6947
  180SLPC  C31420649   1.782   3.709  25.743 -0.0438 -0.0186  0.2692
  180SLPC  H14X20650   1.852   3.790  25.713 -1.3804  0.5847 -1.3966
  180SLPC  H14Y20651   1.683   3.760  25.736 -0.5427 -0.6171  2.3047
  180SLPC  C31520652   1.790   3.603  25.638 -0.4872 -0.2539  0.4686
  180SLPC  H15X20653   1.719   3.523  25.669 -0.6223  0.1617  1.2536
  180SLPC  H15Y20654   1.893   3.561  25.637 -0.9063 -1.5399  3.1121
  180SLPC  C31620655   1.748   3.659  25.500  0.0072 -0.2232  0.5143
  180SLPC  H16X20656   1.821   3.737  25.469  1.7228 -2.1814 -0.6598
  180SLPC  H16Y20657   1.647   3.704  25.502  0.5061  1.0340 -0.7199
  180SLPC  C31720658   1.754   3.546  25.398  0.2799 -0.1059  0.4543
  180SLPC  H17X20659   1.711   3.578  25.301 -1.2305 -3.3944 -0.1272
  180SLPC  H17Y20660   1.699   3.455  25.434  0.4396 -1.4684 -2.4532
  180SLPC  C31820661   1.891   3.490  25.360  0.2709 -0.0856 -0.1490
  180SLPC  H18X20662   1.876   3.402  25.295  0.8207  0.2125 -0.6857
  180SLPC  H18Y20663   1.945   3.466  25.454 -1.7464 -0.2308  1.0363
  180SLPC  H18Z20664   1.949   3.566  25.304 -0.4272  1.3199  0.9731
  181SLPC     N20665   4.286   0.977  25.013 -0.2637  0.9023  0.1709
  181SLPC   C1320666   4.233   0.843  25.073  0.7243  0.2605 -0.1110
  181SLPC  H13A20667   4.280   0.826  25.169  1.2571  3.3530  0.2857
  181SLPC  H13B20668   4.127   0.866  25.079  0.6149  0.3668 -2.0330
  181SLPC  H13C20669   4.251   0.761  25.005 -0.3020  1.0127 -1.3286
  181SLPC   C1420670   4.200   1.010  24.899 -0.1517 -0.1641  0.5192
  181SLPC  H14A20671   4.213   0.940  24.817  1.0315  2.5545 -1.7783
  181SLPC  H14B20672   4.092   1.011  24.910 -0.4997 -3.4946 -1.1694
  181SLPC  H14C20673   4.220   1.107  24.857 -0.6881 -0.6388 -0.9232
  181SLPC   C1520674   4.425   0.971  24.966  0.1490  0.2030 -0.3670
  181SLPC  H15A20675   4.448   1.043  24.888 -1.3035 -0.0376 -1.0476
  181SLPC  H15B20676   4.501   0.976  25.043 -2.3552 -3.7445  2.7107
  181SLPC  H15C20677   4.439   0.877  24.914  0.5711  1.0722 -1.8944
  181SLPC   C1220678   4.270   1.083  25.115  0.3338 -0.1861  0.4683
  181SLPC  H12A20679   4.317   1.173  25.078 -1.3743 -0.0782 -1.5934
  181SLPC  H12B20680   4.326   1.053  25.202 -0.5638 -0.0615  1.1048
  181SLPC   C1120681   4.127   1.122  25.165  0.8279  0.2963 -0.2295
  181SLPC  H11A20682   4.069   1.134  25.071  0.6554 -2.1818 -0.4938
  181SLPC  H11B20683   4.126   1.215  25.226  2.6030  1.3086 -1.6432
  181SLPC     P20684   3.915   1.022  25.305  0.0261  0.2464  0.3119
  181SLPC   O1320685   3.885   0.882  25.341 -0.2340 -0.1577 -0.2765
  181SLPC   O1420686   3.908   1.121  25.408 -0.1594 -0.4253 -0.2255
  181SLPC   O1220687   4.064   1.020  25.238 -0.1393  0.0847  0.3262
  181SLPC   O1120688   3.830   1.061  25.186  0.8337 -0.3588  0.5779
  181SLPC    C120689   3.699   1.129  25.209  0.3599 -0.1387 -0.1424
  181SLPC    HA20690   3.708   1.186  25.304  1.8267 -1.2707  0.4387
  181SLPC    HB20691   3.661   1.191  25.125 -1.3501 -2.1744 -0.9628
  181SLPC    C220692   3.593   1.025  25.241 -0.5144 -0.2287  0.0859
  181SLPC    HS20693   3.635   0.952  25.314 -0.7348  0.0920  0.5411
  181SLPC   O2120694   3.546   0.976  25.116  0.3471 -0.4427 -0.0065
  181SLPC   C2120695   3.544   0.848  25.109  0.3260  0.2718 -0.0374
  181SLPC   O2220696   3.544   0.766  25.203  0.0239 -0.4853  0.4568
  181SLPC   C2220697   3.537   0.812  24.963 -0.4434  0.4934  0.7742
  181SLPC   H2R20698   3.556   0.900  24.898  0.0565 -1.3833 -1.7627
  181SLPC   H2S20699   3.625   0.750  24.937 -0.2332  1.1341 -0.0681
  181SLPC    C320700   3.476   1.101  25.312 -0.0332 -0.5463 -0.6157
  181SLPC    HX20701   3.516   1.152  25.402 -1.3460 -2.3186  1.0370
  181SLPC    HY20702   3.407   1.022  25.346  0.7612 -1.6894 -1.5630
  181SLPC   O3120703   3.408   1.196  25.228 -0.0061  0.3593  0.0592
  181SLPC   C3120704   3.297   1.247  25.283 -0.1783  0.1770 -0.4155
  181SLPC   O3220705   3.261   1.226  25.396 -0.1169 -0.1989  0.4975
  181SLPC   C3220706   3.232   1.347  25.177  0.0534 -0.1429 -0.4075
  181SLPC   H2X20707   3.316   1.379  25.112  0.6751  0.1925  0.5420
  181SLPC   H2Y20708   3.193   1.440  25.223 -2.9100 -1.6975  0.5026
  181SLPC   C2320709   3.402   0.752  24.921 -0.0471 -0.1457 -0.2520
  181SLPC   H3R20710   3.383   0.664  24.986  0.1100  0.0182  0.0196
  181SLPC   H3S20711   3.395   0.722  24.814 -0.8204  0.7666 -0.4695
  181SLPC   C2420712   3.288   0.860  24.934  0.2029  0.5922  0.5888
  181SLPC   H4R20713   3.310   0.943  24.863 -0.7180  0.3867  0.0462
  181SLPC   H4S20714   3.294   0.904  25.036 -2.1726  1.1012  0.5764
  181SLPC   C2520715   3.136   0.809  24.910  0.1329  0.4510  0.3074
  181SLPC   H5R20716   3.134   0.723  24.981 -0.1348  1.5891  1.7127
  181SLPC   H5S20717   3.121   0.792  24.801  1.2763  4.2513 -0.5678
  181SLPC   C2620718   3.023   0.910  24.955  0.0651  0.0405 -0.3117
  181SLPC   H6R20719   3.037   0.996  24.886  0.5899  1.6685  1.7017
  181SLPC   H6S20720   3.050   0.943  25.058  0.5174  2.9030 -1.2517
  181SLPC   C2720721   2.880   0.852  24.953 -0.5309  0.1588  0.3395
  181SLPC   H7R20722   2.805   0.929  24.978  2.1162  2.5896  1.2720
  181SLPC   H7S20723   2.862   0.772  25.029 -3.6402 -0.9955 -1.4303
  181SLPC   C2820724   2.859   0.781  24.819  0.1854  0.3655  0.3594
  181SLPC   H8R20725   2.911   0.683  24.812 -0.7479 -0.1436  0.4259
  181SLPC   H8S20726   2.904   0.841  24.738 -0.0298 -1.6061 -1.2950
  181SLPC   C2920727   2.711   0.771  24.801 -0.0488  0.5821  0.2039
  181SLPC   H9R20728   2.656   0.845  24.862  1.1194  0.8902  0.9273
  181SLPC  C21020729   2.651   0.668  24.740 -0.5582 -0.7795  0.5864
  181SLPC  H10R20730   2.542   0.666  24.732 -0.6118 -0.3767  1.2149
  181SLPC  C21120731   2.727   0.550  24.681  0.1579 -0.0786  0.9066
  181SLPC  H11R20732   2.829   0.528  24.718  0.3255 -0.2106  0.3823
  181SLPC  H11S20733   2.750   0.572  24.574  0.3961 -0.3045  0.9090
  181SLPC  C21220734   2.646   0.424  24.706  1.1035 -0.5301  0.1504
  181SLPC  H12R20735   2.667   0.388  24.808  0.3613  0.5293  0.6917
  181SLPC  C21320736   2.557   0.364  24.620 -0.1660 -0.1319 -0.4125
  181SLPC  H13R20737   2.510   0.267  24.647 -1.5646  0.3560 -1.0038
  181SLPC  C21420738   2.527   0.423  24.484 -0.1013  0.2780 -0.3258
  181SLPC  H14R20739   2.603   0.399  24.407  0.6864 -0.4870  0.6541
  181SLPC  H14S20740   2.536   0.534  24.478  2.3746  0.1235 -0.5933
  181SLPC  C21520741   2.397   0.368  24.434  0.3269 -0.3327 -0.3046
  181SLPC  H15R20742   2.406   0.258  24.435 -1.2710 -0.4771  0.5880
  181SLPC  H15S20743   2.394   0.403  24.329  2.6539 -0.4351 -0.4482
  181SLPC  C21620744   2.278   0.414  24.522 -0.2254  0.7239 -0.2430
  181SLPC  H16R20745   2.285   0.516  24.565  1.0510  0.0786  1.1930
  181SLPC  H16S20746   2.271   0.342  24.606  1.9473  1.0829  0.3160
  181SLPC  C21720747   2.140   0.406  24.452 -0.3488 -0.3152  0.1316
  181SLPC  H17R20748   2.128   0.306  24.404  0.1216 -0.4603  0.3107
  181SLPC  H17S20749   2.139   0.485  24.374  2.2294  0.3989  0.7253
  181SLPC  C21820750   2.020   0.439  24.543  0.4777 -0.0222  0.2197
  181SLPC  H18R20751   1.924   0.415  24.493  1.7332 -0.3739 -2.1833
  181SLPC  H18S20752   2.024   0.548  24.565 -1.5885  0.2154 -0.4559
  181SLPC  H18T20753   2.013   0.378  24.636 -0.8495  0.0694  0.1957
  181SLPC   C3320754   3.118   1.273  25.098  0.7414 -0.5982 -0.7286
  181SLPC   H3X20755   3.055   1.238  25.183 -0.9504  2.8084 -0.4284
  181SLPC   H3Y20756   3.161   1.189  25.038  0.6497 -1.2263  0.0636
  181SLPC   C3420757   3.043   1.368  25.007  0.2975  0.3430  0.5864
  181SLPC   H4X20758   3.128   1.425  24.966  0.3925  1.3858  2.1639
  181SLPC   H4Y20759   2.978   1.448  25.049 -0.7645 -0.9429  1.5044
  181SLPC   C3520760   2.967   1.301  24.891 -0.2579 -0.2553 -0.0509
  181SLPC   H5X20761   3.014   1.203  24.868 -0.9025  0.0165 -2.8000
  181SLPC   H5Y20762   2.970   1.355  24.795 -0.7477 -1.3637 -0.7142
  181SLPC   C3620763   2.816   1.289  24.910  0.1447 -0.5274  0.6137
  181SLPC   H6X20764   2.767   1.387  24.893  1.4272 -0.1821 -1.4516
  181SLPC   H6Y20765   2.799   1.263  25.017  2.8961 -1.3009  0.9546
  181SLPC   C3720766   2.752   1.187  24.819 -0.9965 -0.0638 -0.8078
  181SLPC   H7X20767   2.796   1.087  24.839 -2.4831 -0.3944  1.1492
  181SLPC   H7Y20768   2.783   1.228  24.721 -0.3317  1.6086  0.0539
  181SLPC   C3820769   2.604   1.170  24.816  0.2231 -0.1695 -0.4311
  181SLPC   H8X20770   2.550   1.267  24.823 -1.5829 -1.2438  2.4872
  181SLPC   H8Y20771   2.586   1.113  24.910 -0.2857 -0.3462 -0.6293
  181SLPC   C3920772   2.562   1.093  24.694  0.1854  0.8138 -1.1805
  181SLPC   H9X20773   2.614   0.996  24.677 -0.9426  0.5206 -3.3617
  181SLPC   H9Y20774   2.595   1.147  24.603  0.4053  4.6434  0.9638
  181SLPC  C31020775   2.412   1.056  24.691 -0.5754  0.5783 -0.6094
  181SLPC  H10X20776   2.345   1.144  24.697 -3.7834 -1.7504  0.4009
  181SLPC  H10Y20777   2.388   1.000  24.784  2.2656 -0.3229 -0.3126
  181SLPC  C31120778   2.378   0.968  24.576  0.3959  0.3341 -0.5866
  181SLPC  H11X20779   2.283   0.910  24.584 -0.2114  1.4570  0.7304
  181SLPC  H11Y20780   2.456   0.890  24.560  0.5262  0.9350 -3.5006
  181SLPC  C31220781   2.357   1.046  24.442  0.0212  0.8024  0.0459
  181SLPC  H12X20782   2.341   0.977  24.357  0.9101 -1.1606  1.3973
  181SLPC  H12Y20783   2.454   1.098  24.432  1.2930 -1.6501 -1.1066
  181SLPC  C31320784   2.235   1.137  24.417  0.0662  0.1855  0.4247
  181SLPC  H13X20785   2.238   1.207  24.504  0.2220 -0.9638  1.3653
  181SLPC  H13Y20786   2.143   1.075  24.430 -0.4886  1.0005  0.5028
  181SLPC  C31420787   2.226   1.220  24.293 -0.1382 -0.1619  0.2608
  181SLPC  H14X20788   2.217   1.155  24.204 -1.6768 -0.1045  0.3583
  181SLPC  H14Y20789   2.322   1.275  24.283 -0.9565  1.3804  0.5336
  181SLPC  C31520790   2.123   1.333  24.306 -0.7118  0.0265  0.0641
  181SLPC  H15X20791   2.161   1.408  24.379  1.7379 -2.5460  1.6848
  181SLPC  H15Y20792   2.027   1.294  24.345 -0.1744 -0.0955  1.3161
  181SLPC  C31620793   2.094   1.412  24.176 -0.3839  0.3103 -0.0123
  181SLPC  H16X20794   2.037   1.350  24.104 -0.9232  0.7257  0.0436
  181SLPC  H16Y20795   2.195   1.425  24.131 -0.1874 -1.4796 -0.1305
  181SLPC  C31720796   2.033   1.554  24.192 -0.8112 -0.5203 -0.4119
  181SLPC  H17X20797   2.043   1.619  24.103 -2.1353 -0.4622 -0.5393
  181SLPC  H17Y20798   2.088   1.606  24.274 -1.0128 -1.0890  0.0974
  181SLPC  C31820799   1.884   1.542  24.225  0.7854  0.3548  0.4250
  181SLPC  H18X20800   1.840   1.485  24.141 -1.6830  2.4825  0.1700
  181SLPC  H18Y20801   1.835   1.640  24.241  1.5882  0.9882 -0.8057
  181SLPC  H18Z20802   1.875   1.491  24.324 -0.6400 -1.8628 -0.7658
  182SLPC     N20803   2.846   1.625  27.137 -0.2766 -0.5037 -0.3400
  182SLPC   C1320804   2.986   1.663  27.145  0.3441  0.4732  0.3443
  182SLPC  H13A20805   3.045   1.592  27.090 -0.1402 -1.5039  2.2074
  182SLPC  H13B20806   2.998   1.765  27.113 -1.4381  0.9373  1.0250
  182SLPC  H13C20807   3.029   1.661  27.244 -1.0909 -0.1757  0.9915
  182SLPC   C1420808   2.770   1.718  27.227  0.3711  0.0577  0.1372
  182SLPC  H14A20809   2.668   1.687  27.245  0.8086 -1.4399  0.1670
  182SLPC  H14B20810   2.826   1.754  27.312 -0.8753  1.4818  0.3929
  182SLPC  H14C20811   2.747   1.811  27.177 -0.1261 -0.0313  0.1938
  182SLPC   C1520812   2.839   1.484  27.185 -0.0849 -0.1811  0.0692
  182SLPC  H15A20813   2.881   1.471  27.284  1.0801  0.7324 -0.2882
  182SLPC  H15B20814   2.740   1.444  27.196 -0.3507  0.6633  0.8754
  182SLPC  H15C20815   2.906   1.428  27.121 -1.1796 -0.0922 -1.1824
  182SLPC   C1220816   2.788   1.632  26.998  0.8045  0.1405  0.2146
  182SLPC  H12A20817   2.753   1.731  26.971 -1.1228 -0.9547 -1.6181
  182SLPC  H12B20818   2.701   1.569  26.988  0.4694  0.6567 -0.2167
  182SLPC   C1120819   2.880   1.581  26.886 -0.4200 -0.7695  0.1112
  182SLPC  H11A20820   2.967   1.650  26.892 -1.2750  0.3267  0.3155
  182SLPC  H11B20821   2.834   1.598  26.787 -0.5473  2.6342  0.6100
  182SLPC     P20822   3.031   1.376  26.845 -0.0466 -0.3476  0.2095
  182SLPC   O1320823   3.143   1.370  26.942  0.0506  0.6258  0.2933
  182SLPC   O1420824   3.006   1.244  26.786  0.4488  0.2723 -0.0400
  182SLPC   O1220825   2.906   1.443  26.910  0.1509 -0.3020 -0.6599
  182SLPC   O1120826   3.071   1.480  26.731  0.1117 -0.1407  0.3046
  182SLPC    C120827   3.028   1.477  26.593 -0.7935  0.7930 -0.5985
  182SLPC    HA20828   2.971   1.386  26.564 -0.1971 -0.5938  2.1857
  182SLPC    HB20829   2.951   1.554  26.570 -1.2787  0.0767 -1.4418
  182SLPC    C220830   3.149   1.465  26.488  1.2235 -0.3413 -0.0500
  182SLPC    HS20831   3.198   1.564  26.500  2.1152 -0.9507  1.7085
  182SLPC   O2120832   3.099   1.444  26.355 -0.1244 -0.0061 -0.1635
  182SLPC   C2120833   3.175   1.498  26.253 -0.4648 -0.5425  0.2622
  182SLPC   O2220834   3.278   1.560  26.276  0.7799 -0.5508  1.2050
  182SLPC   C2220835   3.113   1.452  26.124  0.0901 -0.0509 -0.2789
  182SLPC   H2R20836   3.130   1.343  26.116 -0.1833 -0.2122  1.0886
  182SLPC   H2S20837   3.005   1.459  26.146 -0.1139 -1.8197 -0.6124
  182SLPC    C320838   3.248   1.356  26.516  0.2377  0.1281  0.3357
  182SLPC    HX20839   3.282   1.374  26.620  0.5963  1.2328  0.0457
  182SLPC    HY20840   3.352   1.369  26.478  0.8632 -2.6324  0.8809
  182SLPC   O3120841   3.199   1.220  26.513 -0.4175 -0.3825 -0.2981
  182SLPC   C3120842   3.206   1.160  26.391 -0.2440  0.3448 -0.6063
  182SLPC   O3220843   3.251   1.211  26.293  0.1520  0.0956  0.5501
  182SLPC   C3220844   3.131   1.027  26.393 -0.0931  0.7630  0.0730
  182SLPC   H2X20845   3.104   1.000  26.497  0.2580 -1.0299 -0.2619
  182SLPC   H2Y20846   3.210   0.969  26.339 -1.5279 -0.8944 -0.3303
  182SLPC   C2320847   3.151   1.536  26.006  0.3796 -0.0356  0.4421
  182SLPC   H3R20848   3.121   1.481  25.914 -0.2344 -1.0917  1.2422
  182SLPC   H3S20849   3.262   1.537  25.999  0.4303 -2.1138  0.1283
  182SLPC   C2420850   3.101   1.678  25.998 -0.5625  0.4614  0.3369
  182SLPC   H4R20851   3.161   1.740  25.929 -0.6676 -0.7187 -0.8563
  182SLPC   H4S20852   3.115   1.731  26.094  1.8068  2.9681 -1.2565
  182SLPC   C2520853   2.955   1.695  25.954  0.3799 -0.1497 -0.4388
  182SLPC   H5R20854   2.935   1.626  25.870 -0.0367  1.9265 -2.1198
  182SLPC   H5S20855   2.939   1.792  25.903  1.9169 -0.9323 -2.5395
  182SLPC   C2620856   2.852   1.664  26.065 -0.0252 -0.9324 -0.0468
  182SLPC   H6R20857   2.907   1.689  26.158 -0.2021  0.1502 -0.2261
  182SLPC   H6S20858   2.830   1.555  26.060 -0.3850 -0.8114 -2.3010
  182SLPC   C2720859   2.715   1.741  26.054  0.1277 -0.0374 -0.0070
  182SLPC   H7R20860   2.683   1.716  25.951  1.1353  1.3285 -0.6866
  182SLPC   H7S20861   2.730   1.851  26.065 -1.3930  0.4659 -2.2658
  182SLPC   C2820862   2.601   1.678  26.130 -0.0302  0.2342  0.8257
  182SLPC   H8R20863   2.616   1.568  26.125 -1.2603 -0.0644  2.7116
  182SLPC   H8S20864   2.503   1.708  26.087  0.9928  1.3601 -0.8501
  182SLPC   C2920865   2.616   1.725  26.266 -0.0222  0.4801 -0.5158
  182SLPC   H9R20866   2.643   1.829  26.290  0.9406  0.0003  0.6136
  182SLPC  C21020867   2.608   1.651  26.380 -0.1319 -0.2445 -0.0255
  182SLPC  H10R20868   2.636   1.705  26.472  0.1589  0.8553 -0.7408
  182SLPC  C21120869   2.583   1.504  26.384 -0.3216 -0.3208 -0.3722
  182SLPC  H11R20870   2.612   1.450  26.291 -0.1204 -0.5150 -0.1954
  182SLPC  H11S20871   2.473   1.489  26.386 -0.3477 -0.1169 -0.1609
  182SLPC  C21220872   2.663   1.452  26.500 -0.2763  0.3221  0.7437
  182SLPC  H12R20873   2.769   1.459  26.469  0.3540 -2.5031  1.9303
  182SLPC  C21320874   2.629   1.387  26.616  0.1655 -0.2804  0.2483
  182SLPC  H13R20875   2.697   1.356  26.698 -0.5977 -1.2753  0.5187
  182SLPC  C21420876   2.480   1.369  26.657  0.2091  0.2090  1.0697
  182SLPC  H14R20877   2.421   1.462  26.640  0.4419  0.2992  0.7636
  182SLPC  H14S20878   2.468   1.330  26.760 -4.0786 -1.1640  0.2503
  182SLPC  C21520879   2.417   1.261  26.570  0.0585 -0.5261  0.1741
  182SLPC  H15R20880   2.439   1.262  26.461 -0.4985 -2.1780  0.0027
  182SLPC  H15S20881   2.307   1.266  26.581 -0.0914 -3.2882  0.8835
  182SLPC  C21620882   2.443   1.122  26.612  0.4669 -0.2505 -0.0625
  182SLPC  H16R20883   2.388   1.094  26.705  1.6377 -1.0149  0.4221
  182SLPC  H16S20884   2.551   1.120  26.634  0.5585  2.5613  0.0872
  182SLPC  C21720885   2.403   1.014  26.505  0.7924 -0.0780  0.1396
  182SLPC  H17R20886   2.447   0.921  26.547 -0.8972 -1.1267 -0.2945
  182SLPC  H17S20887   2.435   1.032  26.400 -3.2708  0.8636 -1.1125
  182SLPC  C21820888   2.249   0.997  26.498 -0.2531 -1.4300 -0.7434
  182SLPC  H18R20889   2.206   1.012  26.600 -1.9889  3.0708 -1.8767
  182SLPC  H18S20890   2.235   0.895  26.458  1.7555 -0.9987 -2.7566
  182SLPC  H18T20891   2.213   1.069  26.421 -2.9188  0.1717  1.7840
  182SLPC   C3320892   3.006   1.029  26.304  0.3169  0.5873  0.1427
  182SLPC   H3X20893   2.992   0.921  26.282  0.6598  0.6337 -0.3329
  182SLPC   H3Y20894   3.023   1.083  26.208  1.1539 -1.7024 -1.0646
  182SLPC   C3420895   2.883   1.090  26.370 -0.1632 -0.1373  0.1586
  182SLPC   H4X20896   2.896   1.200  26.375 -0.3906 -0.1112  0.1759
  182SLPC   H4Y20897   2.881   1.045  26.472  0.8053 -0.4306  0.0582
  182SLPC   C3520898   2.751   1.066  26.298 -0.7896  0.3507 -0.0180
  182SLPC   H5X20899   2.680   1.131  26.353  1.3391  1.5403  1.4487
  182SLPC   H5Y20900   2.708   0.964  26.308 -1.8581  0.7254 -0.6096
  182SLPC   C3620901   2.743   1.098  26.146 -0.2111  0.1822  1.0072
  182SLPC   H6X20902   2.807   1.029  26.087 -1.8526  1.2649 -2.3263
  182SLPC   H6Y20903   2.777   1.201  26.121  1.4167 -0.0646  2.0831
  182SLPC   C3720904   2.600   1.074  26.089  0.3533 -0.1828 -0.1032
  182SLPC   H7X20905   2.526   1.136  26.145  0.3315 -0.4769  0.1939
  182SLPC   H7Y20906   2.577   0.967  26.102  1.5353 -0.3480  0.8346
  182SLPC   C3820907   2.582   1.113  25.940 -0.4178  0.4514 -0.0906
  182SLPC   H8X20908   2.639   1.040  25.878  3.6154  2.7532  0.5999
  182SLPC   H8Y20909   2.640   1.206  25.921 -2.2254  1.2514 -2.1707
  182SLPC   C3920910   2.438   1.129  25.892  0.2606  0.0696 -0.5882
  182SLPC   H9X20911   2.377   1.192  25.960 -0.6577 -3.9423  2.7563
  182SLPC   H9Y20912   2.388   1.029  25.898 -0.7116  0.6328  2.5860
  182SLPC  C31020913   2.407   1.167  25.751  0.6457  0.2644 -0.6949
  182SLPC  H10X20914   2.299   1.174  25.729  0.5934  1.8467 -0.0271
  182SLPC  H10Y20915   2.439   1.087  25.680 -1.2033 -0.6396 -0.5590
  182SLPC  C31120916   2.479   1.294  25.703 -0.1123  0.2301 -0.0097
  182SLPC  H11X20917   2.582   1.288  25.746 -1.2538 -2.6663  2.6948
  182SLPC  H11Y20918   2.429   1.383  25.746  0.6686  1.6858 -1.9896
  182SLPC  C31220919   2.487   1.318  25.554  0.0569  0.7323 -0.1979
  182SLPC  H12X20920   2.389   1.351  25.513  0.1834  2.2994  0.6923
  182SLPC  H12Y20921   2.529   1.228  25.505  2.2402  0.9177  1.1794
  182SLPC  C31320922   2.581   1.432  25.519  0.6112 -0.0762 -0.9350
  182SLPC  H13X20923   2.673   1.420  25.579 -0.2651  0.1715  0.5012
  182SLPC  H13Y20924   2.542   1.530  25.554  0.5141  0.2828 -1.9939
  182SLPC  C31420925   2.618   1.438  25.371  0.1804 -0.5983 -0.2748
  182SLPC  H14X20926   2.617   1.332  25.338  1.0873 -1.4221  2.1782
  182SLPC  H14Y20927   2.710   1.495  25.344  0.1670 -1.0872 -1.4278
  182SLPC  C31520928   2.513   1.513  25.284  0.0035  0.5057 -0.0889
  182SLPC  H15X20929   2.497   1.608  25.339  1.1230  0.1899  0.8176
  182SLPC  H15Y20930   2.415   1.461  25.293  0.8268 -1.3346 -1.1893
  182SLPC  C31620931   2.542   1.535  25.139 -0.5652  0.2063  0.2533
  182SLPC  H16X20932   2.452   1.568  25.083 -0.6650 -0.8046 -0.2254
  182SLPC  H16Y20933   2.571   1.439  25.090  0.7401  2.0262 -2.8898
  182SLPC  C31720934   2.659   1.635  25.106  0.4868  0.6883 -0.9535
  182SLPC  H17X20935   2.758   1.587  25.119 -0.3078 -1.0186 -0.9018
  182SLPC  H17Y20936   2.639   1.711  25.185 -0.9018 -0.4259 -0.1789
  182SLPC  C31820937   2.660   1.702  24.965 -0.2972 -0.4973  0.1855
  182SLPC  H18X20938   2.661   1.627  24.883  1.0062  2.3377 -2.5922
  182SLPC  H18Y20939   2.748   1.769  24.960  0.1448 -1.0693  0.2017
  182SLPC  H18Z20940   2.570   1.764  24.942 -0.4857 -0.5091  0.8808
  183SLPC     N20941   4.052   3.822  24.512  0.3286 -0.1397  0.1860
  183SLPC   C1320942   3.983   3.946  24.452 -0.2335  0.3705  0.3833
  183SLPC  H13A20943   4.034   3.973  24.360 -0.4499 -1.3600 -0.2803
  183SLPC  H13B20944   3.884   3.918  24.418  0.1364  0.7731 -1.1358
  183SLPC  H13C20945   3.978   4.030  24.519 -1.0182  1.5198 -1.0378
  183SLPC   C1420946   4.184   3.864  24.544 -0.5966 -0.3486  0.1741
  183SLPC  H14A20947   4.245   3.888  24.458 -0.9843  0.1586  0.0388
  183SLPC  H14B20948   4.182   3.948  24.612  0.1885 -0.5617  0.4777
  183SLPC  H14C20949   4.240   3.782  24.588  0.8507  0.2620 -0.4444
  183SLPC   C1520950   4.066   3.719  24.404  0.4572  0.3573 -0.0525
  183SLPC  H15A20951   3.973   3.671  24.375  0.2749  0.1387  0.8410
  183SLPC  H15B20952   4.117   3.764  24.321  1.5839 -1.0828 -0.1851
  183SLPC  H15C20953   4.135   3.649  24.449  0.1281 -0.2794 -0.5294
  183SLPC   C1220954   3.984   3.769  24.640 -0.4858 -0.4645  0.3101
  183SLPC  H12A20955   3.882   3.748  24.610 -0.7190  0.9967  0.0012
  183SLPC  H12B20956   3.962   3.855  24.702 -2.2555  1.2202 -2.4267
  183SLPC   C1120957   4.047   3.651  24.713 -0.1267  0.5413 -0.8636
  183SLPC  H11A20958   3.995   3.651  24.811  0.1287  2.4809 -0.6881
  183SLPC  H11B20959   4.154   3.679  24.718 -0.2700  0.9643 -0.0542
  183SLPC     P20960   3.885   3.458  24.603 -0.4077 -0.1217 -0.2359
  183SLPC   O1320961   3.784   3.564  24.606  0.6940 -0.3260 -0.4320
  183SLPC   O1420962   3.890   3.380  24.477 -0.8854 -0.2876  0.2610
  183SLPC   O1220963   4.024   3.533  24.632  0.0273 -0.3114 -0.3496
  183SLPC   O1120964   3.863   3.364  24.730 -0.1493  0.0543  0.0055
  183SLPC    C120965   3.771   3.387  24.832  0.9260  0.3922  0.9928
  183SLPC    HA20966   3.808   3.322  24.915  0.7943  1.9244  2.3019
  183SLPC    HB20967   3.777   3.491  24.871 -0.1328  1.3387 -1.2288
  183SLPC    C220968   3.625   3.339  24.789 -0.5036 -0.0597 -0.0191
  183SLPC    HS20969   3.587   3.411  24.714 -2.3147  0.2911  1.1678
  183SLPC   O2120970   3.539   3.343  24.907  0.0931 -0.1870 -0.8923
  183SLPC   C2120971   3.421   3.397  24.888  0.2878 -0.0774  0.3338
  183SLPC   O2220972   3.370   3.443  24.788  0.5483 -0.1517  0.8372
  183SLPC   C2220973   3.343   3.403  25.023  0.4541 -0.2807 -0.5484
  183SLPC   H2R20974   3.349   3.305  25.074 -1.6069  1.1641  2.7431
  183SLPC   H2S20975   3.393   3.481  25.084  1.1814 -0.7291 -0.5543
  183SLPC    C320976   3.615   3.198  24.713 -0.8685 -0.4199 -0.5166
  183SLPC    HX20977   3.683   3.140  24.779  1.4784  2.4791 -0.1450
  183SLPC    HY20978   3.670   3.218  24.618  0.3144 -2.0478 -0.2194
  183SLPC   O3120979   3.485   3.152  24.698  0.5435 -0.3526 -0.6978
  183SLPC   C3120980   3.418   3.201  24.597 -0.3269 -0.3018 -0.2940
  183SLPC   O3220981   3.462   3.276  24.513 -0.0836 -0.2732 -0.7654
  183SLPC   C3220982   3.270   3.156  24.605 -0.6441  0.0478 -0.7443
  183SLPC   H2X20983   3.203   3.243  24.586 -1.4798  0.3126  2.7611
  183SLPC   H2Y20984   3.256   3.138  24.714  0.6524  1.0761 -0.3843
  183SLPC   C2320985   3.191   3.432  25.016  0.6986  0.3025  0.1662
  183SLPC   H3R20986   3.171   3.530  24.967 -0.5433  0.0222  0.0630
  183SLPC   H3S20987   3.152   3.446  25.119  1.2731  0.2602  0.3928
  183SLPC   C2420988   3.106   3.330  24.938 -0.2660  0.0184 -0.0681
  183SLPC   H4R20989   3.137   3.228  24.968  2.5218  0.9133  0.4378
  183SLPC   H4S20990   3.127   3.336  24.829  0.8635 -0.6436  0.0998
  183SLPC   C2520991   2.956   3.352  24.953 -0.1734  0.2038 -1.0194
  183SLPC   H5R20992   2.921   3.456  24.939  3.3308  1.5001 -1.0894
  183SLPC   H5S20993   2.922   3.311  25.050  2.3641  1.5281  0.5393
  183SLPC   C2620994   2.888   3.253  24.861  0.1586 -0.0669 -0.2043
  183SLPC   H6R20995   2.924   3.149  24.878 -0.1805 -0.3510 -1.1110
  183SLPC   H6S20996   2.906   3.285  24.756  0.6935  4.3172  1.0175
  183SLPC   C2720997   2.732   3.267  24.876 -0.0053 -0.5847 -0.8269
  183SLPC   H7R20998   2.719   3.377  24.868  3.0744 -0.1603 -1.1936
  183SLPC   H7S20999   2.713   3.234  24.980 -0.0127 -0.7797 -0.8877
  183SLPC   C2821000   2.651   3.198  24.765 -0.3416  0.1637 -0.0440
  183SLPC   H8R21001   2.661   3.087  24.770  4.1924  0.1754 -3.0782
  183SLPC   H8S21002   2.672   3.225  24.659 -0.4695  1.3625  0.2197
  183SLPC   C2921003   2.505   3.228  24.777  0.5424 -0.3540 -0.6486
  183SLPC   H9R21004   2.486   3.324  24.827  0.3179 -0.9772  0.4958
  183SLPC  C21021005   2.403   3.163  24.711 -0.2982 -0.4024  0.1747
  183SLPC  H10R21006   2.302   3.203  24.728 -0.6213  0.0679 -2.3981
  183SLPC  C21121007   2.418   3.043  24.624 -0.3531  0.3810  0.2285
  183SLPC  H11R21008   2.481   2.971  24.680  0.4085  1.7460  1.1678
  183SLPC  H11S21009   2.487   3.082  24.546  1.5212 -0.4360  1.3977
  183SLPC  C21221010   2.295   2.978  24.560  0.2701  0.4003  0.1415
  183SLPC  H12R21011   2.304   2.950  24.454  0.0974  0.6714  0.0555
  183SLPC  C21321012   2.175   2.953  24.620  0.0605 -0.5100  0.3264
  183SLPC  H13R21013   2.097   2.905  24.559  0.7846 -0.4711 -0.6596
  183SLPC  C21421014   2.143   2.967  24.765 -0.6856 -0.7497  0.5270
  183SLPC  H14R21015   2.238   2.982  24.821  0.7285 -2.1226 -1.3715
  183SLPC  H14S21016   2.090   2.880  24.809 -2.7389  1.4556  2.7441
  183SLPC  C21521017   2.046   3.081  24.784  0.6628 -0.2232  0.4582
  183SLPC  H15R21018   2.085   3.166  24.724  0.7647  0.3740  1.3528
  183SLPC  H15S21019   2.048   3.128  24.884 -2.0766  0.5396  0.2458
  183SLPC  C21621020   1.904   3.047  24.751 -0.9026 -0.3619 -0.2066
  183SLPC  H16R21021   1.880   2.959  24.814  3.5930 -2.2888 -0.8186
  183SLPC  H16S21022   1.904   3.010  24.646 -0.1891  0.4685 -0.5098
  183SLPC  C21721023   1.814   3.170  24.757 -0.6427 -0.5720 -0.0934
  183SLPC  H17R21024   1.811   3.207  24.862 -1.0124 -1.5700  0.2607
  183SLPC  H17S21025   1.708   3.139  24.744 -1.2322  0.3852  2.0075
  183SLPC  C21821026   1.851   3.293  24.664 -0.2165  0.4301 -0.0519
  183SLPC  H18R21027   1.948   3.336  24.697  0.5478 -1.5317  0.4176
  183SLPC  H18S21028   1.776   3.374  24.678  0.3058  0.8832  0.1688
  183SLPC  H18T21029   1.863   3.266  24.557  0.3780 -0.1238  0.1525
  183SLPC   C3321030   3.251   3.028  24.506 -0.1747 -0.7170 -0.6920
  183SLPC   H3X21031   3.311   2.948  24.553 -0.2891 -0.4203 -0.0240
  183SLPC   H3Y21032   3.299   3.054  24.409  0.2378 -1.7646 -0.7757
  183SLPC   C3421033   3.106   2.980  24.509 -0.3057 -0.5136 -0.0170
  183SLPC   H4X21034   3.088   2.958  24.616  1.8087 -1.2634  0.2437
  183SLPC   H4Y21035   3.112   2.883  24.456 -2.0202 -0.1630 -0.9070
  183SLPC   C3521036   3.003   3.064  24.446  0.8096 -0.0844 -0.0463
  183SLPC   H5X21037   3.015   3.092  24.339 -0.0639 -1.0856 -0.4238
  183SLPC   H5Y21038   3.009   3.160  24.503  1.7714  0.1266 -0.4797
  183SLPC   C3621039   2.856   3.006  24.474 -0.2463  0.9139  0.6198
  183SLPC   H6X21040   2.784   3.088  24.452 -2.0802 -0.5696  0.7544
  183SLPC   H6Y21041   2.838   2.980  24.581  1.6687 -0.2624  0.7043
  183SLPC   C3721042   2.818   2.882  24.397  0.3206 -1.0287  0.6277
  183SLPC   H7X21043   2.895   2.811  24.433  0.9842  0.4310  2.1983
  183SLPC   H7Y21044   2.839   2.908  24.292  0.3667  4.4644  1.7121
  183SLPC   C3821045   2.671   2.827  24.424  0.5698  0.6192  0.3674
  183SLPC   H8X21046   2.603   2.906  24.385 -0.3450  0.2584  1.1948
  183SLPC   H8Y21047   2.648   2.812  24.531 -1.5293  1.1767  0.0298
  183SLPC   C3921048   2.640   2.701  24.344 -0.1228  0.8029 -0.1382
  183SLPC   H9X21049   2.650   2.735  24.239 -0.7203 -1.1148 -0.8592
  183SLPC   H9Y21050   2.543   2.648  24.355 -0.2750  1.4274  1.9687
  183SLPC  C31021051   2.742   2.583  24.361 -0.2965 -0.3835 -0.5302
  183SLPC  H10X21052   2.715   2.533  24.457  0.7962  1.4438  0.7985
  183SLPC  H10Y21053   2.847   2.619  24.359 -0.4142  0.1664  1.4133
  183SLPC  C31121054   2.728   2.482  24.245  0.2880 -0.2529  0.1970
  183SLPC  H11X21055   2.808   2.405  24.252  1.3857  0.4753 -2.8238
  183SLPC  H11Y21056   2.735   2.525  24.143  2.6048 -0.1609  0.3299
  183SLPC  C31221057   2.596   2.404  24.261 -0.2746 -0.3445  0.3330
  183SLPC  H12X21058   2.507   2.471  24.257 -0.8993 -1.2144 -1.8585
  183SLPC  H12Y21059   2.582   2.351  24.358  0.6804 -1.1083  0.0633
  183SLPC  C31321060   2.571   2.299  24.153 -0.6943  0.9640  0.1294
  183SLPC  H13X21061   2.654   2.226  24.154  3.0980  4.8524  1.5832
  183SLPC  H13Y21062   2.589   2.351  24.057  1.8770 -1.9482 -1.1312
  183SLPC  C31421063   2.437   2.221  24.148  0.1209  0.1995 -0.1045
  183SLPC  H14X21064   2.355   2.296  24.139 -1.1404 -1.0086  1.0214
  183SLPC  H14Y21065   2.423   2.187  24.252 -1.0950  0.4130 -0.1785
  183SLPC  C31521066   2.423   2.113  24.040 -0.3780 -0.2343 -0.8603
  183SLPC  H15X21067   2.524   2.067  24.039 -0.0321  0.4322  0.5871
  183SLPC  H15Y21068   2.415   2.173  23.947  2.8137  3.1029  0.7824
  183SLPC  C31621069   2.294   2.029  24.067 -0.3615  0.4821 -0.3338
  183SLPC  H16X21070   2.279   2.020  24.177  1.5892 -0.5373 -0.1095
  183SLPC  H16Y21071   2.311   1.928  24.024 -0.4368  0.3471 -0.0528
  183SLPC  C31721072   2.171   2.078  23.995  0.2669 -0.0148 -0.1267
  183SLPC  H17X21073   2.192   2.095  23.887  0.8212 -0.5065 -0.1020
  183SLPC  H17Y21074   2.135   2.163  24.057  1.8767  0.3686  0.3381
  183SLPC  C31821075   2.053   1.976  23.990  0.3096 -0.5995  0.0938
  183SLPC  H18X21076   1.983   1.992  23.906 -0.4305 -0.8223  0.6510
  183SLPC  H18Y21077   1.995   1.989  24.084  0.7914  0.1451  0.2937
  183SLPC  H18Z21078   2.097   1.874  23.984  0.4505 -0.5535  0.3132
  184SLPC     N21079   1.205   3.783  26.953 -0.3708 -0.2891  0.4738
  184SLPC   C1321080   1.157   3.922  26.973 -0.6866  0.7317 -0.1626
  184SLPC  H13A21081   1.100   3.934  27.065 -0.7318 -0.1385 -0.0721
  184SLPC  H13B21082   1.237   3.992  26.957  1.0829 -1.2488 -0.3423
  184SLPC  H13C21083   1.092   3.940  26.889  0.1286  3.0309 -0.3780
  184SLPC   C1421084   1.083   3.704  26.937  0.0767 -0.0682  0.4342
  184SLPC  H14A21085   1.110   3.600  26.948  0.4538 -0.0242 -0.0549
  184SLPC  H14B21086   1.015   3.720  27.020  0.2833 -0.3393  0.6571
  184SLPC  H14C21087   1.024   3.716  26.848 -0.6273  0.6927  0.9867
  184SLPC   C1521088   1.283   3.725  27.071  0.4632 -0.2287 -0.4133
  184SLPC  H15A21089   1.376   3.779  27.085 -0.4115  1.6145 -1.3298
  184SLPC  H15B21090   1.219   3.723  27.157 -2.1358 -0.4819 -2.2391
  184SLPC  H15C21091   1.304   3.623  27.042  1.6473  0.1215 -0.8389
  184SLPC   C1221092   1.286   3.767  26.822  0.0647 -0.6820  0.4476
  184SLPC  H12A21093   1.233   3.799  26.733  1.2022 -1.2078 -0.4401
  184SLPC  H12B21094   1.287   3.662  26.800  0.2013 -0.8164  1.0806
  184SLPC   C1121095   1.424   3.818  26.806  0.1026  0.5219 -0.0095
  184SLPC  H11A21096   1.462   3.777  26.710  0.0145 -4.8316  1.8787
  184SLPC  H11B21097   1.485   3.769  26.885 -1.2447  0.3238  0.9422
  184SLPC     P21098   1.496   4.044  26.935 -0.3821  0.0568  0.0389
  184SLPC   O1321099   1.426   4.171  26.972 -0.1234 -0.0042 -0.1390
  184SLPC   O1421100   1.516   3.952  27.046  0.6071 -0.0907 -0.0041
  184SLPC   O1221101   1.438   3.967  26.811 -0.0202  0.0528 -0.3515
  184SLPC   O1121102   1.636   4.089  26.886  0.7075 -0.2115  0.3768
  184SLPC    C121103   1.694   4.083  26.756  0.3103 -0.4368 -0.3378
  184SLPC    HA21104   1.803   4.077  26.776  0.7025 -2.2515 -2.5614
  184SLPC    HB21105   1.657   3.999  26.693  1.9930 -0.4841 -1.3239
  184SLPC    C221106   1.681   4.215  26.677 -0.1231 -0.0635 -0.1780
  184SLPC    HS21107   1.732   4.294  26.736  1.2830 -0.0565 -1.3647
  184SLPC   O2121108   1.537   4.234  26.657 -0.1432 -0.1634  0.7542
  184SLPC   C2121109   1.490   4.332  26.719 -0.1232  0.0836 -0.1779
  184SLPC   O2221110   1.551   4.412  26.786  0.3811 -0.1527  0.3122
  184SLPC   C2221111   1.338   4.340  26.704 -0.2328  0.9131  0.0953
  184SLPC   H2R21112   1.293   4.244  26.737 -0.3974 -0.4230 -3.5293
  184SLPC   H2S21113   1.291   4.425  26.758 -1.2786  1.4864 -1.6458
  184SLPC    C321114   1.757   4.220  26.546 -0.4426  0.1084  0.4319
  184SLPC    HX21115   1.734   4.127  26.489  0.4781  0.6256 -0.8453
  184SLPC    HY21116   1.866   4.220  26.568 -0.3959  3.3000  0.7220
  184SLPC   O3121117   1.732   4.336  26.466 -0.1580  0.0920  0.0259
  184SLPC   C3121118   1.831   4.430  26.452  0.8643  0.1362 -1.4139
  184SLPC   O3221119   1.943   4.426  26.500  0.3103  0.1665  0.0570
  184SLPC   C3221120   1.775   4.554  26.386  0.3287  0.2256  0.0794
  184SLPC   H2X21121   1.831   4.648  26.407  2.5569 -1.3855  2.0151
  184SLPC   H2Y21122   1.672   4.570  26.424  1.4171 -0.8356  3.9679
  184SLPC   C2321123   1.299   4.357  26.556 -0.0522 -0.1738  0.9680
  184SLPC   H3R21124   1.190   4.340  26.545 -0.0441  0.9815 -1.5947
  184SLPC   H3S21125   1.341   4.275  26.493 -2.1958  0.0629 -0.8952
  184SLPC   C2421126   1.325   4.497  26.500  0.4685 -0.0410  1.2337
  184SLPC   H4R21127   1.427   4.506  26.457 -0.3563  0.6838 -0.6928
  184SLPC   H4S21128   1.318   4.570  26.583 -1.2594  2.9019 -1.2750
  184SLPC   C2521129   1.228   4.549  26.389 -0.9780  0.5335  0.3583
  184SLPC   H5R21130   1.237   4.659  26.374  1.7765  0.4264  0.8039
  184SLPC   H5S21131   1.122   4.524  26.411 -0.8251  0.3120  0.8429
  184SLPC   C2621132   1.255   4.480  26.258 -0.2068  0.3359  1.0207
  184SLPC   H6R21133   1.245   4.372  26.283  1.9351  0.2502  1.6345
  184SLPC   H6S21134   1.358   4.487  26.218 -0.9521 -0.4242 -1.2545
  184SLPC   C2721135   1.154   4.531  26.153  0.4005 -0.1003  0.9773
  184SLPC   H7R21136   1.162   4.642  26.146 -1.6335  0.0038 -0.6739
  184SLPC   H7S21137   1.053   4.507  26.192 -0.0951  2.4318  1.4850
  184SLPC   C2821138   1.174   4.480  26.004  0.3275  0.1506 -0.2595
  184SLPC   H8R21139   1.268   4.533  25.979 -0.5925  2.1962  0.4334
  184SLPC   H8S21140   1.108   4.537  25.935  0.5616  2.0233  1.0001
  184SLPC   C2921141   1.170   4.328  25.976  0.3897  0.1766  0.2451
  184SLPC   H9R21142   1.087   4.270  26.019 -0.4892  0.1960 -1.3395
  184SLPC  C21021143   1.253   4.251  25.906  0.3967  0.4146 -0.5403
  184SLPC  H10R21144   1.235   4.143  25.892  0.9980 -0.2794  2.9997
  184SLPC  C21121145   1.383   4.302  25.852 -0.0589  0.2104 -0.1110
  184SLPC  H11R21146   1.380   4.413  25.861 -2.0804  0.1656  0.2620
  184SLPC  H11S21147   1.397   4.268  25.747 -0.6085  0.4017 -0.2434
  184SLPC  C21221148   1.496   4.251  25.947 -0.2626 -0.5759 -0.8254
  184SLPC  H12R21149   1.459   4.222  26.047 -1.6540 -1.3394 -1.5294
  184SLPC  C21321150   1.619   4.215  25.914 -0.7678  0.0965  0.3176
  184SLPC  H13R21151   1.679   4.166  25.993  0.1616 -0.4832 -0.7238
  184SLPC  C21421152   1.688   4.242  25.787 -0.5817 -0.5954 -0.2585
  184SLPC  H14R21153   1.790   4.287  25.794 -0.4091 -1.0447  0.1385
  184SLPC  H14S21154   1.624   4.300  25.717 -1.7067 -2.1528 -0.5573
  184SLPC  C21521155   1.729   4.112  25.714  0.0607 -0.7147  0.1634
  184SLPC  H15R21156   1.643   4.052  25.678  0.9828 -1.3822 -0.9840
  184SLPC  H15S21157   1.791   4.054  25.785 -0.7213  0.9045  2.2808
  184SLPC  C21621158   1.801   4.145  25.586 -1.5006  0.0646 -0.1764
  184SLPC  H16R21159   1.905   4.171  25.613 -1.5551  1.2430 -1.0358
  184SLPC  H16S21160   1.753   4.228  25.530 -2.4417  0.1397  0.7274
  184SLPC  C21721161   1.804   4.020  25.491 -0.0918 -0.4452 -0.2888
  184SLPC  H17R21162   1.818   3.940  25.566  0.4107  0.7652  0.9460
  184SLPC  H17S21163   1.890   4.031  25.421  0.3273  2.4625  0.5500
  184SLPC  C21821164   1.682   4.007  25.401  0.1338 -0.0009  0.6671
  184SLPC  H18R21165   1.696   3.909  25.351 -0.1697  0.3570 -0.1333
  184SLPC  H18S21166   1.679   4.090  25.326 -0.2864 -0.1906  0.4725
  184SLPC  H18T21167   1.592   4.000  25.465  0.8522  1.2365  1.8605
  184SLPC   C3321168   1.743   4.525  26.238  0.1566 -0.0413  0.1464
  184SLPC   H3X21169   1.669   4.598  26.199  0.5903  0.4853  0.3048
  184SLPC   H3Y21170   1.687   4.430  26.223  1.5776 -0.6564 -1.6186
  184SLPC   C3421171   1.868   4.538  26.146  0.4771  0.1340  0.0970
  184SLPC   H4X21172   1.944   4.459  26.162 -1.9696 -2.4771 -0.3873
  184SLPC   H4Y21173   1.907   4.641  26.163  0.3344  0.1506  0.3329
  184SLPC   C3521174   1.840   4.539  25.996  0.4640  0.7303 -0.1298
  184SLPC   H5X21175   1.767   4.616  25.964 -0.7241 -0.4308 -0.2982
  184SLPC   H5Y21176   1.802   4.440  25.963 -0.4943  1.4923 -1.4057
  184SLPC   C3621177   1.981   4.558  25.925 -0.3252 -0.2391 -0.1175
  184SLPC   H6X21178   2.056   4.494  25.976 -0.2227  0.5064  0.6954
  184SLPC   H6Y21179   2.024   4.661  25.930  1.8892 -1.1075 -0.2562
  184SLPC   C3721180   1.975   4.510  25.777 -0.3745 -0.0557 -0.0856
  184SLPC   H7X21181   1.938   4.405  25.771  0.8200 -0.4330 -1.3292
  184SLPC   H7Y21182   2.079   4.509  25.740 -0.5629  0.2573 -0.6388
  184SLPC   C3821183   1.896   4.593  25.681 -0.2933 -0.6311 -0.0630
  184SLPC   H8X21184   1.910   4.702  25.700  0.3140 -1.1035  2.5489
  184SLPC   H8Y21185   1.787   4.575  25.688 -0.2406 -0.9742 -0.1367
  184SLPC   C3921186   1.956   4.580  25.537 -0.1567 -0.1417 -0.3228
  184SLPC   H9X21187   1.877   4.621  25.470 -0.0218 -0.6901 -0.8148
  184SLPC   H9Y21188   1.961   4.476  25.499 -0.4512  0.2223 -1.3977
  184SLPC  C31021189   2.078   4.675  25.506 -0.1628 -0.0303  0.0756
  184SLPC  H10X21190   2.152   4.681  25.588  0.4941 -2.2323 -0.2931
  184SLPC  H10Y21191   2.038   4.778  25.490  0.4903 -0.0026 -1.6039
  184SLPC  C31121192   2.166   4.621  25.389  0.3706  0.1722 -0.1620
  184SLPC  H11X21193   2.248   4.696  25.390 -0.3730  1.2318  4.2857
  184SLPC  H11Y21194   2.113   4.620  25.291  0.6592 -1.0364 -0.3209
  184SLPC  C31221195   2.235   4.486  25.422 -0.2378  0.0504 -0.0398
  184SLPC  H12X21196   2.146   4.424  25.443 -1.6198  1.1539 -2.2293
  184SLPC  H12Y21197   2.292   4.492  25.517  0.5743 -3.5804 -0.1566
  184SLPC  C31321198   2.315   4.438  25.303  0.1734  0.8155 -0.2989
  184SLPC  H13X21199   2.390   4.517  25.287  0.9719  0.3592  1.0087
  184SLPC  H13Y21200   2.242   4.422  25.221 -0.9727 -2.7222  1.1966
  184SLPC  C31421201   2.390   4.308  25.337 -0.4165  0.4690  0.6955
  184SLPC  H14X21202   2.313   4.229  25.350  1.6107 -1.8027 -0.3701
  184SLPC  H14Y21203   2.451   4.322  25.429  2.6733 -0.6101 -1.0631
  184SLPC  C31521204   2.476   4.258  25.206  0.7687  0.5162 -0.3161
  184SLPC  H15X21205   2.551   4.336  25.181  0.8969  0.2309 -0.8356
  184SLPC  H15Y21206   2.406   4.244  25.121  1.1971 -1.7820 -0.3380
  184SLPC  C31621207   2.548   4.129  25.243  0.2214  0.3899 -0.4937
  184SLPC  H16X21208   2.566   4.065  25.154 -2.5706 -1.1822 -0.0634
  184SLPC  H16Y21209   2.483   4.062  25.304 -0.6013  1.6604  0.0677
  184SLPC  C31721210   2.675   4.144  25.328 -0.2077  0.1224 -0.3727
  184SLPC  H17X21211   2.712   4.040  25.334  0.1999 -0.1695 -4.6195
  184SLPC  H17Y21212   2.663   4.191  25.428  0.7989  1.3299 -0.7874
  184SLPC  C31821213   2.782   4.225  25.264 -0.4864 -0.6919  0.2715
  184SLPC  H18X21214   2.806   4.192  25.160 -0.2942  0.8699 -0.2048
  184SLPC  H18Y21215   2.877   4.213  25.319 -0.0466  0.0321 -0.3062
  184SLPC  H18Z21216   2.760   4.333  25.257  1.5940 -0.2854 -0.9972
  185SLPC     N21217   2.756   2.513  12.729  0.4609  0.4553 -0.4520
  185SLPC   C1321218   2.895   2.555  12.702  0.6748 -0.1535 -0.0722
  185SLPC  H13A21219   2.917   2.550  12.597 -2.3082 -1.3175 -0.7492
  185SLPC  H13B21220   2.909   2.657  12.734 -1.3319  0.9097 -2.2795
  185SLPC  H13C21221   2.967   2.494  12.755  1.3478  0.1978 -0.5746
  185SLPC   C1421222   2.723   2.387  12.659 -0.3864  0.9636  0.2136
  185SLPC  H14A21223   2.616   2.381  12.644 -0.3311  0.4805  0.0041
  185SLPC  H14B21224   2.775   2.372  12.566 -1.8975 -1.9518 -0.2521
  185SLPC  H14C21225   2.753   2.301  12.717 -1.2286 -0.2661 -1.1124
  185SLPC   C1521226   2.668   2.624  12.681 -0.5567  0.0238 -0.2193
  185SLPC  H15A21227   2.566   2.589  12.693  0.1703 -1.3372  2.6036
  185SLPC  H15B21228   2.681   2.706  12.749 -1.9158 -1.1386  1.5347
  185SLPC  H15C21229   2.674   2.653  12.577 -1.0803  1.3340  0.0962
  185SLPC   C1221230   2.721   2.498  12.884  0.5251 -0.4010 -0.0410
  185SLPC  H12A21231   2.750   2.403  12.928 -1.7382 -1.4478 -0.6705
  185SLPC  H12B21232   2.615   2.506  12.904  0.4624  2.6425 -1.1291
  185SLPC   C1121233   2.768   2.613  12.982 -0.7333 -0.1857 -0.1167
  185SLPC  H11A21234   2.879   2.620  12.976 -0.5196 -1.1508  1.9401
  185SLPC  H11B21235   2.743   2.583  13.086  0.9948 -1.1064  0.0630
  185SLPC     P21236   2.777   2.868  12.932  0.0164  0.0430  0.0470
  185SLPC   O1321237   2.885   2.851  12.828  0.1647  0.5007  0.0447
  185SLPC   O1421238   2.690   2.987  12.915  0.7203 -0.3295  0.6369
  185SLPC   O1221239   2.698   2.738  12.948  0.2771  0.3782 -0.3242
  185SLPC   O1121240   2.857   2.876  13.068  0.3377  0.5677 -0.3108
  185SLPC    C121241   2.815   2.950  13.183  0.0740 -0.0685 -0.1262
  185SLPC    HA21242   2.876   3.042  13.187  0.9862 -0.6544 -0.2724
  185SLPC    HB21243   2.707   2.975  13.188  0.3516  0.9115  1.6209
  185SLPC    C221244   2.854   2.875  13.316 -0.9113  0.6355 -0.4419
  185SLPC    HS21245   2.809   2.940  13.395 -3.0517 -0.6389 -0.5484
  185SLPC   O2121246   3.000   2.854  13.323  0.4003  0.1755 -0.9041
  185SLPC   C2121247   3.053   2.881  13.443 -0.4240 -0.8551  0.5379
  185SLPC   O2221248   2.990   2.915  13.541  0.4265 -0.2085  0.2861
  185SLPC   C2221249   3.197   2.871  13.439  0.4992  0.7637 -0.3391
  185SLPC   H2R21250   3.233   2.774  13.397 -1.9443 -0.3361 -0.0374
  185SLPC   H2S21251   3.235   2.947  13.368  2.1058  0.9256  0.6341
  185SLPC    C321252   2.785   2.735  13.339 -0.1854 -0.1652  0.0699
  185SLPC    HX21253   2.820   2.663  13.261 -0.7801 -2.5994  1.9232
  185SLPC    HY21254   2.678   2.758  13.321 -0.6250 -0.3682  2.1555
  185SLPC   O3121255   2.806   2.683  13.470 -0.3570  0.2524 -0.1196
  185SLPC   C3121256   2.904   2.600  13.491 -0.2402  0.4705 -0.0774
  185SLPC   O3221257   2.988   2.564  13.414 -0.0846  0.1692  0.2268
  185SLPC   C3221258   2.905   2.542  13.629  0.1772  0.6269  0.0402
  185SLPC   H2X21259   2.844   2.449  13.624  1.4373 -0.2309  0.2094
  185SLPC   H2Y21260   2.860   2.614  13.701  0.1209 -1.0355  1.7519
  185SLPC   C2321261   3.270   2.896  13.577 -0.0119  0.9999 -0.4622
  185SLPC   H3R21262   3.234   2.816  13.646 -0.9059  0.2478 -1.7528
  185SLPC   H3S21263   3.233   2.994  13.613  1.7087  1.1352  1.0836
  185SLPC   C2421264   3.415   2.903  13.559  0.2533  0.6097  0.0722
  185SLPC   H4R21265   3.434   2.982  13.484  1.0985 -0.0166 -0.3845
  185SLPC   H4S21266   3.450   2.814  13.502  1.8156  0.5527  1.0615
  185SLPC   C2521267   3.501   2.917  13.686 -0.2364  0.5334 -0.4452
  185SLPC   H5R21268   3.485   2.837  13.762 -2.6573  1.4916  0.1601
  185SLPC   H5S21269   3.453   3.003  13.739  3.5657  2.8849 -0.4639
  185SLPC   C2621270   3.646   2.958  13.664 -0.4642 -0.7917 -0.8011
  185SLPC   H6R21271   3.650   3.054  13.608 -1.0112  0.7512  1.6766
  185SLPC   H6S21272   3.697   2.878  13.606  0.5642 -2.5937  2.3725
  185SLPC   C2721273   3.725   2.985  13.799 -0.5070 -0.2317  0.0766
  185SLPC   H7R21274   3.659   3.050  13.860  0.0103 -0.7931  1.2578
  185SLPC   H7S21275   3.814   3.044  13.771 -1.0511  0.9319  0.7300
  185SLPC   C2821276   3.767   2.860  13.866 -0.4349 -0.5090  1.0819
  185SLPC   H8R21277   3.840   2.804  13.804 -1.5541 -1.0150  0.1967
  185SLPC   H8S21278   3.680   2.792  13.881 -1.8568  1.2687  1.2223
  185SLPC   C2921279   3.837   2.903  13.997  1.1327 -0.5307 -1.1973
  185SLPC   H9R21280   3.927   2.964  13.980  0.6516  0.0442 -1.7810
  185SLPC  C21021281   3.780   2.893  14.119  0.0909 -0.3288  0.1520
  185SLPC  H10R21282   3.828   2.925  14.213 -1.3145 -0.1235  0.8239
  185SLPC  C21121283   3.657   2.814  14.157  0.3772 -1.0898  0.0234
  185SLPC  H11R21284   3.671   2.809  14.267 -0.4593 -2.3968  0.0973
  185SLPC  H11S21285   3.665   2.708  14.124  2.2356 -1.6343  1.9835
  185SLPC  C21221286   3.516   2.871  14.136  0.6715 -0.7551 -0.1551
  185SLPC  H12R21287   3.510   2.977  14.106  1.2575 -0.9153 -0.8542
  185SLPC  C21321288   3.405   2.788  14.120  0.1366 -0.6622 -0.0513
  185SLPC  H13R21289   3.308   2.838  14.105  2.0922  3.1885 -1.3348
  185SLPC  C21421290   3.409   2.645  14.157  0.5085  0.1331  0.7424
  185SLPC  H14R21291   3.477   2.623  14.242  1.7430  0.1061 -0.2143
  185SLPC  H14S21292   3.451   2.587  14.071  0.2993  1.1985 -0.0928
  185SLPC  C21521293   3.263   2.583  14.175 -0.3238 -1.1855 -0.4912
  185SLPC  H15R21294   3.273   2.473  14.175 -0.5462 -1.2170 -2.0209
  185SLPC  H15S21295   3.194   2.609  14.092  0.3929  0.4299 -0.6176
  185SLPC  C21621296   3.213   2.628  14.316 -0.6872  0.0711  0.2674
  185SLPC  H16R21297   3.177   2.733  14.309 -1.7426 -0.2399  0.8627
  185SLPC  H16S21298   3.293   2.603  14.389 -1.1785 -0.5461  0.6044
  185SLPC  C21721299   3.091   2.539  14.356  0.4069  0.0868 -0.1607
  185SLPC  H17R21300   3.117   2.439  14.316  1.6473 -0.2714  1.4205
  185SLPC  H17S21301   3.001   2.576  14.304  0.7167 -0.5508 -1.1771
  185SLPC  C21821302   3.055   2.526  14.505 -0.6924  0.7109  0.0461
  185SLPC  H18R21303   3.016   2.620  14.548 -1.4427  1.0444 -1.2961
  185SLPC  H18S21304   3.150   2.512  14.560 -0.8728 -1.2004 -0.0647
  185SLPC  H18T21305   2.998   2.431  14.519 -3.2169  2.0439 -0.6349
  185SLPC   C3321306   3.044   2.501  13.681 -0.3562 -0.1591 -0.2828
  185SLPC   H3X21307   3.098   2.584  13.733  0.7157 -0.9949 -0.0306
  185SLPC   H3Y21308   3.108   2.460  13.601 -1.8114  0.7779 -2.0024
  185SLPC   C3421309   3.024   2.404  13.793  0.5598 -0.0333 -0.0615
  185SLPC   H4X21310   2.979   2.307  13.763  2.4825 -1.5874  1.7229
  185SLPC   H4Y21311   2.952   2.452  13.863  1.7778  0.1808  1.0914
  185SLPC   C3521312   3.156   2.376  13.864  0.7438  0.5135 -0.0835
  185SLPC   H5X21313   3.210   2.471  13.881  1.7531 -0.2051  0.9068
  185SLPC   H5Y21314   3.228   2.330  13.792  3.4496  1.4887  1.8420
  185SLPC   C3621315   3.134   2.288  13.986 -0.8145 -0.7432  0.1457
  185SLPC   H6X21316   3.054   2.213  13.970 -0.6459 -1.5170  2.5288
  185SLPC   H6Y21317   3.102   2.347  14.074 -2.1713  1.7832 -1.8721
  185SLPC   C3721318   3.260   2.202  14.002 -0.6911  0.2198 -0.1105
  185SLPC   H7X21319   3.343   2.275  14.012  0.0055 -0.2497 -2.0037
  185SLPC   H7Y21320   3.285   2.139  13.914  1.8025  1.0419 -0.0775
  185SLPC   C3821321   3.241   2.099  14.119  0.3369  0.1215  0.5239
  185SLPC   H8X21322   3.311   2.014  14.102  1.9611  1.5332 -0.1082
  185SLPC   H8Y21323   3.138   2.056  14.112  0.8236 -0.9734 -0.1702
  185SLPC   C3921324   3.258   2.158  14.256 -0.2697 -0.1408  0.4168
  185SLPC   H9X21325   3.207   2.255  14.275  1.0215  0.8861 -1.1404
  185SLPC   H9Y21326   3.360   2.201  14.253  0.2741 -1.4524 -0.7527
  185SLPC  C31021327   3.247   2.056  14.370 -0.2254  0.2930  0.1537
  185SLPC  H10X21328   3.265   1.955  14.329 -0.3711 -0.5326  2.0126
  185SLPC  H10Y21329   3.142   2.060  14.404 -0.7849  0.7643 -1.5417
  185SLPC  C31121330   3.334   2.099  14.496 -0.1873 -0.7837 -0.2035
  185SLPC  H11X21331   3.271   2.182  14.534 -1.8552 -2.4117  0.7395
  185SLPC  H11Y21332   3.440   2.119  14.469 -1.1053 -0.1353 -3.8274
  185SLPC  C31221333   3.323   2.004  14.615  0.1019  0.3768  0.0159
  185SLPC  H12X21334   3.217   1.983  14.643  0.6511 -0.5909  1.4465
  185SLPC  H12Y21335   3.385   2.041  14.699 -2.1653  2.8364  0.7618
  185SLPC  C31321336   3.372   1.862  14.572 -0.0302  0.3296  0.2236
  185SLPC  H13X21337   3.458   1.877  14.502 -1.1516  2.2614 -0.8353
  185SLPC  H13Y21338   3.290   1.812  14.518 -1.8019  2.3323  0.9215
  185SLPC  C31421339   3.415   1.779  14.689 -0.3642  0.3496 -0.1051
  185SLPC  H14X21340   3.503   1.817  14.746  1.4280 -1.2559 -1.6810
  185SLPC  H14Y21341   3.447   1.676  14.665 -1.1727  0.1189 -0.2205
  185SLPC  C31521342   3.304   1.753  14.792 -0.5856  0.4220  0.4301
  185SLPC  H15X21343   3.226   1.700  14.734 -1.5678 -0.3721  2.3868
  185SLPC  H15Y21344   3.261   1.846  14.836 -1.0281  0.1323  0.6200
  185SLPC  C31621345   3.346   1.654  14.907  0.4206  0.0175 -0.4251
  185SLPC  H16X21346   3.422   1.707  14.969  0.7272 -0.1788 -0.6268
  185SLPC  H16Y21347   3.415   1.577  14.865  1.2345  2.1693 -3.3258
  185SLPC  C31721348   3.235   1.589  14.987 -0.0485  0.3458  0.0472
  185SLPC  H17X21349   3.177   1.506  14.942 -0.4619 -0.3997  1.8350
  185SLPC  H17Y21350   3.169   1.674  15.014 -0.2161  1.3591 -3.1570
  185SLPC  C31821351   3.272   1.529  15.127 -0.5777  0.3202  0.0455
  185SLPC  H18X21352   3.297   1.614  15.195 -0.1660  2.3518 -2.4737
  185SLPC  H18Y21353   3.367   1.481  15.095  0.9282  1.9750  1.7584
  185SLPC  H18Z21354   3.199   1.458  15.170 -1.2750  1.2400  0.4151
  186SLPC     N21355   4.246   4.128  13.367  0.1039 -0.3222 -0.1236
  186SLPC   C1321356   4.396   4.155  13.357 -0.6583  0.5925 -0.2712
  186SLPC  H13A21357   4.437   4.059  13.329 -3.2571  0.1935 -3.3245
  186SLPC  H13B21358   4.405   4.226  13.276  0.5670 -0.6036 -1.2278
  186SLPC  H13C21359   4.444   4.196  13.444  0.3818 -0.8678 -0.1287
  186SLPC   C1421360   4.196   4.054  13.245  0.3537  0.1359  0.6280
  186SLPC  H14A21361   4.089   4.041  13.237  0.6513 -1.6664 -1.3769
  186SLPC  H14B21362   4.213   4.112  13.156  2.4709 -1.7355 -0.2696
  186SLPC  H14C21363   4.248   3.963  13.222  0.4252 -0.3310  2.4259
  186SLPC   C1521364   4.191   4.267  13.372  0.0150  0.1032  0.7071
  186SLPC  H15A21365   4.255   4.322  13.441 -0.9412  1.5702  0.4807
  186SLPC  H15B21366   4.197   4.315  13.276 -1.1472  1.3177  1.2124
  186SLPC  H15C21367   4.088   4.271  13.404 -0.1384 -0.0611  0.2350
  186SLPC   C1221368   4.217   4.057  13.502  0.4819 -0.1919  0.8156
  186SLPC  H12A21369   4.239   3.952  13.486  1.5562  0.0418  0.6626
  186SLPC  H12B21370   4.110   4.064  13.514  0.3120  3.5084 -1.2933
  186SLPC   C1121371   4.291   4.100  13.628  0.0135 -0.3491 -0.6923
  186SLPC  H11A21372   4.229   4.075  13.717 -1.2956  0.7528 -1.2694
  186SLPC  H11B21373   4.299   4.210  13.639 -0.5514 -0.4158  0.6488
  186SLPC     P21374   4.448   3.886  13.645 -0.6000 -0.2346  0.0872
  186SLPC   O1321375   4.416   3.831  13.511 -0.0510  0.0502  0.4313
  186SLPC   O1421376   4.581   3.867  13.705  0.6826  0.2227  0.2260
  186SLPC   O1221377   4.424   4.037  13.636 -0.2616 -0.6131 -0.2458
  186SLPC   O1121378   4.337   3.834  13.739  0.1712  0.0809  0.3102
  186SLPC    C121379   4.337   3.786  13.869  0.0198  0.1586  0.2191
  186SLPC    HA21380   4.408   3.847  13.929 -0.1517 -0.2151  0.8116
  186SLPC    HB21381   4.242   3.807  13.923 -0.2009 -0.2425 -0.0079
  186SLPC    C221382   4.369   3.632  13.875  0.4855  0.7326  0.1629
  186SLPC    HS21383   4.431   3.612  13.785  0.2837  0.8994 -0.0147
  186SLPC   O2121384   4.250   3.557  13.880 -0.0678 -0.7024 -0.2085
  186SLPC   C2121385   4.192   3.542  13.763 -0.7649  0.4538  0.1095
  186SLPC   O2221386   4.241   3.571  13.658  0.0030 -0.6536 -0.2368
  186SLPC   C2221387   4.074   3.452  13.776  0.3787  0.7364  0.4182
  186SLPC   H2R21388   3.990   3.523  13.798 -0.2079  1.0424 -2.4189
  186SLPC   H2S21389   4.058   3.418  13.672  0.4716  1.1503  0.2657
  186SLPC    C321390   4.456   3.594  13.993  0.2125 -0.0990 -0.1497
  186SLPC    HX21391   4.558   3.633  13.974  0.0214  0.2099 -0.5603
  186SLPC    HY21392   4.471   3.485  14.012  1.2337 -0.0037 -0.3414
  186SLPC   O3121393   4.391   3.648  14.108 -0.4864  0.5837 -0.7430
  186SLPC   C3121394   4.469   3.632  14.219  0.7314 -0.8338  0.3996
  186SLPC   O3221395   4.573   3.567  14.222  0.5099  0.0684  0.2553
  186SLPC   C3221396   4.408   3.718  14.330  0.5895 -0.9031  0.3197
  186SLPC   H2X21397   4.305   3.677  14.337 -0.1482  0.7887 -0.0007
  186SLPC   H2Y21398   4.396   3.818  14.282  0.6938 -1.0317  0.0253
  186SLPC   C2321399   4.085   3.341  13.873  0.0478  0.0502 -0.1183
  186SLPC   H3R21400   4.131   3.352  13.974  0.4001 -1.8846 -0.0318
  186SLPC   H3S21401   4.146   3.261  13.826  1.0886  0.6829  0.1158
  186SLPC   C2421402   3.952   3.271  13.902 -0.0187 -0.8967  0.7853
  186SLPC   H4R21403   3.958   3.175  13.957  0.7382 -0.5937  1.2361
  186SLPC   H4S21404   3.887   3.254  13.814 -1.3805  2.2029  1.0550
  186SLPC   C2521405   3.856   3.363  13.981 -0.2731 -0.5310 -1.0683
  186SLPC   H5R21406   3.796   3.431  13.917 -2.8191 -2.0932 -0.4807
  186SLPC   H5S21407   3.920   3.419  14.052 -3.0667  0.7059  0.6179
  186SLPC   C2621408   3.754   3.289  14.075  0.8059  0.0117  0.4956
  186SLPC   H6R21409   3.815   3.225  14.142  1.0601 -0.0925  0.1712
  186SLPC   H6S21410   3.681   3.228  14.018 -2.4325  1.7752  2.4178
  186SLPC   C2721411   3.664   3.390  14.151 -0.3833  0.1720  0.3647
  186SLPC   H7R21412   3.629   3.464  14.077  0.0887  2.1633  2.0316
  186SLPC   H7S21413   3.719   3.450  14.227  0.1842 -1.4110  1.2548
  186SLPC   C2821414   3.541   3.330  14.221  0.6760 -0.0761  0.1742
  186SLPC   H8R21415   3.489   3.267  14.145 -0.1121 -0.0941  0.7194
  186SLPC   H8S21416   3.463   3.405  14.245 -0.5693 -1.7584  1.7187
  186SLPC   C2921417   3.582   3.258  14.342  0.0537  0.1629 -1.1736
  186SLPC   H9R21418   3.641   3.168  14.319  1.0920  0.3063  0.6928
  186SLPC  C21021419   3.553   3.291  14.467 -0.4700  0.8023  0.1502
  186SLPC  H10R21420   3.581   3.215  14.541  1.3003  2.3320  1.1321
  186SLPC  C21121421   3.481   3.412  14.514  0.0573  1.1059  0.4193
  186SLPC  H11R21422   3.495   3.508  14.460  0.1089  1.0679  0.3655
  186SLPC  H11S21423   3.529   3.439  14.611  1.7295 -1.1546  0.2923
  186SLPC  C21221424   3.332   3.390  14.518 -0.1180  0.3311 -0.2705
  186SLPC  H12R21425   3.282   3.413  14.423  1.1568  0.5681 -0.9160
  186SLPC  C21321426   3.250   3.371  14.626  0.2816 -0.8077 -0.4483
  186SLPC  H13R21427   3.144   3.361  14.597  0.3101 -3.1683  0.0515
  186SLPC  C21421428   3.288   3.365  14.773 -0.4591 -0.0158  0.0162
  186SLPC  H14R21429   3.396   3.358  14.798 -0.6541 -1.8915  0.4492
  186SLPC  H14S21430   3.237   3.276  14.815  0.9369 -1.3473 -1.0106
  186SLPC  C21521431   3.235   3.490  14.846 -0.6181  0.1086  0.2831
  186SLPC  H15R21432   3.128   3.513  14.829 -0.6598 -1.0395 -1.2051
  186SLPC  H15S21433   3.292   3.579  14.811 -2.3522  1.3242  0.3959
  186SLPC  C21621434   3.242   3.481  14.999 -0.4403 -0.0426 -0.4245
  186SLPC  H16R21435   3.347   3.446  15.016 -0.0792  1.3209  0.3543
  186SLPC  H16S21436   3.172   3.402  15.032  0.2505 -0.8013 -0.7585
  186SLPC  C21721437   3.221   3.610  15.074  0.2253 -0.2089 -0.3946
  186SLPC  H17R21438   3.310   3.676  15.079  0.9230 -1.2239  1.4874
  186SLPC  H17S21439   3.198   3.591  15.181 -3.0488  2.0360 -0.5504
  186SLPC  C21821440   3.092   3.693  15.045  0.1548  0.4029 -0.0057
  186SLPC  H18R21441   3.009   3.620  15.059  0.1542  0.6513  1.4844
  186SLPC  H18S21442   3.080   3.731  14.941 -2.0814  1.2171  0.4916
  186SLPC  H18T21443   3.078   3.770  15.124 -1.1905  0.4000 -0.2266
  186SLPC   C3321444   4.500   3.708  14.449 -0.7995 -0.3041  0.3073
  186SLPC   H3X21445   4.481   3.805  14.501  0.0629  1.4757 -2.4641
  186SLPC   H3Y21446   4.608   3.708  14.421 -1.1835  0.2785 -1.2701
  186SLPC   C3421447   4.467   3.588  14.544  0.1243 -0.0170 -0.4776
  186SLPC   H4X21448   4.542   3.592  14.626 -2.6854  0.4152  2.2173
  186SLPC   H4Y21449   4.468   3.490  14.491 -0.3096  0.5080 -1.4888
  186SLPC   C3521450   4.331   3.591  14.611  0.4666 -0.9035 -0.5496
  186SLPC   H5X21451   4.320   3.501  14.677  3.0933 -2.7999 -2.5010
  186SLPC   H5Y21452   4.249   3.582  14.536  0.6704 -0.1285 -0.8718
  186SLPC   C3621453   4.306   3.716  14.699  0.8636  0.5056 -0.3163
  186SLPC   H6X21454   4.324   3.811  14.645  1.9600  1.5658  1.8135
  186SLPC   H6Y21455   4.375   3.722  14.786  2.0058  2.1360 -1.2866
  186SLPC   C3721456   4.159   3.711  14.760 -0.2222  0.2322  0.7493
  186SLPC   H7X21457   4.153   3.633  14.839 -3.0942  0.7539  1.1622
  186SLPC   H7Y21458   4.087   3.687  14.679 -0.7334 -0.1782  1.3136
  186SLPC   C3821459   4.105   3.841  14.823  0.8791  0.2021 -0.6411
  186SLPC   H8X21460   4.108   3.914  14.739  0.8562  0.3635 -0.5040
  186SLPC   H8Y21461   4.181   3.871  14.899  2.6582 -1.5963 -1.6199
  186SLPC   C3921462   3.967   3.829  14.887  0.5090 -0.2250  0.0076
  186SLPC   H9X21463   3.963   3.747  14.962  1.1017 -1.0001 -0.7977
  186SLPC   H9Y21464   3.893   3.786  14.816 -1.4646 -0.9422  2.3606
  186SLPC  C31021465   3.924   3.961  14.943 -0.6774  0.2384  0.7176
  186SLPC  H10X21466   3.911   4.037  14.863 -1.1734  0.4150  0.9628
  186SLPC  H10Y21467   4.012   3.992  15.002  1.2636 -0.4941 -1.5972
  186SLPC  C31121468   3.793   3.946  15.031  0.0845  0.0860  0.4020
  186SLPC  H11X21469   3.823   3.887  15.120 -2.2769 -3.5781 -0.9932
  186SLPC  H11Y21470   3.725   3.887  14.965 -0.4394  1.3169 -0.1889
  186SLPC  C31221471   3.720   4.079  15.045 -0.2279 -0.3122 -0.2334
  186SLPC  H12X21472   3.689   4.115  14.944 -0.2824 -3.3977 -1.4224
  186SLPC  H12Y21473   3.793   4.150  15.090 -0.7245  0.4140 -0.5388
  186SLPC  C31321474   3.597   4.075  15.129  1.3514  0.1710 -0.1554
  186SLPC  H13X21475   3.568   4.177  15.162 -1.0154 -0.7546  0.8851
  186SLPC  H13Y21476   3.623   4.025  15.225 -1.2032 -2.4725 -0.6980
  186SLPC  C31421477   3.476   4.011  15.060 -0.1434  0.4334 -0.1150
  186SLPC  H14X21478   3.488   3.900  15.052 -3.3238 -0.3172  2.8110
  186SLPC  H14Y21479   3.461   4.051  14.958  2.3735  1.4016 -0.1749
  186SLPC  C31521480   3.341   4.022  15.135  0.2759 -0.3610 -0.2071
  186SLPC  H15X21481   3.352   4.051  15.242  0.1684  0.4964 -0.4217
  186SLPC  H15Y21482   3.291   3.923  15.137 -0.8272  0.1948  1.7817
  186SLPC  C31621483   3.252   4.129  15.073  0.4407 -0.3603  0.2246
  186SLPC  H16X21484   3.320   4.212  15.044  0.3618 -1.1869 -2.5434
  186SLPC  H16Y21485   3.171   4.153  15.145  0.4878 -1.2780  0.6061
  186SLPC  C31721486   3.187   4.085  14.944  0.0824  0.7009  0.1076
  186SLPC  H17X21487   3.099   4.025  14.978 -0.8869  2.8929  1.6975
  186SLPC  H17Y21488   3.260   4.022  14.888 -0.7556  0.0214 -0.2415
  186SLPC  C31821489   3.133   4.194  14.860  0.1593  0.3811 -0.0168
  186SLPC  H18X21490   3.115   4.170  14.753  4.1808  2.7174 -1.4752
  186SLPC  H18Y21491   3.212   4.271  14.846  1.3801 -0.9057 -0.4851
  186SLPC  H18Z21492   3.042   4.238  14.906 -0.5196  0.1790 -1.1331
  187SLPC     N21493   1.531   0.230  15.041  0.3131  0.1438 -0.3018
  187SLPC   C1321494   1.675   0.257  15.074  0.3564  0.0871 -0.7330
  187SLPC  H13A21495   1.732   0.170  15.043 -0.2932 -0.9634  0.9105
  187SLPC  H13B21496   1.711   0.345  15.021 -0.8178  0.2694 -1.2520
  187SLPC  H13C21497   1.684   0.274  15.180 -1.3783  0.2953 -0.5932
  187SLPC   C1421498   1.527   0.209  14.890  0.0060  0.2200 -0.4856
  187SLPC  H14A21499   1.579   0.280  14.828 -0.7781  0.4144 -0.9297
  187SLPC  H14B21500   1.566   0.110  14.873 -1.2419 -0.7037  1.5879
  187SLPC  H14C21501   1.431   0.211  14.840 -0.1284 -0.0527 -0.2445
  187SLPC   C1521502   1.463   0.363  15.074 -0.1637 -0.6711 -0.8299
  187SLPC  H15A21503   1.357   0.342  15.079  0.0156 -1.4551 -0.0575
  187SLPC  H15B21504   1.483   0.382  15.179  0.4967  0.7577 -1.1961
  187SLPC  H15C21505   1.483   0.443  15.005 -2.4588 -0.4942 -1.3658
  187SLPC   C1221506   1.470   0.119  15.121  0.2627  0.5118  0.7885
  187SLPC  H12A21507   1.464   0.140  15.227 -3.9494 -2.6000  1.4271
  187SLPC  H12B21508   1.541   0.039  15.107  0.1995  0.5477  0.2523
  187SLPC   C1121509   1.330   0.059  15.081  0.0833 -0.2244  0.1504
  187SLPC  H11A21510   1.330  -0.031  15.146 -0.4491 -0.2661  0.0944
  187SLPC  H11B21511   1.339   0.022  14.977  4.6563  0.0151  0.2773
  187SLPC     P21512   1.171   0.168  15.252  0.0533 -0.3858  0.0357
  187SLPC   O1321513   1.277   0.133  15.350  0.1705 -0.0338 -0.1501
  187SLPC   O1421514   1.109   0.299  15.251  0.0014 -0.1653  0.7055
  187SLPC   O1221515   1.220   0.139  15.106  0.5467  0.1932  0.7485
  187SLPC   O1121516   1.045   0.069  15.270  0.2506 -0.7447  0.0612
  187SLPC    C121517   1.057  -0.076  15.285 -0.1294 -0.4665 -0.6206
  187SLPC    HA21518   1.041  -0.127  15.188 -0.6586 -0.2041 -0.6777
  187SLPC    HB21519   1.154  -0.103  15.331  0.6422 -0.6607 -2.2943
  187SLPC    C221520   0.951  -0.134  15.384 -0.0325  0.5915 -0.2346
  187SLPC    HS21521   0.990  -0.236  15.405  1.1530  1.1418  0.3523
  187SLPC   O2121522   0.818  -0.123  15.329  0.9522  0.5416  0.6468
  187SLPC   C2121523   0.797  -0.209  15.234  0.0140 -0.3796  0.3255
  187SLPC   O2221524   0.862  -0.312  15.216  1.2030  0.2408  0.4279
  187SLPC   C2221525   0.674  -0.161  15.148  0.1829  0.0373 -0.5870
  187SLPC   H2R21526   0.665  -0.050  15.159  0.0082  0.0665 -0.9911
  187SLPC   H2S21527   0.710  -0.174  15.044 -0.1765 -0.9932 -0.5893
  187SLPC    C321528   0.952  -0.065  15.527 -0.1249  0.2759  1.2024
  187SLPC    HX21529   0.916   0.039  15.517  1.4061  0.6728 -1.1018
  187SLPC    HY21530   1.058  -0.050  15.558  0.6041  0.2059 -1.0356
  187SLPC   O3121531   0.892  -0.143  15.620  0.2005 -0.4311  0.4675
  187SLPC   C3121532   0.770  -0.102  15.654 -0.4779 -0.0489  0.3369
  187SLPC   O3221533   0.709  -0.008  15.607 -0.2699 -0.4825  0.0144
  187SLPC   C3221534   0.719  -0.200  15.760 -0.6667  0.2192 -0.2110
  187SLPC   H2X21535   0.785  -0.190  15.849 -3.2808 -0.5992  1.9591
  187SLPC   H2Y21536   0.741  -0.304  15.729 -0.2644  0.4643 -0.7856
  187SLPC   C2321537   0.548  -0.245  15.184 -0.3715 -0.2308 -0.0743
  187SLPC   H3R21538   0.566  -0.353  15.167  0.2461 -0.3962  1.4805
  187SLPC   H3S21539   0.472  -0.220  15.106 -0.4185 -0.5716 -0.1403
  187SLPC   C2421540   0.501  -0.216  15.324  0.1966  0.2513 -0.1783
  187SLPC   H4R21541   0.499  -0.105  15.314 -0.1140  0.1899 -0.8706
  187SLPC   H4S21542   0.580  -0.239  15.399 -0.9206  0.2992  1.0457
  187SLPC   C2521543   0.362  -0.270  15.367 -0.5042  0.0216  0.0000
  187SLPC   H5R21544   0.371  -0.380  15.359  2.6233  0.1480  0.5368
  187SLPC   H5S21545   0.288  -0.230  15.295 -0.4496 -2.0009 -1.2451
  187SLPC   C2621546   0.318  -0.219  15.510 -0.3227  0.6151  0.3189
  187SLPC   H6R21547   0.362  -0.118  15.518  0.9601  0.0139  1.2965
  187SLPC   H6S21548   0.373  -0.288  15.578 -0.2964  0.4101  0.0961
  187SLPC   C2721549   0.167  -0.218  15.526 -0.2605  0.0170  0.4564
  187SLPC   H7R21550   0.132  -0.322  15.514 -0.8492  0.2651 -0.0239
  187SLPC   H7S21551   0.133  -0.153  15.443  1.0684  0.1282 -0.0215
  187SLPC   C2821552   0.114  -0.149  15.656 -0.6246 -0.1585  0.2369
  187SLPC   H8R21553   0.159  -0.048  15.672 -2.0228  0.5159  0.0433
  187SLPC   H8S21554   0.157  -0.208  15.739  1.3169 -0.0996 -0.6688
  187SLPC   C2921555  -0.036  -0.134  15.650  0.0884 -0.8987  0.1029
  187SLPC   H9R21556  -0.081  -0.095  15.557 -1.3525 -4.1222 -0.7230
  187SLPC  C21021557  -0.119  -0.173  15.741  0.2915  0.3542 -0.8964
  187SLPC  H10R21558  -0.225  -0.160  15.715 -0.1853 -2.0694 -0.3545
  187SLPC  C21121559  -0.085  -0.244  15.870  0.2008 -0.1724  0.1953
  187SLPC  H11R21560   0.008  -0.195  15.907 -0.7134  0.2582  2.0624
  187SLPC  H11S21561  -0.070  -0.354  15.861  1.1692 -0.0336  0.0148
  187SLPC  C21221562  -0.184  -0.218  15.978 -0.6695 -0.5425 -0.7463
  187SLPC  H12R21563  -0.137  -0.165  16.062 -0.1613  0.6628 -1.7574
  187SLPC  C21321564  -0.300  -0.271  15.980 -0.0880  0.4669 -0.4953
  187SLPC  H13R21565  -0.353  -0.255  16.075  0.7768 -0.4270  0.1714
  187SLPC  C21421566  -0.355  -0.359  15.880 -0.1747  0.1904  0.1930
  187SLPC  H14R21567  -0.277  -0.389  15.808  0.4119  0.1750  0.8259
  187SLPC  H14S21568  -0.434  -0.306  15.823 -2.1687 -1.7857  0.9892
  187SLPC  C21521569  -0.408  -0.485  15.941  0.1996  0.1540  0.2176
  187SLPC  H15R21570  -0.478  -0.478  16.027  0.6258 -2.5694  0.8780
  187SLPC  H15S21571  -0.319  -0.539  15.978  0.9443  2.2057  1.6192
  187SLPC  C21621572  -0.475  -0.584  15.837  0.6507 -0.0468  0.4633
  187SLPC  H16R21573  -0.401  -0.591  15.754 -0.2021 -2.2250 -0.1778
  187SLPC  H16S21574  -0.570  -0.534  15.806  0.7105  0.9791  1.8243
  187SLPC  C21721575  -0.503  -0.722  15.895 -0.0325 -0.5475  0.4899
  187SLPC  H17R21576  -0.554  -0.718  15.994 -0.7998  0.5294  0.0739
  187SLPC  H17S21577  -0.404  -0.771  15.902  0.0088 -0.7255 -0.9673
  187SLPC  C21821578  -0.585  -0.810  15.799  0.4861 -0.1541 -0.3257
  187SLPC  H18R21579  -0.577  -0.921  15.806  0.1395 -0.2617 -1.4644
  187SLPC  H18S21580  -0.579  -0.788  15.691 -2.5260 -0.1981 -0.5977
  187SLPC  H18T21581  -0.694  -0.793  15.810  0.3113 -0.8272 -0.9302
  187SLPC   C3321582   0.572  -0.192  15.803 -0.6773 -0.0019 -0.2229
  187SLPC   H3X21583   0.498  -0.212  15.722 -2.1052  0.0754  1.0252
  187SLPC   H3Y21584   0.552  -0.087  15.832  1.8864  1.2025 -2.3442
  187SLPC   C3421585   0.530  -0.298  15.904  0.2101  0.7180 -0.0389
  187SLPC   H4X21586   0.582  -0.294  16.002 -2.8691  0.5022  1.7202
  187SLPC   H4Y21587   0.561  -0.395  15.859  1.3603  1.4271 -0.8615
  187SLPC   C3521588   0.380  -0.294  15.933 -0.1471 -0.0109  0.5857
  187SLPC   H5X21589   0.332  -0.277  15.834 -0.6421 -0.6984  0.6999
  187SLPC   H5Y21590   0.358  -0.204  15.994  1.5739 -0.0428  1.2986
  187SLPC   C3621591   0.330  -0.410  16.008  1.0168  0.1098 -0.0145
  187SLPC   H6X21592   0.354  -0.408  16.116  0.2875  1.1497  0.1440
  187SLPC   H6Y21593   0.385  -0.499  15.971  0.4108  0.0336 -0.7752
  187SLPC   C3721594   0.176  -0.433  15.984 -0.1220  0.5293 -0.2283
  187SLPC   H7X21595   0.120  -0.344  16.019 -0.8118 -0.0490  0.1854
  187SLPC   H7Y21596   0.149  -0.437  15.877 -1.4453  0.8951  0.0705
  187SLPC   C3821597   0.110  -0.544  16.067  0.1281  0.2764 -1.1626
  187SLPC   H8X21598   0.170  -0.630  16.030 -1.4058 -2.1602  1.5664
  187SLPC   H8Y21599   0.004  -0.568  16.042 -0.6778  0.2936  1.7954
  187SLPC   C3921600   0.127  -0.519  16.217  0.2085  0.2243 -0.4011
  187SLPC   H9X21601   0.116  -0.409  16.230 -0.3002  0.3795 -1.8959
  187SLPC   H9Y21602   0.229  -0.551  16.249 -0.3494 -0.1650  1.0696
  187SLPC  C31021603   0.021  -0.577  16.313 -0.4460  0.3020  0.2561
  187SLPC  H10X21604   0.040  -0.532  16.412  0.1822  2.5789 -0.8341
  187SLPC  H10Y21605   0.025  -0.688  16.315  1.8559  0.3474  0.7673
  187SLPC  C31121606  -0.116  -0.532  16.275  0.5563  0.2964 -0.1004
  187SLPC  H11X21607  -0.145  -0.589  16.183 -0.8847  1.7677 -0.6143
  187SLPC  H11Y21608  -0.097  -0.427  16.245  0.5283  0.3915  0.2128
  187SLPC  C31221609  -0.230  -0.541  16.387 -0.5371 -0.2360  0.0232
  187SLPC  H12X21610  -0.189  -0.503  16.484 -0.1834  0.0259 -0.2274
  187SLPC  H12Y21611  -0.257  -0.648  16.402  1.7738 -0.7344  1.2235
  187SLPC  C31321612  -0.351  -0.468  16.332  0.2889 -0.3574  0.0638
  187SLPC  H13X21613  -0.352  -0.494  16.224  0.3300 -1.9178  0.4128
  187SLPC  H13Y21614  -0.332  -0.358  16.336 -0.5997 -0.2144  0.4890
  187SLPC  C31421615  -0.492  -0.492  16.384  0.2994  0.7226  0.4376
  187SLPC  H14X21616  -0.561  -0.424  16.330  0.0417 -0.5252 -0.8962
  187SLPC  H14Y21617  -0.502  -0.474  16.493  0.1656 -1.3065  0.7941
  187SLPC  C31521618  -0.543  -0.636  16.370  0.0105  0.7821  0.2077
  187SLPC  H15X21619  -0.482  -0.703  16.433 -1.5595 -0.2467  0.7129
  187SLPC  H15Y21620  -0.514  -0.653  16.264  0.5418 -0.1024  0.4871
  187SLPC  C31621621  -0.689  -0.667  16.395  0.1431 -0.0177  0.1974
  187SLPC  H16X21622  -0.767  -0.599  16.354 -0.7633 -2.2722 -2.0610
  187SLPC  H16Y21623  -0.710  -0.682  16.503 -0.4637 -0.9914 -0.0498
  187SLPC  C31721624  -0.718  -0.807  16.342 -0.5703 -0.6388 -0.3867
  187SLPC  H17X21625  -0.653  -0.882  16.390 -0.0626 -2.0098 -3.0479
  187SLPC  H17Y21626  -0.692  -0.816  16.235 -0.0478  0.1816 -0.3378
  187SLPC  C31821627  -0.859  -0.852  16.375 -0.1882  0.5334 -0.1309
  187SLPC  H18X21628  -0.925  -0.802  16.301  0.3047  1.9584  0.3757
  187SLPC  H18Y21629  -0.892  -0.845  16.481 -2.2220  2.0926 -0.8153
  187SLPC  H18Z21630  -0.869  -0.962  16.361 -2.3369  0.6389  0.2511
  188SLPC     N21631   1.310   3.246  15.759  0.3488 -0.0996 -0.9545
  188SLPC   C1321632   1.351   3.101  15.743 -0.4755  0.6143  0.5611
  188SLPC  H13A21633   1.315   3.041  15.826  0.3407 -1.6179 -0.6211
  188SLPC  H13B21634   1.310   3.060  15.653 -1.8949  0.4169  1.2662
  188SLPC  H13C21635   1.459   3.092  15.743 -0.4373  0.8033 -1.4143
  188SLPC   C1421636   1.167   3.247  15.717 -0.0369 -0.5243  0.3633
  188SLPC  H14A21637   1.157   3.242  15.610  0.1781 -1.5873  0.3845
  188SLPC  H14B21638   1.112   3.166  15.762  0.6519 -0.3319  1.6255
  188SLPC  H14C21639   1.129   3.346  15.738  0.6597  0.1431 -1.3005
  188SLPC   C1521640   1.395   3.326  15.663 -0.3063 -0.2814  0.0615
  188SLPC  H15A21641   1.501   3.325  15.683 -0.1821 -0.9687 -0.5698
  188SLPC  H15B21642   1.374   3.307  15.558  1.0832  1.2866 -0.5517
  188SLPC  H15C21643   1.359   3.426  15.679  0.1649  0.0028 -0.6366
  188SLPC   C1221644   1.321   3.289  15.903  0.2894  0.5826  0.8758
  188SLPC  H12A21645   1.309   3.397  15.897  0.4056  0.5309 -1.9342
  188SLPC  H12B21646   1.421   3.271  15.941  1.8298  0.0621 -2.9501
  188SLPC   C1121647   1.220   3.244  16.004 -0.8044  0.2377 -0.3214
  188SLPC  H11A21648   1.116   3.260  15.968 -0.6385  1.6553 -0.2310
  188SLPC  H11B21649   1.230   3.308  16.094 -2.1985 -0.7537  0.5728
  188SLPC     P21650   1.140   3.027  16.121 -0.1257  0.0270 -0.1001
  188SLPC   O1321651   1.135   2.887  16.064 -0.2636  0.0208 -0.5536
  188SLPC   O1421652   1.186   3.043  16.260  0.0686 -0.4597  0.0396
  188SLPC   O1221653   1.246   3.104  16.027  0.3284  0.4346 -0.4583
  188SLPC   O1121654   1.011   3.105  16.106 -0.3303  0.2176 -1.2701
  188SLPC    C121655   0.894   3.058  16.169 -0.1584  0.0091 -0.0647
  188SLPC    HA21656   0.863   2.964  16.118  1.2166 -0.2813 -0.3916
  188SLPC    HB21657   0.908   3.038  16.277 -0.3586  0.9456  0.1385
  188SLPC    C221658   0.783   3.163  16.159  0.8215  0.0318  0.1053
  188SLPC    HS21659   0.823   3.249  16.216 -1.4443  1.3427 -0.1857
  188SLPC   O2121660   0.657   3.110  16.214 -0.1607 -0.2799  0.4662
  188SLPC   C2121661   0.589   3.201  16.279  0.3444  0.4120 -0.4901
  188SLPC   O2221662   0.631   3.311  16.313  0.0910  0.1187  0.7310
  188SLPC   C2221663   0.458   3.137  16.329 -0.6703 -0.1330 -0.2928
  188SLPC   H2R21664   0.472   3.031  16.302  0.5294 -0.8389  2.7244
  188SLPC   H2S21665   0.465   3.134  16.439  0.5886 -1.4182 -0.3741
  188SLPC    C321666   0.770   3.209  16.006  0.5272  0.5516 -0.3695
  188SLPC    HX21667   0.742   3.122  15.943 -0.5452  1.8975 -1.8329
  188SLPC    HY21668   0.870   3.254  15.985  0.9884 -1.0079 -1.7213
  188SLPC   O3121669   0.657   3.298  15.995  0.2079 -0.2873 -1.0329
  188SLPC   C3121670   0.664   3.381  15.890 -0.3227  0.4366 -0.1633
  188SLPC   O3221671   0.737   3.361  15.796 -0.2848 -0.3626  0.5240
  188SLPC   C3221672   0.558   3.488  15.906  0.0657  0.4883 -0.4652
  188SLPC   H2X21673   0.609   3.571  15.959  0.8046 -0.6800  0.6906
  188SLPC   H2Y21674   0.489   3.450  15.984  0.0641 -0.7955 -1.0554
  188SLPC   C2321675   0.333   3.202  16.282  0.0723 -0.1719  0.0896
  188SLPC   H3R21676   0.329   3.207  16.171  1.6038  1.3753  0.0489
  188SLPC   H3S21677   0.340   3.308  16.317 -0.6919  0.2423 -0.9549
  188SLPC   C2421678   0.219   3.128  16.337  0.4543 -0.1525 -0.4000
  188SLPC   H4R21679   0.236   3.108  16.445  0.3932  3.1578  0.3150
  188SLPC   H4S21680   0.206   3.027  16.292 -1.6394 -0.5848  1.0244
  188SLPC   C2521681   0.090   3.207  16.328 -0.0131 -0.2605  0.2403
  188SLPC   H5R21682   0.002   3.144  16.354 -0.6203  1.0587  1.5209
  188SLPC   H5S21683   0.068   3.251  16.228  0.5326 -0.3727  0.0700
  188SLPC   C2621684   0.090   3.323  16.433  0.4300  0.2638  0.4846
  188SLPC   H6R21685   0.178   3.389  16.421  0.8888 -0.3317  0.5280
  188SLPC   H6S21686   0.082   3.270  16.530  2.2713  1.1379  1.1404
  188SLPC   C2721687  -0.035   3.405  16.413 -0.3559  0.5119 -0.1694
  188SLPC   H7R21688  -0.116   3.341  16.370 -1.4464  1.5429  0.2888
  188SLPC   H7S21689  -0.011   3.489  16.345 -1.5279  0.9110 -0.1088
  188SLPC   C2821690  -0.102   3.464  16.539  0.8940  0.8718 -0.1842
  188SLPC   H8R21691  -0.164   3.384  16.584  1.4900  1.3352  1.5681
  188SLPC   H8S21692  -0.170   3.539  16.493 -1.6433 -1.6707 -0.8471
  188SLPC   C2921693  -0.006   3.537  16.632  0.1457  0.7965 -0.2026
  188SLPC   H9R21694   0.014   3.644  16.616  1.5786  0.5932  0.0459
  188SLPC  C21021695   0.041   3.493  16.756  0.2720  0.4903 -0.1008
  188SLPC  H10R21696   0.106   3.554  16.821 -1.0194  1.2609  0.4922
  188SLPC  C21121697  -0.000   3.365  16.812  1.0993  0.9624 -0.4815
  188SLPC  H11R21698   0.087   3.318  16.864 -0.4159  1.0840  2.4192
  188SLPC  H11S21699  -0.026   3.294  16.730  2.4891  1.9645 -1.8396
  188SLPC  C21221700  -0.114   3.387  16.911 -0.0046  1.4303 -0.1472
  188SLPC  H12R21701  -0.127   3.490  16.946  0.9987  0.9562  1.8304
  188SLPC  C21321702  -0.177   3.289  16.974  0.0832 -0.3928 -0.4513
  188SLPC  H13R21703  -0.264   3.310  17.038 -0.0840  1.4941 -1.2417
  188SLPC  C21421704  -0.155   3.141  16.962  0.5643  0.5883 -0.3420
  188SLPC  H14R21705  -0.079   3.106  16.890  2.2809 -1.3336  2.2118
  188SLPC  H14S21706  -0.251   3.104  16.920 -0.4509  2.3221  0.3547
  188SLPC  C21521707  -0.132   3.077  17.099 -0.4898  0.8635 -0.0218
  188SLPC  H15R21708  -0.218   3.097  17.167 -0.5804 -0.6747  0.3456
  188SLPC  H15S21709  -0.044   3.130  17.141 -0.1241  0.1489  0.1239
  188SLPC  C21621710  -0.112   2.930  17.068 -0.2793 -0.4476 -0.0593
  188SLPC  H16R21711  -0.029   2.911  16.997 -0.6879 -1.6795 -0.2369
  188SLPC  H16S21712  -0.197   2.892  17.007  1.0399 -1.2382 -1.4809
  188SLPC  C21721713  -0.073   2.849  17.194  0.6070 -0.4362 -0.3540
  188SLPC  H17R21714  -0.153   2.866  17.269  0.8131  1.1926 -0.4487
  188SLPC  H17S21715   0.027   2.882  17.230 -0.7130  2.1881  1.2414
  188SLPC  C21821716  -0.042   2.707  17.160 -0.0411 -0.1220 -0.0077
  188SLPC  H18R21717  -0.015   2.659  17.256  1.3033 -1.2029 -0.8968
  188SLPC  H18S21718   0.046   2.688  17.096 -1.5100  0.3749 -2.3031
  188SLPC  H18T21719  -0.133   2.659  17.119  0.7378 -1.4808 -0.1890
  188SLPC   C3321720   0.497   3.541  15.773 -0.2300  0.1573  1.0679
  188SLPC   H3X21721   0.437   3.455  15.738  1.1889 -1.0359  1.4488
  188SLPC   H3Y21722   0.588   3.548  15.709  0.1163 -2.1567  1.2118
  188SLPC   C3421723   0.426   3.677  15.775  0.1520 -0.0772 -0.1351
  188SLPC   H4X21724   0.496   3.758  15.802  1.7423 -1.4332  0.0112
  188SLPC   H4Y21725   0.338   3.674  15.842  0.2396  1.4794  0.0713
  188SLPC   C3521726   0.369   3.708  15.631 -0.5327  0.3186 -0.4009
  188SLPC   H5X21727   0.329   3.612  15.594 -1.5386  0.8752 -0.7985
  188SLPC   H5Y21728   0.450   3.736  15.560  1.2246  0.0699  1.3905
  188SLPC   C3621729   0.260   3.816  15.620  0.4013 -0.0784  0.6492
  188SLPC   H6X21730   0.277   3.870  15.524 -1.3013 -2.1010 -0.8846
  188SLPC   H6Y21731   0.277   3.883  15.706 -0.2456  2.6374 -1.2108
  188SLPC   C3721732   0.122   3.760  15.624 -0.2065  0.7725 -0.4006
  188SLPC   H7X21733   0.105   3.708  15.720  0.2475 -0.2182 -0.8481
  188SLPC   H7Y21734   0.116   3.679  15.548  0.1573  1.1329 -0.8258
  188SLPC   C3821735   0.009   3.857  15.608 -0.1668  0.6532  0.6092
  188SLPC   H8X21736   0.029   3.917  15.516  1.7511  0.2519  0.7430
  188SLPC   H8Y21737   0.020   3.932  15.689  1.5310 -0.4693  1.4671
  188SLPC   C3921738  -0.141   3.806  15.605  0.1182 -0.5241  0.7060
  188SLPC   H9X21739  -0.201   3.899  15.599 -1.2565 -1.4326 -0.1719
  188SLPC   H9Y21740  -0.159   3.743  15.695  3.6570 -1.0941  1.1365
  188SLPC  C31021741  -0.185   3.721  15.483 -0.3470 -0.0026  0.2036
  188SLPC  H10X21742  -0.133   3.624  15.498  0.5184  0.6037  1.2653
  188SLPC  H10Y21743  -0.143   3.772  15.393  1.8165  1.0957  1.7349
  188SLPC  C31121744  -0.328   3.704  15.458  0.3811 -0.1331 -0.0858
  188SLPC  H11X21745  -0.394   3.780  15.505 -1.9311 -1.1127 -1.6127
  188SLPC  H11Y21746  -0.359   3.617  15.520 -2.6063 -0.2460 -1.5866
  188SLPC  C31221747  -0.390   3.674  15.318 -0.2073 -0.7888  0.5686
  188SLPC  H12X21748  -0.340   3.583  15.279 -3.3828 -1.3750 -2.6214
  188SLPC  H12Y21749  -0.359   3.755  15.249  0.8219 -1.7401 -0.1111
  188SLPC  C31321750  -0.543   3.648  15.304 -0.3653 -0.0526 -0.2920
  188SLPC  H13X21751  -0.563   3.545  15.340  2.1298 -0.6676 -0.4468
  188SLPC  H13Y21752  -0.565   3.659  15.196  0.2991 -1.5815 -0.6094
  188SLPC  C31421753  -0.643   3.743  15.381  0.1161 -0.3652  0.1784
  188SLPC  H14X21754  -0.601   3.845  15.365 -1.4148 -0.1248 -3.0165
  188SLPC  H14Y21755  -0.620   3.718  15.487  1.8049 -0.6639 -0.2246
  188SLPC  C31521756  -0.790   3.722  15.342 -0.7899  0.1255  0.5675
  188SLPC  H15X21757  -0.835   3.622  15.360 -1.2440  0.2495  0.1394
  188SLPC  H15Y21758  -0.797   3.744  15.233 -0.8068 -0.4370  0.4516
  188SLPC  C31621759  -0.875   3.825  15.415 -0.5345 -0.1632 -0.0568
  188SLPC  H16X21760  -0.874   3.925  15.367 -2.5121  0.7748  1.7164
  188SLPC  H16Y21761  -0.833   3.842  15.516  0.1804  1.1369 -0.5569
  188SLPC  C31721762  -1.026   3.801  15.420  0.6060 -0.2619  0.0354
  188SLPC  H17X21763  -1.041   3.711  15.483  0.2442 -0.4535 -0.3222
  188SLPC  H17Y21764  -1.067   3.778  15.319 -1.3936 -1.5544  1.0729
  188SLPC  C31821765  -1.096   3.901  15.507  0.0092 -0.2529  0.4664
  188SLPC  H18X21766  -1.054   4.004  15.499  0.2932 -0.3322  0.9220
  188SLPC  H18Y21767  -1.097   3.869  15.613 -1.8986  0.1034  0.5939
  188SLPC  H18Z21768  -1.202   3.897  15.476  0.5969 -2.0809 -1.5220
  189SLPC     N21769   1.694   0.889  19.103  0.8874 -0.0894  0.0974
  189SLPC   C1321770   1.546   0.860  19.116 -0.3134  0.3747 -0.2125
  189SLPC  H13A21771   1.512   0.769  19.069 -1.1747  0.2329  0.6527
  189SLPC  H13B21772   1.528   0.831  19.219 -1.7535 -1.9707 -1.0481
  189SLPC  H13C21773   1.477   0.937  19.084 -2.7556 -2.2109 -1.6110
  189SLPC   C1421774   1.713   0.924  18.956  0.6023  0.2149 -0.1237
  189SLPC  H14A21775   1.643   1.002  18.930 -0.2511 -0.2432  0.6939
  189SLPC  H14B21776   1.816   0.954  18.945  0.6152 -0.1269 -0.9463
  189SLPC  H14C21777   1.686   0.842  18.892 -0.0575  0.7386 -0.5296
  189SLPC   C1521778   1.773   0.769  19.137 -0.4644  0.6430 -0.2187
  189SLPC  H15A21779   1.733   0.688  19.079  1.8279 -0.8350  0.1370
  189SLPC  H15B21780   1.879   0.783  19.118 -0.5917  1.1513 -0.5811
  189SLPC  H15C21781   1.770   0.739  19.241  2.3968 -1.2387 -0.5731
  189SLPC   C1221782   1.726   1.011  19.191 -0.8152 -0.1890  0.1215
  189SLPC  H12A21783   1.697   1.013  19.295  2.6820  3.0176  1.2292
  189SLPC  H12B21784   1.671   1.095  19.149 -0.0159  0.2839  0.0032
  189SLPC   C1121785   1.875   1.054  19.194 -0.7369 -1.0244 -0.0588
  189SLPC  H11A21786   1.932   0.962  19.220 -0.7713 -1.3140 -0.9674
  189SLPC  H11B21787   1.882   1.129  19.275  0.7591  0.1209 -1.2146
  189SLPC     P21788   2.052   1.065  19.004 -0.6254 -0.0936  0.2356
  189SLPC   O1321789   2.069   0.921  18.987 -0.1635  0.2887 -0.5661
  189SLPC   O1421790   2.074   1.157  18.891  0.2835  0.0596 -0.1789
  189SLPC   O1221791   1.915   1.099  19.066 -0.7704 -0.6415  0.0134
  189SLPC   O1121792   2.152   1.115  19.117 -0.0746  0.1835 -0.4674
  189SLPC    C121793   2.178   1.252  19.150  0.6506 -0.1616 -0.5401
  189SLPC    HA21794   2.095   1.321  19.128 -0.5278 -1.2061  0.4868
  189SLPC    HB21795   2.191   1.248  19.261 -1.0455  1.5181 -0.2308
  189SLPC    C221796   2.302   1.308  19.074  0.2082 -0.4658  0.4988
  189SLPC    HS21797   2.276   1.297  18.967  0.3410 -0.0073  0.4156
  189SLPC   O2121798   2.426   1.240  19.103  0.2048  0.2124  0.3651
  189SLPC   C2121799   2.511   1.237  19.004  1.0674  0.0397  0.1482
  189SLPC   O2221800   2.495   1.291  18.893 -0.2503  0.6121  0.1267
  189SLPC   C2221801   2.645   1.158  19.049  0.4029 -0.3388 -0.3340
  189SLPC   H2R21802   2.622   1.117  19.149 -1.7340 -0.1708 -0.7140
  189SLPC   H2S21803   2.658   1.065  18.990 -0.1390 -0.2578 -0.5875
  189SLPC    C321804   2.302   1.460  19.108  0.2731  0.8021 -1.3967
  189SLPC    HX21805   2.213   1.514  19.068 -0.1050  0.4478 -1.0381
  189SLPC    HY21806   2.389   1.495  19.047  1.0442  0.5191 -0.4857
  189SLPC   O3121807   2.303   1.474  19.253 -0.0009  0.3048 -0.3442
  189SLPC   C3121808   2.420   1.490  19.307 -0.2875  0.6799  1.0317
  189SLPC   O3221809   2.524   1.522  19.247  0.1963  0.3930  0.3197
  189SLPC   C3221810   2.411   1.459  19.453  0.3506 -1.0609  0.2947
  189SLPC   H2X21811   2.354   1.364  19.467  1.6073 -1.6268  1.8287
  189SLPC   H2Y21812   2.363   1.542  19.508 -0.8272 -1.1079 -0.5998
  189SLPC   C2321813   2.774   1.239  19.050  0.2075 -0.6636  0.1176
  189SLPC   H3R21814   2.789   1.309  18.965  0.9335  1.0835  1.5990
  189SLPC   H3S21815   2.853   1.161  19.050 -0.2323 -1.1878  2.1569
  189SLPC   C2421816   2.793   1.318  19.183 -0.1728  0.4157  0.0682
  189SLPC   H4R21817   2.760   1.251  19.265  0.8532 -1.2984 -0.8718
  189SLPC   H4S21818   2.734   1.410  19.165 -1.1379 -0.1288  0.3878
  189SLPC   C2521819   2.931   1.378  19.202 -0.8448  0.2411  0.4831
  189SLPC   H5R21820   2.954   1.440  19.113  1.2766  0.0910  0.8938
  189SLPC   H5S21821   3.005   1.296  19.198 -1.0292  0.1112 -1.0428
  189SLPC   C2621822   2.950   1.463  19.329 -0.3853  0.3423  0.1484
  189SLPC   H6R21823   3.056   1.485  19.355 -0.1960  0.4999 -0.7483
  189SLPC   H6S21824   2.889   1.401  19.398 -1.1491 -1.4510 -2.0061
  189SLPC   C2721825   2.861   1.591  19.313 -0.4643 -0.6341  0.1181
  189SLPC   H7R21826   2.758   1.560  19.285 -0.8242 -0.0317  0.7648
  189SLPC   H7S21827   2.917   1.654  19.241  0.2629 -0.6248  0.6828
  189SLPC   C2821828   2.850   1.681  19.436 -0.8843 -0.8278 -0.0857
  189SLPC   H8R21829   2.791   1.627  19.513 -1.4676 -1.8926 -1.2293
  189SLPC   H8S21830   2.796   1.774  19.412 -0.9398 -0.6497  0.7077
  189SLPC   C2921831   2.993   1.721  19.468  0.3742  0.9975  0.1180
  189SLPC   H9R21832   3.030   1.799  19.400  0.7511 -0.4512 -1.4072
  189SLPC  C21021833   3.076   1.678  19.568 -0.2034 -0.7677 -0.6601
  189SLPC  H10R21834   3.183   1.702  19.580 -0.3968  0.3522 -1.1065
  189SLPC  C21121835   3.038   1.584  19.679  0.6732 -0.0224 -0.1453
  189SLPC  H11R21836   2.929   1.563  19.684  0.0867  2.5717 -0.1250
  189SLPC  H11S21837   3.055   1.629  19.780  1.1955  0.9857 -0.6645
  189SLPC  C21221838   3.116   1.457  19.676 -0.0674 -0.0917  0.4314
  189SLPC  H12R21839   3.075   1.379  19.610  1.4666  0.9937 -1.9174
  189SLPC  C21321840   3.225   1.418  19.744  0.0646 -0.0693  0.3443
  189SLPC  H13R21841   3.275   1.319  19.738 -1.7751 -1.2449  2.5860
  189SLPC  C21421842   3.297   1.504  19.848  0.0907 -0.2764  0.5729
  189SLPC  H14R21843   3.250   1.604  19.866  2.5400  0.8335  1.1598
  189SLPC  H14S21844   3.403   1.526  19.824 -0.2332  0.0842 -0.6023
  189SLPC  C21521845   3.305   1.437  19.983 -0.5414  0.6856 -1.0903
  189SLPC  H15R21846   3.351   1.510  20.052  2.2456  1.2336 -3.3459
  189SLPC  H15S21847   3.372   1.349  19.971  1.3670  1.4867  2.3314
  189SLPC  C21621848   3.171   1.403  20.039 -0.1944  0.5576 -0.0955
  189SLPC  H16R21849   3.112   1.326  19.986  1.8515 -1.1829  0.0156
  189SLPC  H16S21850   3.114   1.494  20.014 -0.4644  0.3684 -0.1695
  189SLPC  C21721851   3.166   1.374  20.190 -0.7439  0.2060 -0.5169
  189SLPC  H17R21852   3.059   1.356  20.213 -1.1746  2.4905 -0.5276
  189SLPC  H17S21853   3.188   1.463  20.252  0.1486 -0.9632  0.9286
  189SLPC  C21821854   3.256   1.257  20.228  0.2898  0.1664  0.2124
  189SLPC  H18R21855   3.220   1.196  20.313  0.3655  0.0830  0.1853
  189SLPC  H18S21856   3.363   1.282  20.244  0.8544 -0.4704 -2.1538
  189SLPC  H18T21857   3.256   1.193  20.137 -0.6436 -0.5307  0.6930
  189SLPC   C3321858   2.554   1.438  19.512 -0.0254 -0.2289 -0.1946
  189SLPC   H3X21859   2.614   1.530  19.496  0.3167 -0.6372 -1.3161
  189SLPC   H3Y21860   2.599   1.351  19.460  3.1817 -1.6991  4.4349
  189SLPC   C3421861   2.544   1.418  19.666 -0.4684 -0.3216 -0.3301
  189SLPC   H4X21862   2.499   1.318  19.684 -1.5107  0.2861  0.5559
  189SLPC   H4Y21863   2.476   1.495  19.708  1.9678  0.6957  2.1425
  189SLPC   C3521864   2.675   1.433  19.735 -0.1222  0.6201 -0.3612
  189SLPC   H5X21865   2.707   1.539  19.736 -0.8419  0.8569 -1.5440
  189SLPC   H5Y21866   2.745   1.373  19.674 -2.8483 -2.1077 -1.0660
  189SLPC   C3621867   2.690   1.386  19.888 -1.2481 -0.1857 -0.1859
  189SLPC   H6X21868   2.700   1.276  19.880 -1.3635 -0.0782 -2.4858
  189SLPC   H6Y21869   2.602   1.416  19.948 -1.2016  0.5604 -0.4776
  189SLPC   C3721870   2.824   1.446  19.939  0.5992  0.0917 -0.0753
  189SLPC   H7X21871   2.899   1.444  19.857  0.7439 -0.9272  0.0623
  189SLPC   H7Y21872   2.867   1.381  20.019  0.0898 -0.3970 -0.1987
  189SLPC   C3821873   2.818   1.582  20.008 -0.2365 -0.1783  0.7941
  189SLPC   H8X21874   2.759   1.643  19.936 -0.0387 -1.6495 -0.6875
  189SLPC   H8Y21875   2.915   1.631  20.031 -0.4544 -0.1650  1.7500
  189SLPC   C3921876   2.740   1.575  20.142 -0.0180  0.5460 -0.0445
  189SLPC   H9X21877   2.641   1.528  20.125  0.2216  0.2903 -0.7537
  189SLPC   H9Y21878   2.709   1.680  20.161 -1.4044  0.1049  0.2609
  189SLPC  C31021879   2.814   1.516  20.257  0.3139  0.0385 -0.3858
  189SLPC  H10X21880   2.920   1.550  20.265  1.3556 -2.2841 -2.9300
  189SLPC  H10Y21881   2.811   1.405  20.250  0.1559 -0.2561  2.7936
  189SLPC  C31121882   2.745   1.553  20.393  0.4071  0.8626  0.0853
  189SLPC  H11X21883   2.655   1.495  20.421  0.1083  2.4259  2.7701
  189SLPC  H11Y21884   2.714   1.660  20.385 -1.3007  0.2972 -1.5760
  189SLPC  C31221885   2.850   1.550  20.504  0.1866 -0.1957 -0.5475
  189SLPC  H12X21886   2.938   1.599  20.458 -0.5715  0.9395 -0.8309
  189SLPC  H12Y21887   2.878   1.451  20.545  0.0120 -0.3636 -0.8342
  189SLPC  C31321888   2.817   1.648  20.626 -0.3343 -0.6207  0.0662
  189SLPC  H13X21889   2.779   1.746  20.592 -3.6271 -0.9579  2.3043
  189SLPC  H13Y21890   2.910   1.657  20.686  0.2724  0.2398 -0.9747
  189SLPC  C31421891   2.710   1.581  20.721  0.4904  0.7355  0.0543
  189SLPC  H14X21892   2.649   1.517  20.654  1.5792 -0.2584 -0.0288
  189SLPC  H14Y21893   2.647   1.649  20.782 -0.6009 -0.9320  0.8397
  189SLPC  C31521894   2.783   1.494  20.829  0.3951 -0.0892 -0.1743
  189SLPC  H15X21895   2.865   1.554  20.874 -0.4185  0.5959  0.4482
  189SLPC  H15Y21896   2.828   1.403  20.785  1.2432  0.1894  0.0871
  189SLPC  C31621897   2.693   1.440  20.938 -0.2522 -0.2597  0.4629
  189SLPC  H16X21898   2.627   1.371  20.882  0.1080  1.3138 -2.0937
  189SLPC  H16Y21899   2.625   1.517  20.980  1.4611  0.9085  1.2155
  189SLPC  C31721900   2.766   1.355  21.046 -0.4897 -0.5282 -0.2627
  189SLPC  H17X21901   2.834   1.285  20.991  0.7689 -2.4188  3.3816
  189SLPC  H17Y21902   2.697   1.283  21.096 -0.9391 -0.4860 -0.8108
  189SLPC  C31821903   2.834   1.442  21.143  0.8338  0.3986  0.2774
  189SLPC  H18X21904   2.873   1.375  21.222 -4.1695 -2.8376  0.4407
  189SLPC  H18Y21905   2.772   1.511  21.204 -0.3777 -1.9528  1.8455
  189SLPC  H18Z21906   2.929   1.488  21.108  0.7237 -1.4264 -2.8364
  190SLPC     N21907   2.251   0.214  18.330  0.0382 -0.0779 -0.0378
  190SLPC   C1321908   2.301   0.074  18.309  0.0035  0.2457  0.4808
  190SLPC  H13A21909   2.218   0.008  18.331  0.7069 -1.6503 -2.0593
  190SLPC  H13B21910   2.335   0.060  18.208  0.2668 -0.6191  0.6848
  190SLPC  H13C21911   2.388   0.048  18.367 -0.3838  0.2759  1.0923
  190SLPC   C1421912   2.165   0.258  18.223  0.0588 -0.3324  0.1190
  190SLPC  H14A21913   2.209   0.243  18.126  0.6466 -0.3242  0.3763
  190SLPC  H14B21914   2.067   0.212  18.221  1.0098 -2.4555 -0.3032
  190SLPC  H14C21915   2.138   0.362  18.226 -1.3018 -0.6676  0.1164
  190SLPC   C1521916   2.373   0.306  18.324 -0.3810  0.2148 -0.3840
  190SLPC  H15A21917   2.435   0.288  18.238 -0.5033  1.2029 -0.6920
  190SLPC  H15B21918   2.339   0.408  18.328 -0.2931  0.2179  1.2630
  190SLPC  H15C21919   2.419   0.301  18.422 -1.4209  3.0722  0.3521
  190SLPC   C1221920   2.188   0.233  18.470  0.6769  0.6196  0.3201
  190SLPC  H12A21921   2.095   0.180  18.479  0.4719  1.2555  2.8109
  190SLPC  H12B21922   2.165   0.339  18.466 -0.0507  0.5893  2.4716
  190SLPC   C1121923   2.269   0.190  18.585 -0.0083 -0.3403  0.1222
  190SLPC  H11A21924   2.239   0.255  18.670 -1.8549 -1.7904  0.6389
  190SLPC  H11B21925   2.378   0.200  18.565 -0.1767 -0.3127 -0.8592
  190SLPC     P21926   2.248  -0.000  18.765  0.0379 -0.0371  0.1459
  190SLPC   O1321927   2.134   0.056  18.832  0.2863  0.0007 -0.0901
  190SLPC   O1421928   2.253  -0.148  18.770 -0.0198 -0.3326 -0.1545
  190SLPC   O1221929   2.252   0.055  18.620  0.3829 -0.6156  0.4802
  190SLPC   O1121930   2.378   0.070  18.823 -0.4449  0.3810  0.3237
  190SLPC    C121931   2.487  -0.015  18.866 -0.1668 -0.3092  0.5877
  190SLPC    HA21932   2.493  -0.113  18.814  0.0621 -0.2451  0.4891
  190SLPC    HB21933   2.584   0.036  18.844 -0.3171 -1.4193 -3.3983
  190SLPC    C221934   2.471  -0.055  19.012 -0.2754 -0.2102  0.7912
  190SLPC    HS21935   2.380  -0.007  19.054 -1.5301 -1.7781 -0.0008
  190SLPC   O2121936   2.585  -0.010  19.090  0.1225  0.2328 -0.2014
  190SLPC   C2121937   2.600   0.121  19.102 -0.2141  0.0231  0.7686
  190SLPC   O2221938   2.523   0.210  19.072  0.7380  0.2401  0.2903
  190SLPC   C2221939   2.733   0.139  19.159 -0.3086  0.3083 -0.2114
  190SLPC   H2R21940   2.730   0.101  19.263  3.1537  0.7203  0.1570
  190SLPC   H2S21941   2.798   0.065  19.106 -0.5847  0.9890 -1.5377
  190SLPC    C321942   2.449  -0.206  19.035  0.0481  0.2738  0.2942
  190SLPC    HX21943   2.360  -0.242  18.980  0.3121 -2.3946  1.4519
  190SLPC    HY21944   2.429  -0.243  19.138  1.3074 -2.5595 -0.3897
  190SLPC   O3121945   2.574  -0.272  19.007  0.4232 -0.2050  0.4386
  190SLPC   C3121946   2.563  -0.385  18.938  1.0639  0.4776 -0.1027
  190SLPC   O3221947   2.461  -0.430  18.888  0.5273 -0.1489 -0.0459
  190SLPC   C3221948   2.695  -0.461  18.942  0.3841 -0.3951  0.3103
  190SLPC   H2X21949   2.736  -0.468  18.839  0.7338 -1.7225  0.5176
  190SLPC   H2Y21950   2.665  -0.561  18.981  1.2635 -0.9751 -0.4328
  190SLPC   C2321951   2.799   0.277  19.152 -0.5887  0.2092 -0.2580
  190SLPC   H3R21952   2.724   0.356  19.176 -0.2467  0.2713  0.6285
  190SLPC   H3S21953   2.849   0.303  19.057 -0.3699  2.8456  0.4861
  190SLPC   C2421954   2.901   0.289  19.269  0.4471  0.2150 -0.5338
  190SLPC   H4R21955   2.977   0.208  19.272  0.2078  0.0003  2.1182
  190SLPC   H4S21956   2.841   0.291  19.363  0.5563  3.4838 -0.3977
  190SLPC   C2521957   2.974   0.420  19.257 -0.5119 -0.2200 -0.2255
  190SLPC   H5R21958   2.897   0.495  19.283 -2.3901 -1.8220 -0.8901
  190SLPC   H5S21959   3.001   0.428  19.149 -1.7293  0.0915 -0.5278
  190SLPC   C2621960   3.097   0.424  19.343  0.1334 -0.6664  0.4649
  190SLPC   H6R21961   3.154   0.516  19.315 -0.7100 -0.9705 -2.6364
  190SLPC   H6S21962   3.157   0.335  19.316  1.3350  0.5814 -1.2351
  190SLPC   C2721963   3.067   0.426  19.494 -0.6801 -0.3093  0.5843
  190SLPC   H7R21964   2.958   0.402  19.500 -0.6816 -1.2318 -1.8672
  190SLPC   H7S21965   3.072   0.530  19.533  1.2211  0.6362 -1.9007
  190SLPC   C2821966   3.157   0.328  19.568 -0.2232  0.0190 -0.8893
  190SLPC   H8R21967   3.263   0.361  19.561 -0.1545  0.2032  0.6163
  190SLPC   H8S21968   3.167   0.229  19.519 -3.0267 -2.3931  2.8760
  190SLPC   C2921969   3.132   0.314  19.720  0.5266 -0.5911  0.1805
  190SLPC   H9R21970   3.056   0.383  19.761 -1.4249 -2.5522  0.0430
  190SLPC  C21021971   3.190   0.240  19.812 -0.4661  0.3830  1.1006
  190SLPC  H10R21972   3.164   0.263  19.917 -0.5437  1.1769  0.9143
  190SLPC  C21121973   3.305   0.144  19.784 -0.1040  0.4879  0.1764
  190SLPC  H11R21974   3.385   0.192  19.724 -0.2445  0.5954  0.0738
  190SLPC  H11S21975   3.271   0.057  19.724 -0.1342  2.1332 -2.3672
  190SLPC  C21221976   3.385   0.090  19.898  0.5867  0.8812  0.3948
  190SLPC  H12R21977   3.356  -0.010  19.933  2.3086 -0.1013 -0.8746
  190SLPC  C21321978   3.488   0.147  19.953  0.3403 -0.0093  0.1271
  190SLPC  H13R21979   3.537   0.101  20.041  0.5190  2.1937  1.2628
  190SLPC  C21421980   3.541   0.286  19.926 -0.0822  0.5621 -0.4740
  190SLPC  H14R21981   3.570   0.339  20.019 -0.1165  0.1222 -0.2083
  190SLPC  H14S21982   3.451   0.343  19.896  0.8541  0.1441 -4.6685
  190SLPC  C21521983   3.642   0.293  19.807  0.3267  0.3485 -0.3822
  190SLPC  H15R21984   3.651   0.401  19.784 -3.2816  0.5711 -1.4705
  190SLPC  H15S21985   3.609   0.249  19.710  0.5911  3.0866 -1.8066
  190SLPC  C21621986   3.780   0.248  19.840 -0.4414  1.1529 -0.2412
  190SLPC  H16R21987   3.849   0.298  19.769  0.7001  0.1129  0.0863
  190SLPC  H16S21988   3.797   0.138  19.837 -3.8103  0.5297 -0.3137
  190SLPC  C21721989   3.844   0.294  19.978 -1.0973  0.3265  0.1575
  190SLPC  H17R21990   3.801   0.236  20.062 -0.4363 -0.1405  0.1812
  190SLPC  H17S21991   3.825   0.402  19.998  2.7024  1.1147  0.1570
  190SLPC  C21821992   3.996   0.275  19.997  0.4595  0.1777  0.3060
  190SLPC  H18R21993   4.035   0.326  20.088  2.6836  1.3610 -1.2004
  190SLPC  H18S21994   4.065   0.301  19.914  2.4731 -1.4572  1.3584
  190SLPC  H18T21995   4.012   0.165  20.006  0.6981  0.3185  2.0545
  190SLPC   C3321996   2.820  -0.409  19.029 -0.9104  0.4058  0.1626
  190SLPC   H3X21997   2.777  -0.405  19.132  0.9074 -0.9243  1.0342
  190SLPC   H3Y21998   2.869  -0.315  18.997  0.8575 -0.1789  0.9917
  190SLPC   C3421999   2.927  -0.509  19.035  0.0689  0.5225  0.1002
  190SLPC   H4X22000   2.958  -0.525  18.929  0.0185 -0.3631  0.2147
  190SLPC   H4Y22001   2.890  -0.604  19.078 -0.0061  0.7281  0.4978
  190SLPC   C3522002   3.044  -0.457  19.123  0.6032 -0.1078 -0.3628
  190SLPC   H5X22003   3.013  -0.453  19.229 -1.3331  0.3638 -0.9074
  190SLPC   H5Y22004   3.078  -0.354  19.096  1.8898 -0.5023 -0.3340
  190SLPC   C3622005   3.176  -0.542  19.112  0.9574 -0.6342 -0.5028
  190SLPC   H6X22006   3.253  -0.476  19.067 -2.7593  3.8586 -1.1248
  190SLPC   H6Y22007   3.159  -0.624  19.039 -0.3529 -1.6377  0.8704
  190SLPC   C3722008   3.203  -0.602  19.252 -0.1333 -0.5311 -0.1064
  190SLPC   H7X22009   3.109  -0.629  19.305  0.1772  0.1605  0.8266
  190SLPC   H7Y22010   3.256  -0.529  19.317  1.6946 -2.1501  0.2935
  190SLPC   C3822011   3.291  -0.733  19.248  0.7216  0.1425  0.4935
  190SLPC   H8X22012   3.388  -0.709  19.199 -0.4364  1.7282 -1.1847
  190SLPC   H8Y22013   3.242  -0.813  19.187 -0.0169 -3.2407  5.0051
  190SLPC   C3922014   3.320  -0.783  19.387 -0.2897 -0.3053  0.3720
  190SLPC   H9X22015   3.360  -0.886  19.377  2.5050  0.6199  0.9344
  190SLPC   H9Y22016   3.241  -0.776  19.465 -0.7105 -0.6361 -0.0216
  190SLPC  C31022017   3.443  -0.707  19.445  0.7196  0.1157  0.0725
  190SLPC  H10X22018   3.440  -0.598  19.422 -0.5098  0.1920  0.5365
  190SLPC  H10Y22019   3.526  -0.763  19.397  0.1685 -2.1479  1.6470
  190SLPC  C31122020   3.466  -0.717  19.598  0.1499 -0.0284  0.5950
  190SLPC  H11X22021   3.376  -0.672  19.646 -0.2640  1.9400 -1.8152
  190SLPC  H11Y22022   3.559  -0.665  19.629 -0.0169  0.7608 -0.2129
  190SLPC  C31222023   3.474  -0.862  19.645 -1.0450  0.2440 -0.2542
  190SLPC  H12X22024   3.571  -0.903  19.613 -0.4326 -0.2346  2.0258
  190SLPC  H12Y22025   3.396  -0.935  19.615 -0.6821 -0.8946  1.4168
  190SLPC  C31322026   3.487  -0.865  19.800 -0.2083 -0.6929  0.3872
  190SLPC  H13X22027   3.393  -0.835  19.852  0.5309  0.5156  1.0727
  190SLPC  H13Y22028   3.568  -0.804  19.845 -0.8476 -0.8608  1.8297
  190SLPC  C31422029   3.519  -1.007  19.844  0.5340 -0.7045 -0.7704
  190SLPC  H14X22030   3.620  -1.038  19.812  1.2307 -0.1594  0.8081
  190SLPC  H14Y22031   3.441  -1.071  19.796  0.7871 -1.0852 -0.6739
  190SLPC  C31522032   3.503  -1.005  19.998  0.3769 -0.3298  0.0810
  190SLPC  H15X22033   3.404  -0.979  20.040  0.7036 -1.9771  1.9930
  190SLPC  H15Y22034   3.562  -0.916  20.031 -2.6915  2.2737 -0.9802
  190SLPC  C31622035   3.538  -1.136  20.065 -0.6697 -0.0123 -0.4957
  190SLPC  H16X22036   3.631  -1.170  20.016 -0.6480 -0.1766 -0.3448
  190SLPC  H16Y22037   3.449  -1.202  20.049  0.3340 -1.5725  0.0728
  190SLPC  C31722038   3.567  -1.121  20.210  0.6309  0.2721 -0.3701
  190SLPC  H17X22039   3.480  -1.071  20.258  0.1678 -1.5567  0.7787
  190SLPC  H17Y22040   3.658  -1.057  20.206  1.4645 -0.9385 -4.3319
  190SLPC  C31822041   3.591  -1.261  20.278  0.2802 -0.0987 -0.2055
  190SLPC  H18X22042   3.640  -1.243  20.376 -2.4527  0.8071  1.0913
  190SLPC  H18Y22043   3.657  -1.333  20.224  0.6828 -0.0141  0.1640
  190SLPC  H18Z22044   3.493  -1.307  20.303  1.5376 -3.2196 -0.4493
  191SLPC     N22045   1.455   0.398  16.266 -0.6950 -0.9522 -0.4380
  191SLPC   C1322046   1.425   0.533  16.201  0.3704  0.5264 -0.0680
  191SLPC  H13A22047   1.330   0.542  16.152 -0.4435  0.2690  1.3958
  191SLPC  H13B22048   1.416   0.614  16.273  0.9300 -1.5645  2.5117
  191SLPC  H13C22049   1.503   0.556  16.130  1.4742  0.7260  1.1449
  191SLPC   C1422050   1.358   0.371  16.377 -0.2082  0.5046  0.3051
  191SLPC  H14A22051   1.276   0.337  16.315  1.7489 -0.9887 -1.6294
  191SLPC  H14B22052   1.385   0.289  16.441  0.1233  2.2129  2.4710
  191SLPC  H14C22053   1.326   0.459  16.430  0.3413  0.5627  0.5411
  191SLPC   C1522054   1.589   0.406  16.319  0.0008 -0.3616  0.2329
  191SLPC  H15A22055   1.666   0.412  16.243 -0.5405  1.2267 -0.2288
  191SLPC  H15B22056   1.609   0.496  16.376 -0.4578 -0.3871  0.4354
  191SLPC  H15C22057   1.609   0.324  16.386 -0.6794 -0.7359 -0.0117
  191SLPC   C1222058   1.451   0.282  16.167 -0.7870 -0.3906  0.3940
  191SLPC  H12A22059   1.358   0.283  16.113  0.7461 -2.7890 -2.6334
  191SLPC  H12B22060   1.446   0.186  16.218  0.3329  0.6161  2.5542
  191SLPC   C1122061   1.566   0.274  16.060  0.6293  0.0125  0.3973
  191SLPC  H11A22062   1.565   0.371  16.007  2.1245  0.1648  0.6122
  191SLPC  H11B22063   1.531   0.197  15.987 -2.5470  0.8984  0.8205
  191SLPC     P22064   1.730   0.105  16.162  0.0389 -0.1938 -0.2716
  191SLPC   O1322065   1.635   0.053  16.257 -0.1593 -0.1449  0.7422
  191SLPC   O1422066   1.756   0.017  16.043 -0.2471  0.1109  0.0341
  191SLPC   O1222067   1.698   0.257  16.109 -0.0108 -0.0575  0.7058
  191SLPC   O1122068   1.859   0.133  16.242 -0.1696  0.2181  0.2966
  191SLPC    C122069   1.973   0.173  16.169 -0.3565 -0.8279 -0.0192
  191SLPC    HA22070   1.982   0.119  16.072 -0.2310 -0.4996 -0.1894
  191SLPC    HB22071   1.965   0.281  16.149  0.8681 -1.1105 -2.4061
  191SLPC    C222072   2.103   0.158  16.245  0.7434 -0.3054  0.3766
  191SLPC    HS22073   2.094   0.223  16.335  1.8800 -2.6933  2.3267
  191SLPC   O2122074   2.200   0.201  16.149 -0.0964 -0.0186 -0.6141
  191SLPC   C2122075   2.306   0.273  16.190  0.2485 -0.0527 -0.4603
  191SLPC   O2222076   2.321   0.310  16.304  0.2284 -0.2245 -0.5282
  191SLPC   C2222077   2.389   0.317  16.071 -0.7163  0.4495  0.6965
  191SLPC   H2R22078   2.470   0.382  16.110 -0.9362  1.6441 -0.7470
  191SLPC   H2S22079   2.449   0.232  16.033 -0.4629  2.4618 -4.1330
  191SLPC    C322080   2.136   0.010  16.295 -0.1777  0.1283  0.2069
  191SLPC    HX22081   2.134  -0.054  16.204  1.7290 -2.7031  1.9983
  191SLPC    HY22082   2.057  -0.031  16.361 -1.7939  0.1671 -1.6164
  191SLPC   O3122083   2.262   0.003  16.366 -0.4756 -0.0543 -0.1585
  191SLPC   C3122084   2.254   0.057  16.492  0.2458  0.2335  0.4697
  191SLPC   O3222085   2.154   0.098  16.545 -0.1782 -0.6091  0.0069
  191SLPC   C3222086   2.388   0.074  16.559 -0.1879 -0.5233  0.0899
  191SLPC   H2X22087   2.451   0.146  16.502  0.3512 -0.0568  1.2425
  191SLPC   H2Y22088   2.434  -0.027  16.566 -0.8600 -0.7276  2.3366
  191SLPC   C2322089   2.316   0.401  15.963 -0.1729 -0.7123 -0.2223
  191SLPC   H3R22090   2.393   0.465  15.914  2.3249 -2.0015  1.7905
  191SLPC   H3S22091   2.246   0.471  16.014  0.6928 -1.6437  2.3932
  191SLPC   C2422092   2.242   0.308  15.859  1.0888  0.1221  0.2819
  191SLPC   H4R22093   2.168   0.249  15.917  1.7046  0.3407  1.3176
  191SLPC   H4S22094   2.312   0.232  15.818 -0.1752 -0.8638 -0.0958
  191SLPC   C2522095   2.180   0.374  15.732 -0.1996  0.3313  0.5614
  191SLPC   H5R22096   2.131   0.471  15.755 -0.2848  0.3312  0.3789
  191SLPC   H5S22097   2.102   0.314  15.682  0.5445  0.2373 -0.5132
  191SLPC   C2622098   2.283   0.404  15.620  0.2741  0.0082  0.1154
  191SLPC   H6R22099   2.352   0.317  15.606  0.2358  0.0225 -0.1599
  191SLPC   H6S22100   2.341   0.492  15.655 -2.8844  2.3209 -0.0595
  191SLPC   C2722101   2.220   0.440  15.481 -0.0271 -0.3509  0.5335
  191SLPC   H7R22102   2.146   0.523  15.479  0.2077 -0.1402 -1.5698
  191SLPC   H7S22103   2.166   0.350  15.444 -1.4541 -1.3844  4.6055
  191SLPC   C2822104   2.331   0.479  15.381  0.3077  0.5294 -0.1629
  191SLPC   H8R22105   2.398   0.392  15.400 -1.0223 -0.1574  1.6524
  191SLPC   H8S22106   2.372   0.570  15.429 -3.5046  1.5131  1.6580
  191SLPC   C2922107   2.301   0.508  15.239  0.2557 -0.2383 -0.2800
  191SLPC   H9R22108   2.222   0.584  15.223 -0.3919 -1.2222 -2.0365
  191SLPC  C21022109   2.361   0.462  15.127 -1.1796  0.4776 -0.6959
  191SLPC  H10R22110   2.328   0.502  15.029 -2.8927  0.7110 -0.0681
  191SLPC  C21122111   2.478   0.361  15.117  0.1457 -0.7010 -0.1007
  191SLPC  H11R22112   2.428   0.262  15.104 -1.2630 -0.2338  1.4719
  191SLPC  H11S22113   2.534   0.354  15.213 -1.8852  1.1499  1.3002
  191SLPC  C21222114   2.574   0.390  15.009  0.4255 -0.3254 -0.4152
  191SLPC  H12R22115   2.521   0.364  14.916 -2.2536  1.1393  0.5880
  191SLPC  C21322116   2.706   0.431  15.020  0.1847 -0.1253 -0.2047
  191SLPC  H13R22117   2.764   0.461  14.931 -0.9632  0.0809 -0.9094
  191SLPC  C21422118   2.777   0.472  15.146  0.2879 -0.0626  0.4147
  191SLPC  H14R22119   2.888   0.470  15.136  0.1899 -0.4592 -0.7386
  191SLPC  H14S22120   2.738   0.411  15.231 -2.1690  1.8441  0.7544
  191SLPC  C21522121   2.735   0.613  15.203  0.6498 -0.4634 -0.7413
  191SLPC  H15R22122   2.627   0.634  15.193  0.8446  1.4746  0.6801
  191SLPC  H15S22123   2.782   0.691  15.140  0.3676 -0.3305 -0.7870
  191SLPC  C21622124   2.777   0.629  15.356 -0.6200  0.7087 -0.1797
  191SLPC  H16R22125   2.887   0.617  15.344 -0.2017  2.1248  1.7246
  191SLPC  H16S22126   2.737   0.546  15.419  1.8178 -0.0830  0.4481
  191SLPC  C21722127   2.753   0.768  15.413  0.4271 -0.1375  0.1986
  191SLPC  H17R22128   2.782   0.837  15.331  1.2999 -0.7217  0.0014
  191SLPC  H17S22129   2.825   0.776  15.497  0.8807 -0.9224 -0.1044
  191SLPC  C21822130   2.602   0.790  15.462  0.6223 -0.2699 -0.3215
  191SLPC  H18R22131   2.577   0.897  15.448  0.3858 -0.3598 -0.5867
  191SLPC  H18S22132   2.588   0.763  15.569  3.3491  0.8542  0.3919
  191SLPC  H18T22133   2.529   0.732  15.401 -0.6740  1.8603 -0.9051
  191SLPC   C3322134   2.381   0.118  16.712 -0.0858 -0.0751 -0.4508
  191SLPC   H3X22135   2.322   0.212  16.728 -1.4249 -0.9517 -0.0554
  191SLPC   H3Y22136   2.488   0.137  16.732  0.0469 -2.1999  1.1937
  191SLPC   C3422137   2.321   0.007  16.803 -0.4208 -0.7679 -0.4332
  191SLPC   H4X22138   2.378  -0.088  16.799 -0.4267 -0.7305 -1.8370
  191SLPC   H4Y22139   2.228  -0.040  16.764  1.0844 -4.5157  0.0922
  191SLPC   C3522140   2.306   0.054  16.954  0.1139  0.4246  0.3775
  191SLPC   H5X22141   2.244  -0.021  17.007 -0.0690  0.1682 -0.1939
  191SLPC   H5Y22142   2.239   0.143  16.961  2.9019  2.8627 -1.3690
  191SLPC   C3622143   2.439   0.060  17.028  0.2178 -0.2112  0.3566
  191SLPC   H6X22144   2.509   0.137  16.989  3.1493 -1.2723  3.0499
  191SLPC   H6Y22145   2.492  -0.038  17.023  0.0468 -0.2278 -2.1358
  191SLPC   C3722146   2.423   0.096  17.180 -0.1744  0.5155 -0.1436
  191SLPC   H7X22147   2.354   0.021  17.224 -1.2728  1.5440 -0.0321
  191SLPC   H7Y22148   2.367   0.192  17.174 -0.8930  0.2231  1.3764
  191SLPC   C3822149   2.559   0.135  17.246  0.0383  0.2007  0.3454
  191SLPC   H8X22150   2.533   0.189  17.339 -1.8972  0.0080 -0.0348
  191SLPC   H8Y22151   2.628   0.197  17.186  0.7475 -0.3412  0.5869
  191SLPC   C3922152   2.634   0.006  17.272  1.1174  0.0072  0.0505
  191SLPC   H9X22153   2.705  -0.024  17.191 -0.0939 -0.1039 -0.9934
  191SLPC   H9Y22154   2.566  -0.081  17.270  1.0640  0.0584 -0.7236
  191SLPC  C31022155   2.709   0.029  17.405  1.0200 -0.4141 -0.3057
  191SLPC  H10X22156   2.755  -0.069  17.432 -0.1929 -1.3873 -1.6091
  191SLPC  H10Y22157   2.635   0.050  17.485  1.5707 -2.3566  0.7906
  191SLPC  C31122158   2.822   0.136  17.388  0.7211 -0.5748 -0.0990
  191SLPC  H11X22159   2.768   0.234  17.386 -0.2205 -1.0704  0.2701
  191SLPC  H11Y22160   2.875   0.113  17.293  1.0568 -0.2015 -0.0040
  191SLPC  C31222161   2.926   0.148  17.500  0.2667  0.2578  0.7050
  191SLPC  H12X22162   2.879   0.142  17.600 -0.0708 -2.1090  0.4746
  191SLPC  H12Y22163   2.998   0.229  17.476 -1.8379  1.2894 -2.8104
  191SLPC  C31322164   3.029   0.028  17.518  0.4461 -0.5763  0.0550
  191SLPC  H13X22165   3.063   0.001  17.416 -0.8641 -1.0032 -0.2912
  191SLPC  H13Y22166   2.978  -0.066  17.550 -0.0150  0.0707  1.3031
  191SLPC  C31422167   3.142   0.057  17.615 -0.4939  0.6868  0.1392
  191SLPC  H14X22168   3.215  -0.027  17.606 -1.2836 -0.1889  1.5581
  191SLPC  H14Y22169   3.111   0.062  17.721 -0.4818 -0.0426  0.1845
  191SLPC  C31522170   3.227   0.172  17.574 -0.4028 -1.0631 -0.5102
  191SLPC  H15X22171   3.170   0.261  17.608  4.0867  0.9285  2.8333
  191SLPC  H15Y22172   3.245   0.182  17.465  2.1665 -0.5689 -0.1104
  191SLPC  C31622173   3.364   0.177  17.651  0.9130 -0.2917  0.0301
  191SLPC  H16X22174   3.412   0.079  17.628  0.5553 -0.9005  1.7357
  191SLPC  H16Y22175   3.353   0.172  17.761  1.1324  2.4287  0.2274
  191SLPC  C31722176   3.455   0.292  17.609  0.2819 -0.3609 -0.3129
  191SLPC  H17X22177   3.399   0.385  17.633  1.3714  0.4698 -0.8427
  191SLPC  H17Y22178   3.474   0.288  17.499 -0.4060  0.0967 -0.4550
  191SLPC  C31822179   3.581   0.292  17.692  0.1788  0.1459 -0.2873
  191SLPC  H18X22180   3.675   0.331  17.649  0.9919  0.4709  1.6939
  191SLPC  H18Y22181   3.601   0.190  17.731  0.1304  0.2118 -0.0894
  191SLPC  H18Z22182   3.576   0.369  17.772  2.6551  0.8609 -0.7387
  192SLPC     N22183   1.515   4.091  15.471 -0.2622 -0.1964 -0.7886
  192SLPC   C1322184   1.469   4.232  15.511 -0.2769 -0.5886 -0.5441
  192SLPC  H13A22185   1.501   4.250  15.612  1.5491  0.0281 -1.1963
  192SLPC  H13B22186   1.523   4.304  15.452  2.0566 -2.7187 -1.1702
  192SLPC  H13C22187   1.361   4.244  15.514 -0.2845 -0.5620  2.9982
  192SLPC   C1422188   1.535   4.069  15.327 -0.0709  0.2960  0.0337
  192SLPC  H14A22189   1.452   4.103  15.267 -0.0066  0.7459  0.1931
  192SLPC  H14B22190   1.611   4.139  15.295  0.7666 -0.2061  0.8507
  192SLPC  H14C22191   1.558   3.967  15.302 -2.4209 -0.1634 -0.4775
  192SLPC   C1522192   1.406   3.997  15.512 -1.3529  0.0917 -1.2195
  192SLPC  H15A22193   1.428   3.898  15.475 -0.4478 -0.1216 -0.1806
  192SLPC  H15B22194   1.407   3.981  15.619 -3.2828 -1.5659 -1.3796
  192SLPC  H15C22195   1.307   4.017  15.474 -2.4246 -2.8437 -0.2676
  192SLPC   C1222196   1.637   4.055  15.548 -0.4449 -0.5172 -0.3024
  192SLPC  H12A22197   1.717   4.121  15.518 -0.1398 -1.3671 -1.4380
  192SLPC  H12B22198   1.667   3.957  15.513  1.3114  0.5255 -1.8650
  192SLPC   C1122199   1.638   4.048  15.705  0.5274 -0.5432 -0.3065
  192SLPC  H11A22200   1.586   4.139  15.742 -1.4528 -1.1291 -1.4743
  192SLPC  H11B22201   1.742   4.062  15.743 -0.7789  3.6770  2.4792
  192SLPC     P22202   1.622   3.801  15.781 -0.1242  0.0964 -0.0757
  192SLPC   O1322203   1.545   3.720  15.876  0.0683 -0.3444 -0.2418
  192SLPC   O1422204   1.662   3.745  15.653  0.0551  0.6505 -0.3052
  192SLPC   O1222205   1.552   3.937  15.745 -0.6961  0.2583 -0.9441
  192SLPC   O1122206   1.751   3.842  15.863 -0.4194  0.1978  0.2281
  192SLPC    C122207   1.808   3.762  15.960  0.1827 -0.0759  0.2424
  192SLPC    HA22208   1.833   3.832  16.042  0.4000  0.0804  0.0416
  192SLPC    HB22209   1.747   3.681  16.006  1.7258 -0.7637  1.1311
  192SLPC    C222210   1.932   3.688  15.908 -0.4879 -0.1278 -0.3408
  192SLPC    HS22211   1.968   3.617  15.986  0.9366  0.7644 -0.1715
  192SLPC   O2122212   2.029   3.788  15.873 -0.1605 -0.1053  0.0196
  192SLPC   C2122213   2.093   3.844  15.975 -0.0965  0.0413 -0.9253
  192SLPC   O2222214   2.101   3.803  16.089 -0.1429 -0.4483 -0.2596
  192SLPC   C2222215   2.157   3.971  15.916 -0.5893  0.1043  0.0688
  192SLPC   H2R22216   2.209   3.943  15.821 -0.6943 -4.1328  1.0447
  192SLPC   H2S22217   2.071   4.040  15.903  0.9587  1.7308 -2.6276
  192SLPC    C322218   1.904   3.590  15.790 -0.3431  1.0850 -0.7438
  192SLPC    HX22219   1.888   3.661  15.706  0.3924  0.1687 -1.6993
  192SLPC    HY22220   1.807   3.537  15.807 -0.1238  1.4158  1.9245
  192SLPC   O3122221   2.017   3.496  15.776  0.3708  0.1426 -0.3210
  192SLPC   C3122222   2.025   3.447  15.656  0.1735 -0.6118  0.1246
  192SLPC   O3222223   1.948   3.461  15.568  0.1562  0.2553 -0.1042
  192SLPC   C3222224   2.151   3.362  15.647 -0.4713 -0.0043  0.5080
  192SLPC   H2X22225   2.122   3.277  15.581 -0.7272 -0.0635  0.6964
  192SLPC   H2Y22226   2.177   3.327  15.748 -1.1582  2.0839  1.4744
  192SLPC   C2322227   2.257   4.056  16.009 -0.4047 -0.0443 -1.2123
  192SLPC   H3R22228   2.351   4.002  16.035 -1.9035 -1.7244  1.0827
  192SLPC   H3S22229   2.206   4.073  16.106  2.8337 -0.9816  0.8091
  192SLPC   C2422230   2.317   4.190  15.959 -0.3974 -1.0683  0.0600
  192SLPC   H4R22231   2.234   4.250  15.916  0.0118 -0.2736  0.3618
  192SLPC   H4S22232   2.372   4.156  15.869 -2.1990 -2.8347 -0.4329
  192SLPC   C2522233   2.401   4.276  16.064 -1.1001  0.4066 -0.0810
  192SLPC   H5R22234   2.338   4.270  16.156 -1.1617  0.8153 -0.0970
  192SLPC   H5S22235   2.400   4.381  16.028  1.4140  0.5850  0.1842
  192SLPC   C2622236   2.542   4.231  16.104 -0.2935 -0.1051  0.2148
  192SLPC   H6R22237   2.600   4.226  16.009 -0.4099  1.0030  0.0712
  192SLPC   H6S22238   2.565   4.131  16.145  1.4527  0.4524  0.6756
  192SLPC   C2722239   2.592   4.323  16.210  0.4135 -0.1519  0.3607
  192SLPC   H7R22240   2.515   4.311  16.290 -0.8691 -0.3022 -0.8556
  192SLPC   H7S22241   2.600   4.425  16.167 -1.8927  0.2500  0.7787
  192SLPC   C2822242   2.738   4.293  16.263  0.3521 -0.5470 -0.6312
  192SLPC   H8R22243   2.803   4.318  16.177 -1.9082  3.4867 -1.4230
  192SLPC   H8S22244   2.734   4.186  16.294  0.4345  0.1737  2.1498
  192SLPC   C2922245   2.763   4.361  16.395 -0.3575  0.4591 -0.1281
  192SLPC   H9R22246   2.720   4.307  16.482  1.2804 -1.1649 -0.2497
  192SLPC  C21022247   2.860   4.453  16.409 -0.0052 -0.6322 -0.4939
  192SLPC  H10R22248   2.866   4.508  16.504  1.2832 -0.6123 -0.5695
  192SLPC  C21122249   2.947   4.511  16.298 -0.5349 -0.5002  0.4376
  192SLPC  H11R22250   2.887   4.561  16.218 -0.9099 -1.4574  0.1091
  192SLPC  H11S22251   2.986   4.423  16.242 -2.2182 -0.4817 -0.8623
  192SLPC  C21222252   3.051   4.608  16.343  0.2648 -0.9162  0.3212
  192SLPC  H12R22253   3.019   4.713  16.342  1.7375 -0.4367 -0.9690
  192SLPC  C21322254   3.184   4.595  16.371  0.0016 -0.1451  0.3620
  192SLPC  H13R22255   3.236   4.684  16.411  0.9712 -1.0659  1.2274
  192SLPC  C21422256   3.274   4.476  16.380 -0.3897  0.0247 -0.4310
  192SLPC  H14R22257   3.382   4.504  16.377 -0.1834 -0.6725 -3.3228
  192SLPC  H14S22258   3.267   4.403  16.296  0.9334  0.5490 -1.0251
  192SLPC  C21522259   3.258   4.392  16.507  0.0345  0.6684  0.2811
  192SLPC  H15R22260   3.334   4.312  16.496 -0.1093  0.7958 -2.2303
  192SLPC  H15S22261   3.157   4.349  16.524  1.1676 -2.4216 -0.2916
  192SLPC  C21622262   3.300   4.474  16.635  0.2460 -0.0530 -0.2722
  192SLPC  H16R22263   3.266   4.415  16.722 -0.8099  0.6169 -0.2174
  192SLPC  H16S22264   3.243   4.569  16.644  1.1119  0.2818  2.4153
  192SLPC  C21722265   3.451   4.485  16.649  0.4770 -0.1768 -0.3656
  192SLPC  H17R22266   3.509   4.417  16.583 -0.0167 -1.6851  0.7012
  192SLPC  H17S22267   3.468   4.590  16.617 -3.5051  1.1001  1.0155
  192SLPC  C21822268   3.484   4.477  16.801 -0.3857 -0.3158 -0.0821
  192SLPC  H18R22269   3.581   4.531  16.811 -0.6550  0.5476 -1.8283
  192SLPC  H18S22270   3.484   4.373  16.842 -0.5542 -0.3208 -0.0962
  192SLPC  H18T22271   3.402   4.535  16.848  0.6263  0.2723  1.0201
  192SLPC   C3322272   2.260   3.454  15.577  0.2521 -0.3417 -1.6618
  192SLPC   H3X22273   2.280   3.549  15.630 -1.0107 -1.1467  0.4188
  192SLPC   H3Y22274   2.220   3.470  15.475 -1.9646  0.8237 -0.6740
  192SLPC   C3422275   2.395   3.377  15.571  0.2279 -0.3116 -0.4351
  192SLPC   H4X22276   2.396   3.297  15.493 -0.7096  1.0314 -1.9036
  192SLPC   H4Y22277   2.432   3.324  15.661 -1.2344 -1.0747 -0.2548
  192SLPC   C3522278   2.510   3.471  15.522  0.1129  0.1419 -0.6720
  192SLPC   H5X22279   2.505   3.568  15.577 -2.1628  0.2395 -0.9465
  192SLPC   H5Y22280   2.489   3.494  15.415 -1.1467  0.8166 -0.3023
  192SLPC   C3622281   2.639   3.403  15.548  0.1294 -0.7199  0.2417
  192SLPC   H6X22282   2.630   3.309  15.488  1.3787  0.5860 -2.1729
  192SLPC   H6Y22283   2.663   3.378  15.653  0.7847 -0.5788  0.1308
  192SLPC   C3722284   2.758   3.475  15.485 -0.3079  0.2620 -0.7011
  192SLPC   H7X22285   2.759   3.584  15.505  1.3936  0.2008 -0.3474
  192SLPC   H7Y22286   2.741   3.463  15.375  2.4058  2.2659 -1.4325
  192SLPC   C3822287   2.903   3.429  15.524 -0.3087  0.0047 -0.4641
  192SLPC   H8X22288   2.905   3.323  15.556 -0.3586  0.0710 -0.2442
  192SLPC   H8Y22289   2.941   3.488  15.610  1.3855 -2.1313  0.3260
  192SLPC   C3922290   3.013   3.468  15.424 -0.4859  0.1466 -0.6166
  192SLPC   H9X22291   3.004   3.576  15.399 -0.7640  0.0562 -0.9175
  192SLPC   H9Y22292   2.976   3.428  15.327 -1.8415 -0.8007  0.2656
  192SLPC  C31022293   3.159   3.431  15.452 -0.1314  0.0741 -0.7181
  192SLPC  H10X22294   3.229   3.462  15.372  0.9096 -1.2300 -0.3454
  192SLPC  H10Y22295   3.162   3.320  15.459 -0.5428 -0.1198 -2.9082
  192SLPC  C31122296   3.206   3.491  15.584 -0.0154 -0.0607 -0.2666
  192SLPC  H11X22297   3.166   3.425  15.664  1.2264 -0.3245  0.1575
  192SLPC  H11Y22298   3.174   3.596  15.597  1.1809  0.2799  0.0448
  192SLPC  C31222299   3.359   3.472  15.603  0.0995  0.3292  0.0971
  192SLPC  H12X22300   3.420   3.500  15.514  0.2139 -1.3461 -0.3843
  192SLPC  H12Y22301   3.360   3.361  15.614 -1.4422  0.4220  1.5798
  192SLPC  C31322302   3.424   3.542  15.723 -0.1350  0.4796  0.0832
  192SLPC  H13X22303   3.442   3.648  15.696 -0.3468  0.9319  1.6179
  192SLPC  H13Y22304   3.517   3.486  15.742 -0.2548 -0.0995 -0.9499
  192SLPC  C31422305   3.341   3.555  15.858  0.8159 -0.2387  0.0563
  192SLPC  H14X22306   3.321   3.451  15.892  0.2259 -0.2981 -0.4609
  192SLPC  H14Y22307   3.240   3.590  15.830  1.0010 -0.1812 -0.5382
  192SLPC  C31522308   3.404   3.646  15.968  0.3143 -0.2794  0.1237
  192SLPC  H15X22309   3.508   3.622  15.996  0.5225 -1.3390 -1.4483
  192SLPC  H15Y22310   3.337   3.641  16.057 -1.0402  0.1003 -0.8493
  192SLPC  C31622311   3.409   3.798  15.921  0.3689  0.2471  0.1546
  192SLPC  H16X22312   3.307   3.837  15.903  0.4831 -0.5815 -2.7399
  192SLPC  H16Y22313   3.468   3.803  15.827  2.1397 -1.2840  1.1013
  192SLPC  C31722314   3.476   3.894  16.029 -0.1595  0.1645  0.4040
  192SLPC  H17X22315   3.472   3.993  15.981  2.2158 -0.0512 -0.3681
  192SLPC  H17Y22316   3.585   3.874  16.039 -0.1268  0.0511 -0.1688
  192SLPC  C31822317   3.388   3.921  16.157  0.0845  0.2195 -0.0807
  192SLPC  H18X22318   3.388   3.828  16.218 -1.4314  0.5549  0.4815
  192SLPC  H18Y22319   3.282   3.939  16.130 -0.3199 -0.5950  0.8915
  192SLPC  H18Z22320   3.423   4.008  16.216 -1.1134  0.4485  0.3225
  193SOD    SOD22321   1.357   2.021   9.112  0.5175  0.6492  0.0213
  194SOD    SOD22322   0.060   3.777  26.302  0.3710 -0.0031  0.3478
  195SOD    SOD22323   1.109   0.877   4.777  0.4276 -0.1032  0.1637
  196SOD    SOD22324   3.895   3.967   4.331 -0.0385  0.6412  0.0902
  197SOD    SOD22325   3.048   3.259  30.337  0.2520 -0.2191  0.6843
  198SOD    SOD22326   3.237   0.936  34.912 -0.2119 -0.4183  0.5209
  199SOD    SOD22327   1.736   1.532  13.521  0.0642 -0.5326 -0.3591
  200SOD    SOD22328   1.671   2.751   8.275  0.5029  0.4683 -0.1054
  201SOD    SOD22329   0.198   3.219   2.672  0.4748 -0.4024 -0.4623
  202SOD    SOD22330   0.436   0.295  36.730 -0.0526  0.5600 -0.6482
  203SOD    SOD22331   3.072   0.422   3.317  0.5431  0.2800 -0.0541
  204SOD    SOD22332   3.235   1.492  40.208  1.2863  0.0096 -0.1637
  205SOD    SOD22333   3.976   1.514  24.938 -0.1196 -0.3303 -0.0371
  206SOD    SOD22334   0.372   0.924  26.698 -0.2109 -0.0954  0.0216
  207SOD    SOD22335   2.688   4.397   1.891 -0.2184 -0.6065 -0.1676
  208SOD    SOD22336   1.512   4.363  19.050 -0.0637  0.2650 -0.0656
  209SOD    SOD22337   0.641   2.026  38.141 -0.3802 -0.4838 -0.6361
  210SOD    SOD22338   3.183   2.683  32.251 -0.1393  0.1041 -0.0536
  211SOD    SOD22339   1.614   2.059   0.943 -0.1819 -0.1152  0.0696
  212SOD    SOD22340   2.047   4.103  18.384  0.4241 -0.1883 -0.2740
  213SOD    SOD22341   4.244   2.482  24.524  0.1063  0.0396 -0.1707
  214SOD    SOD22342   3.616   0.711  30.613 -0.1532 -0.0200  0.4227
  215SOD    SOD22343   0.573   4.139   7.392  0.4573 -0.0206  0.7899
  216SOD    SOD22344   3.734   1.300  24.560 -0.1105 -0.2056  0.0524
  217SOD    SOD22345   3.771   2.397  12.310 -0.1675  0.2013  0.0319
  218SOD    SOD22346   1.189   3.990   1.332  0.0951 -0.4475 -0.2672
  219SOD    SOD22347   3.470   3.118   5.263  0.3305 -0.4736  0.6673
  220SOD    SOD22348   1.941   0.490  27.346  0.1896 -0.4363 -0.0768
  221SOD    SOD22349   0.138   0.995  22.845  0.5449 -0.3983  0.4800
  222SOD    SOD22350   2.185   0.462   8.311 -0.7095  0.3101  0.6683
  223SOD    SOD22351   0.568   0.927  21.402  0.0965 -0.4670  0.1842
  224SOD    SOD22352   0.696   0.366  39.596 -0.2365 -0.5497  0.0216
  225SOD    SOD22353   3.671   4.229  30.934  0.6621 -0.0732  0.4060
  226SOD    SOD22354   1.808   4.228  37.980  0.3019  0.1456  0.0476
  227SOD    SOD22355   0.313   0.940   2.639  0.0389 -0.0461  0.5889
  228SOD    SOD22356   0.140   1.667  25.234  0.3481 -0.2261 -0.1294
  229SOD    SOD22357   3.767   2.461  24.216  0.2087 -0.0534  0.0848
  230SOD    SOD22358   1.497   1.937  40.130  0.3059  0.0746  0.0900
  231SOD    SOD22359   3.830   1.501  27.361 -0.2577  0.3926 -0.0545
  232SOD    SOD22360   4.276   1.957  40.523  0.0384  0.1301  0.0630
  233SOD    SOD22361   1.062   2.236  30.847 -0.1112  0.0815  0.0894
  234SOD    SOD22362   1.476   1.299  31.743  0.5026 -0.2072 -0.3595
  235SOD    SOD22363   3.770   3.672  36.901  0.6684  0.4950  0.2749
  236SOD    SOD22364   1.611   3.270  15.252 -0.1245 -0.3758  0.3589
  237SOD    SOD22365   0.889   1.172  34.139  0.2617 -1.0160  0.0032
  238SOD    SOD22366   1.732   2.748  36.824 -0.2862 -0.2685  0.1603
  239SOD    SOD22367   2.082   2.538  16.686 -0.1642 -0.1472  0.1317
  240SOD    SOD22368   3.512   1.722  37.388 -0.2907  0.7092  0.3777
  241SOD    SOD22369   1.919   3.529  38.475  0.2857 -0.1393  0.4567
  242SOD    SOD22370   3.962   2.916  10.472  0.2498 -0.1818 -0.1541
  243SOD    SOD22371   4.374   2.244  12.213 -0.6799  0.2259  0.3800
  244SOD    SOD22372   0.913   4.009   9.057  0.0313 -0.1501 -0.3457
  245SOD    SOD22373   0.402   3.261   6.148  0.1385 -0.3514  0.3433
  246SOD    SOD22374   1.131   0.828  34.858 -0.2037 -0.1890 -0.2625
  247SOD    SOD22375   4.313   0.092   5.534 -0.0976  0.0787  0.2077
  248SOD    SOD22376   1.550   3.046   7.752  0.0178 -0.4017 -0.1479
  249SOD    SOD22377   3.429   3.455  28.705  0.1008  0.1662 -0.2954
  250SOD    SOD22378   2.249   4.136  12.898 -0.0999  0.1014 -0.0750
  251SOD    SOD22379   2.128   0.131  19.259 -0.1406  0.3392 -0.7187
  252SOD    SOD22380   3.368   0.455  27.209  0.2735 -0.2579  0.8610
  253SOD    SOD22381   2.521   0.315   5.252  0.2445  0.5777  0.0240
  254SOD    SOD22382   0.093   1.974  37.656 -0.3884 -0.0661  0.9641
  255SOD    SOD22383   4.025   1.539   5.113 -0.3550 -0.1117 -0.1561
  256SOD    SOD22384   1.708   0.224  17.662 -0.1318  0.5208 -0.0281
  257SOD    SOD22385   1.130   2.370  16.191  0.2359  0.0093 -0.3569
  258SOD    SOD22386   3.385   3.762  37.521  0.1849  0.8954 -0.1717
  259SOD    SOD22387   4.142   2.659  22.293 -0.0408  0.1154  0.5084
  260SOD    SOD22388   2.674   1.408   4.269 -0.5172  0.2243  0.1143
  261SOD    SOD22389   3.467   1.125  40.706 -0.1533 -0.0359 -0.0788
  262SOD    SOD22390   2.855   0.209  29.957 -0.0340 -0.1585  0.1655
  263SOD    SOD22391   4.258   2.508  27.074 -0.2434 -0.3486 -0.5121
  264SOD    SOD22392   4.333   3.422  23.018  0.1008 -0.1856  0.2928
  265SOD    SOD22393   2.174   1.423  13.742  0.3353  0.3042  0.0646
  266CLA    CLA22394   0.352   2.959  27.232 -0.1408  0.5432  0.2296
  267CLA    CLA22395   4.150   4.337   6.749 -0.0293 -0.0523 -0.0254
  268CLA    CLA22396   3.424   0.624  10.207  0.1357 -0.0135  0.0730
  269CLA    CLA22397   1.378   4.107  38.799  0.7080 -0.3119  0.2683
  270CLA    CLA22398   3.655   0.736   4.721  0.4207  0.4101  0.0216
  271CLA    CLA22399   3.030   0.219  12.789 -0.1183  0.2983  0.4945
  272CLA    CLA22400   1.487   4.109  35.484  0.2980 -0.1383  0.0088
  273CLA    CLA22401   0.793   2.887   9.836  0.2259 -0.2792 -0.2259
  274CLA    CLA22402   0.823   0.280  34.987 -0.0238 -0.2686  0.0330
  275CLA    CLA22403   3.835   0.035  39.058  0.1567  0.1848  0.4469
  276CLA    CLA22404   0.347   0.703   1.148 -0.1058  0.6301 -0.3576
  277CLA    CLA22405   0.801   2.830  36.294  0.2452 -0.3487 -0.3151
  278CLA    CLA22406   1.914   0.956  33.564  0.3652  0.5109 -0.0749
  279CLA    CLA22407   0.993   0.182   9.732 -0.3280  0.1325  0.1294
  280CLA    CLA22408   2.023   2.364  36.261 -0.3352 -0.0648 -0.6719
  281CLA    CLA22409   1.047   1.453   8.466 -0.3266 -0.2968 -0.3666
  282CLA    CLA22410   0.834   3.815  37.927 -0.4947  0.1320  0.3274
  283CLA    CLA22411   1.014   0.042   4.029  0.1061 -0.0665 -0.3067
  284CLA    CLA22412   4.385   0.725  27.352  0.3370 -0.1320  0.0799
  285CLA    CLA22413   3.473   0.157  30.655  0.1975  0.0238 -0.5087
  286CLA    CLA22414   0.546   4.348   8.126  0.0165 -0.2031 -0.0629
  287CLA    CLA22415   2.679   1.635  40.207  0.1250 -0.0664  0.1019
  288CLA    CLA22416   0.571   1.607  38.019 -0.0876 -0.1866 -0.0127
  289CLA    CLA22417   2.440   1.855  29.413 -0.2789 -0.4660  0.2193
  290CLA    CLA22418   0.091   2.321  37.963  0.3948 -0.0573  0.1312
  291CLA    CLA22419   2.940   0.479  10.236  0.2453 -0.0396 -0.2188
  292CLA    CLA22420   2.224   3.087  32.842 -0.5350 -0.0858  0.0534
  293CLA    CLA22421   1.916   0.933  28.420 -0.0659  0.2571 -0.0858
  294CLA    CLA22422   1.521   4.278  29.424 -0.0139 -0.4243 -0.2265
  295CLA    CLA22423   1.564   1.290  35.854 -0.3759  0.2604 -0.0959
  296CLA    CLA22424   1.974   3.184   4.540 -0.1111 -0.1049 -0.0111
  297CLA    CLA22425   0.807   0.974  31.813 -0.1711  0.1938 -0.0685
  298CLA    CLA22426   0.559   1.515   2.715 -0.2839  0.4317  0.0706
  299CLA    CLA22427   2.890   1.919   4.733 -0.0638  0.1527  0.3294
  300CLA    CLA22428   1.637   3.032  28.342  0.1046 -0.3719 -0.1186
  301CLA    CLA22429   1.021   0.032  27.726 -0.3405  0.0413 -0.3906
  302CLA    CLA22430   0.265   2.432  36.226 -0.1101  0.2366  0.1190
  303CLA    CLA22431   0.372   3.521   5.704 -0.1773 -0.2366 -0.5648
  304CLA    CLA22432   2.423   4.120  11.176  0.1002 -0.2087 -0.5082
  305CLA    CLA22433   2.190   0.010   4.549  0.0969  0.1136  0.2435
  306CLA    CLA22434   4.016   1.017  30.432 -0.1599  0.2236  0.0935
  307CLA    CLA22435   3.349   2.056  37.802  0.1182 -0.4752  0.3564
  308CLA    CLA22436   1.053   3.917   7.381  0.2309  0.2199  0.3595
  309CLA    CLA22437   3.091   4.034  38.682  0.4663  0.0100  0.0459
  310CLA    CLA22438   3.072   3.797   1.341  0.2096 -0.1359  0.2407
  311CLA    CLA22439   1.362   1.391  40.196 -0.3884  0.2330 -0.3684
  312CLA    CLA22440   2.378   4.054  37.241 -0.1792  0.4572  0.1755
  313CLA    CLA22441   1.195   1.926  38.493  0.0938  0.2006  0.2092
  314CLA    CLA22442   4.019   3.671   1.014 -0.1548  0.0652  0.2900
  315CLA    CLA22443   0.719   3.176  41.268  0.1110  0.5334  0.1077
  316CLA    CLA22444   2.147   2.493  10.559  0.1680  0.1315  0.0038
  317CLA    CLA22445   1.479   2.132   2.168 -0.2957  0.4198 -0.1724
  318CLA    CLA22446   3.292   0.494   4.530 -0.0079  0.3436  0.2111
  319TIP3   OH222447   2.199   1.746  39.836  0.0732  0.2584 -0.5251
  319TIP3    H122448   2.211   1.760  39.930 -1.0813  1.6224 -0.5554
  319TIP3    H222449   2.136   1.674  39.831 -1.5659  1.6134 -0.1814
  320TIP3   OH222450   2.056   1.170   0.710 -0.2023  0.3255  0.3618
  320TIP3    H122451   2.119   1.101   0.689 -0.2245  0.7959 -1.4387
  320TIP3    H222452   1.999   1.175   0.633  0.5019  3.1055 -0.1080
  321TIP3   OH222453   0.941   2.319   5.699  0.3540  0.4427  0.0938
  321TIP3    H122454   0.963   2.357   5.784  0.7438  0.7296 -0.1315
  321TIP3    H222455   0.987   2.235   5.697 -1.0878 -0.3848  0.8861
  322TIP3   OH222456   3.476   0.501   1.578  0.2439 -0.2267 -0.0193
  322TIP3    H122457   3.381   0.496   1.563 -0.1157  0.8783  1.6121
  322TIP3    H222458   3.512   0.524   1.492 -1.1536  0.9882 -0.3318
  323TIP3   OH222459   3.130   0.978  10.124  0.0582  0.2912  0.3352
  323TIP3    H122460   3.203   0.959  10.065  0.2154 -0.9179  0.8961
  323TIP3    H222461   3.069   0.905  10.111  0.4587 -0.4307  2.2177
  324TIP3   OH222462   0.212   4.396  40.922  0.1898  0.1880 -0.1233
  324TIP3    H122463   0.308   4.389  40.916  0.1065 -0.8906 -0.4284
  324TIP3    H222464   0.189   4.461  40.856  0.5923 -0.7582 -1.2469
  325TIP3   OH222465   3.789   0.447  12.129 -0.7150  0.4262  0.4144
  325TIP3    H122466   3.847   0.514  12.094 -1.3432  0.2226 -1.0687
  325TIP3    H222467   3.708   0.458  12.081 -0.3533 -2.3625 -1.0148
  326TIP3   OH222468   0.746   1.809   3.568  0.4789  0.4006 -0.7806
  326TIP3    H122469   0.731   1.814   3.473  1.9273  1.3036 -0.9902
  326TIP3    H222470   0.693   1.880   3.604 -1.2083 -0.8190 -0.7133
  327TIP3   OH222471   3.616   0.558  41.600 -0.1499 -0.4041 -0.4037
  327TIP3    H122472   3.684   0.522  41.544 -0.3153 -0.2424 -0.7087
  327TIP3    H222473   3.537   0.554  41.547 -0.0586  0.9591 -0.6798
  328TIP3   OH222474   1.255   3.170  31.467 -0.3461  0.4259 -0.2905
  328TIP3    H122475   1.173   3.124  31.449 -1.0672  1.5542  0.0064
  328TIP3    H222476   1.322   3.102  31.462 -1.1754 -0.3468 -1.5307
  329TIP3   OH222477   0.249   3.515   0.479  1.0787 -0.0146 -0.0603
  329TIP3    H122478   0.201   3.509   0.562  1.9275  0.0912  0.4547
  329TIP3    H222479   0.192   3.566   0.422 -0.7278 -2.2945 -0.4402
  330TIP3   OH222480   0.301   3.776   5.883 -0.2358  0.0678  0.0858
  330TIP3    H122481   0.354   3.733   5.816  0.9710  2.2886 -0.5008
  330TIP3    H222482   0.332   3.739   5.965 -2.0195 -3.0051 -0.4922
  331TIP3   OH222483   3.902   2.638   1.968  0.0604  0.3024  0.0092
  331TIP3    H122484   3.952   2.706   1.921  1.0181  0.6644  1.4738
  331TIP3    H222485   3.933   2.644   2.058 -0.3132 -1.6680  0.3111
  332TIP3   OH222486   3.750   0.814   5.878  0.0274  0.1673  0.1095
  332TIP3    H122487   3.844   0.832   5.870  0.2625 -0.9192  0.3733
  332TIP3    H222488   3.711   0.866   5.807  1.0498 -1.0749 -1.4403
  333TIP3   OH222489   3.438   3.278  11.472  0.4561 -0.4896  0.3545
  333TIP3    H122490   3.525   3.243  11.488  0.6503  0.4560  1.5537
  333TIP3    H222491   3.429   3.349  11.536 -0.5831  0.4839 -0.8240
  334TIP3   OH222492   1.567   0.156  34.267  0.2055 -0.0636 -0.4120
  334TIP3    H122493   1.510   0.232  34.258 -0.8931 -0.9901 -1.8968
  334TIP3    H222494   1.567   0.137  34.361  0.7503  1.9016  0.0265
  335TIP3   OH222495   0.146   1.828  10.232 -0.7988  0.0094  0.4867
  335TIP3    H122496   0.105   1.791  10.311 -3.1324 -1.1726 -1.1589
  335TIP3    H222497   0.157   1.921  10.252 -0.4906 -0.4219  2.5185
  336TIP3   OH222498   1.362   0.878  35.926  0.5540  0.5208  0.3942
  336TIP3    H122499   1.349   0.824  36.004 -2.8984  1.1986  0.4615
  336TIP3    H222500   1.344   0.820  35.852 -0.5393  0.8840  0.3536
  337TIP3   OH222501   0.441   3.843  37.099  0.1506  0.3173  0.3292
  337TIP3    H122502   0.407   3.754  37.098 -1.2210  0.8085  0.7465
  337TIP3    H222503   0.465   3.858  37.191 -0.7428  0.7638  0.4997
  338TIP3   OH222504   0.577   2.946  23.611  0.0177  0.4921 -0.3257
  338TIP3    H122505   0.600   2.853  23.615 -2.5630 -0.1939  1.2640
  338TIP3    H222506   0.534   2.956  23.526 -1.2032 -0.2418  0.1699
  339TIP3   OH222507   0.939   2.696  27.915 -0.1611 -0.3366 -0.0692
  339TIP3    H122508   0.946   2.735  27.828  1.1087 -0.9886 -0.2915
  339TIP3    H222509   0.848   2.710  27.941 -0.2080  1.1101 -0.9001
  340TIP3   OH222510   0.317   0.675   6.286  0.5692 -0.4214 -0.0314
  340TIP3    H122511   0.364   0.725   6.354 -0.0462  0.5372 -0.2853
  340TIP3    H222512   0.228   0.669   6.318  0.6002 -1.2165 -0.0945
  341TIP3   OH222513   2.088   1.703   8.863 -0.1301 -0.2707 -0.6614
  341TIP3    H122514   2.037   1.774   8.903 -1.0458 -1.5449  0.5078
  341TIP3    H222515   2.164   1.693   8.921 -1.3427 -1.9647  0.7397
  342TIP3   OH222516   3.435   3.257   0.971  0.4289 -0.3253 -0.3666
  342TIP3    H122517   3.455   3.317   0.899  0.5362 -0.2565 -0.2787
  342TIP3    H222518   3.519   3.238   1.012  0.1151  2.0063  1.6252
  343TIP3   OH222519   0.294   1.661  38.982 -0.7342 -0.2374 -0.1659
  343TIP3    H122520   0.271   1.644  39.073 -0.0249 -2.4817 -0.3589
  343TIP3    H222521   0.222   1.715  38.949 -0.4865  1.5287  1.9523
  344TIP3   OH222522   2.084   1.774   1.039  0.3873 -0.0925  0.0927
  344TIP3    H122523   2.179   1.765   1.041  0.3397 -0.5633  0.2488
  344TIP3    H222524   2.068   1.861   1.077  0.7355 -0.1426  0.3633
  345TIP3   OH222525   3.988   3.816  37.874 -0.1816 -0.3830  0.1842
  345TIP3    H122526   3.958   3.855  37.956  1.2260  0.8820  0.1435
  345TIP3    H222527   4.000   3.724  37.895 -0.0389 -0.1180  1.3592
  346TIP3   OH222528   3.978   2.352   5.713  0.1779 -0.3693 -0.0468
  346TIP3    H122529   3.931   2.301   5.778  1.3503 -1.9240 -0.3748
  346TIP3    H222530   4.067   2.359   5.746  0.7552 -1.0529 -1.3683
  347TIP3   OH222531   2.178   4.373   9.464 -0.4076  0.0017  0.1180
  347TIP3    H122532   2.248   4.308   9.454 -1.6677 -1.3474 -0.3743
  347TIP3    H222533   2.124   4.361   9.386 -1.2296  0.9605  0.5287
  348TIP3   OH222534   1.091   0.032  40.817  0.0947 -0.3562  0.3705
  348TIP3    H122535   1.091   0.027  40.912 -0.5579 -0.9633  0.3454
  348TIP3    H222536   1.000   0.013  40.792  0.8190 -2.9440 -0.5062
  349TIP3   OH222537   0.569   0.244  34.213  0.0921 -0.2838  0.6808
  349TIP3    H122538   0.508   0.178  34.180 -0.4337  0.0075  1.0474
  349TIP3    H222539   0.649   0.196  34.233  0.4322 -0.4688 -0.9947
  350TIP3   OH222540   0.842   3.558  30.284  0.5025  0.2531  0.2566
  350TIP3    H122541   0.857   3.634  30.228  1.2937 -0.3488 -0.3672
  350TIP3    H222542   0.924   3.545  30.331 -0.3151  1.0904  2.0291
  351TIP3   OH222543   0.132   2.172  33.580  0.5566  0.4671  0.1919
  351TIP3    H122544   0.077   2.167  33.657  0.8191 -0.4424  0.3301
  351TIP3    H222545   0.098   2.246  33.530  0.4429  1.1176  1.2126
  352TIP3   OH222546   0.835   3.635  15.304  0.9843 -0.0331 -0.2638
  352TIP3    H122547   0.924   3.641  15.339 -0.4076 -0.4817  3.9543
  352TIP3    H222548   0.791   3.714  15.337 -1.0560 -1.5808  0.9344
  353TIP3   OH222549   0.632   2.625  11.175 -0.1103  0.1643 -0.3690
  353TIP3    H122550   0.624   2.668  11.089 -0.7624 -1.4133 -1.1427
  353TIP3    H222551   0.545   2.587  11.190  0.4756 -0.9870  0.2097
  354TIP3   OH222552   0.675   3.044  37.569 -0.1327  0.2414  0.3963
  354TIP3    H122553   0.700   2.979  37.634 -0.9719 -0.4087  0.0984
  354TIP3    H222554   0.588   3.074  37.598  1.1906  3.0322  1.8887
  355TIP3   OH222555   3.090   3.401   1.095  0.0831 -0.3569 -0.6797
  355TIP3    H122556   3.000   3.377   1.074 -0.3002 -0.4368  0.8981
  355TIP3    H222557   3.105   3.483   1.049 -1.7267  1.0669  1.0795
  356TIP3   OH222558   1.636   0.574  11.850  0.6618  0.1733 -0.1913
  356TIP3    H122559   1.572   0.525  11.798  0.4979  1.5592 -1.3394
  356TIP3    H222560   1.716   0.521  11.845  0.7409  0.4246 -2.1454
  357TIP3   OH222561   0.191   0.348  33.204  0.7416 -0.5895 -0.1877
  357TIP3    H122562   0.243   0.278  33.243  0.6891 -0.5205  0.0049
  357TIP3    H222563   0.108   0.346  33.251  0.5419 -0.7430 -0.5411
  358TIP3   OH222564   2.331   1.984   8.543 -0.3079 -0.6611  0.1756
  358TIP3    H122565   2.397   2.015   8.481  0.3345 -1.3215  0.5106
  358TIP3    H222566   2.323   2.055   8.607 -0.5046 -0.2443 -0.3073
  359TIP3   OH222567   0.893   3.199  27.594  0.7072 -0.0471 -0.3272
  359TIP3    H122568   0.824   3.266  27.599  3.5971  3.0961  2.0465
  359TIP3    H222569   0.930   3.196  27.682  3.8468 -1.3207 -1.5570
  360TIP3   OH222570   4.202   1.326  29.278  0.5813  0.4426  0.3979
  360TIP3    H122571   4.155   1.322  29.361 -1.5999 -0.1121 -0.7851
  360TIP3    H222572   4.218   1.420  29.264  0.5192  0.5762  1.1808
  361TIP3   OH222573   4.202   3.307   4.569 -0.1036 -0.2739  0.1970
  361TIP3    H122574   4.233   3.253   4.496 -0.2348 -0.3510  0.1991
  361TIP3    H222575   4.266   3.378   4.574 -0.5008  0.1475 -0.4753
  362TIP3   OH222576   1.445   3.109   9.705 -0.0176  0.6859 -0.4826
  362TIP3    H122577   1.449   3.201   9.731  0.4562  0.3371  0.7333
  362TIP3    H222578   1.425   3.062   9.785 -1.1305 -0.2161 -1.2590
  363TIP3   OH222579   2.021   2.890  28.742  0.8247  0.0934  0.4410
  363TIP3    H122580   2.046   2.864  28.653  1.8232  1.9256  0.1315
  363TIP3    H222581   2.062   2.825  28.798 -0.1475 -1.3264 -0.4296
  364TIP3   OH222582   0.272   0.554  20.857 -0.0979  0.0802  0.5719
  364TIP3    H122583   0.200   0.616  20.852 -0.8661 -0.7493  1.0331
  364TIP3    H222584   0.273   0.525  20.948  0.0059 -0.8451  0.2916
  365TIP3   OH222585   1.633   0.543  41.168 -0.0527 -0.1465 -0.1761
  365TIP3    H122586   1.698   0.612  41.154 -1.0257  0.8908  0.2891
  365TIP3    H222587   1.651   0.479  41.100 -0.6177  1.7121 -2.1915
  366TIP3   OH222588   0.487   0.128  32.755  0.1115 -0.0553  0.1329
  366TIP3    H122589   0.437   0.078  32.819 -0.4885 -1.3046 -1.2538
  366TIP3    H222590   0.565   0.075  32.739 -0.7349 -0.8460 -1.6674
  367TIP3   OH222591   2.577   0.701  32.183  0.5318  0.7801 -0.2249
  367TIP3    H122592   2.584   0.661  32.269  1.5680 -1.2157 -1.1643
  367TIP3    H222593   2.595   0.629  32.122 -0.0818  2.1452 -2.1071
  368TIP3   OH222594   2.049   1.379   8.609 -0.2703 -0.7981  0.4087
  368TIP3    H122595   1.960   1.410   8.591 -0.1412  0.0089  1.0815
  368TIP3    H222596   2.103   1.458   8.607  0.2997 -1.1647  0.8225
  369TIP3   OH222597   3.856   2.208  27.088  0.0142  0.0534  0.3256
  369TIP3    H122598   3.793   2.227  27.157  1.4865 -0.9104  1.9943
  369TIP3    H222599   3.841   2.116  27.066  0.5251 -0.0438  0.3834
  370TIP3   OH222600   2.813   1.223   9.125  0.4592 -0.0761 -0.3141
  370TIP3    H122601   2.893   1.272   9.109 -0.0145 -0.0519 -3.3094
  370TIP3    H222602   2.743   1.287   9.114 -0.0309 -0.5022  0.2775
  371TIP3   OH222603   3.611   3.097   0.616  0.1903  0.1614  0.3548
  371TIP3    H122604   3.630   3.187   0.587 -1.3323  0.3432 -0.2142
  371TIP3    H222605   3.517   3.098   0.635  0.1482 -1.3210  0.3271
  372TIP3   OH222606   1.814   0.644  12.276 -0.4451  0.3593 -0.0185
  372TIP3    H122607   1.722   0.669  12.267 -0.5202  0.1819  0.2357
  372TIP3    H222608   1.859   0.693  12.208 -0.5509  1.3492  0.6072
  373TIP3   OH222609   1.905   2.895   2.729  0.4498  0.0523 -0.1611
  373TIP3    H122610   1.925   2.810   2.691  0.8127  0.0929 -0.0644
  373TIP3    H222611   1.946   2.893   2.816 -0.7851 -0.2280  0.4423
  374TIP3   OH222612   0.633   2.648  33.751 -0.0808  0.5116 -0.2621
  374TIP3    H122613   0.566   2.585  33.780  0.0066  0.3278 -0.4613
  374TIP3    H222614   0.700   2.594  33.710  0.2272  0.6911  0.0024
  375TIP3   OH222615   2.233   1.756  29.062 -0.0678  0.0144  0.3693
  375TIP3    H122616   2.257   1.776  29.153 -0.5497  0.3653  0.4218
  375TIP3    H222617   2.212   1.841  29.024 -1.8611 -0.3295  0.5126
  376TIP3   OH222618   0.629   1.424  41.261 -0.0117 -0.6724 -0.4288
  376TIP3    H122619   0.677   1.370  41.198 -2.0062  0.0950 -2.7816
  376TIP3    H222620   0.581   1.487  41.207 -1.6975  0.1833  1.8918
  377TIP3   OH222621   0.585   0.564  39.521 -0.3321 -0.1521 -0.0088
  377TIP3    H122622   0.521   0.590  39.455  0.8930  0.7456 -0.8933
  377TIP3    H222623   0.649   0.635  39.521  0.0664 -0.4716  1.6704
  378TIP3   OH222624   3.355   3.799  11.292 -0.1802  0.1998  0.5181
  378TIP3    H122625   3.276   3.757  11.328 -0.0820  0.4212  1.0052
  378TIP3    H222626   3.392   3.846  11.367 -0.5505  1.5565 -0.1174
  379TIP3   OH222627   0.875   0.324   8.035 -0.4038 -0.6478  0.8524
  379TIP3    H122628   0.936   0.251   8.034 -1.5067 -1.5902  0.7581
  379TIP3    H222629   0.878   0.356   8.126  1.8408  0.7552  0.3559
  380TIP3   OH222630   2.442   0.711  34.437 -0.2196 -0.1328  0.0396
  380TIP3    H122631   2.411   0.765  34.364 -0.4218 -1.7970 -1.1696
  380TIP3    H222632   2.476   0.774  34.501 -0.6319  1.4160 -1.2046
  381TIP3   OH222633   0.348   3.207  24.169 -0.0646  0.1732 -0.3638
  381TIP3    H122634   0.362   3.118  24.200  0.1131  0.0477 -0.8031
  381TIP3    H222635   0.260   3.206  24.131  0.5222 -0.2305 -1.7887
  382TIP3   OH222636   1.625   4.112   0.332 -0.0629 -0.1642 -0.0789
  382TIP3    H122637   1.698   4.061   0.367  1.7362  0.7833 -2.2774
  382TIP3    H222638   1.611   4.181   0.396  1.9552  0.4836 -0.2687
  383TIP3   OH222639   3.520   3.098  38.337  0.3457 -0.0626 -0.0063
  383TIP3    H122640   3.614   3.082  38.345  0.2853 -2.6160 -2.6585
  383TIP3    H222641   3.479   3.016  38.365 -1.1612  0.9623  0.9942
  384TIP3   OH222642   2.975   2.680  28.542 -0.7069  0.2354 -0.3648
  384TIP3    H122643   2.886   2.697  28.574 -0.8281  0.5502 -0.8585
  384TIP3    H222644   2.963   2.634  28.459 -0.3883 -0.7010  0.0967
  385TIP3   OH222645   2.866   2.088  11.811 -0.4852  0.7160  0.0455
  385TIP3    H122646   2.893   2.177  11.787  1.0597  0.2498 -0.0512
  385TIP3    H222647   2.781   2.077  11.770 -1.5633  2.7824  1.5841
  386TIP3   OH222648   3.843   2.519   3.940  0.2614  0.3060 -0.3303
  386TIP3    H122649   3.859   2.425   3.938  0.7760  0.3992 -0.6581
  386TIP3    H222650   3.781   2.531   4.012 -0.1863 -0.3366 -0.6015
  387TIP3   OH222651   1.319   1.497  33.275  0.0716 -0.2489  0.2905
  387TIP3    H122652   1.277   1.491  33.361 -0.4786 -1.7367 -0.0557
  387TIP3    H222653   1.267   1.441  33.219  1.2122 -0.3533 -0.7017
  388TIP3   OH222654   2.795   0.738  10.924  0.8915  0.0049  0.1975
  388TIP3    H122655   2.741   0.678  10.974  1.4032  0.6056  1.5155
  388TIP3    H222656   2.809   0.813  10.982  1.8839  0.5303 -0.6732
  389TIP3   OH222657   3.935   2.512   3.063  0.7472 -0.1324 -0.3899
  389TIP3    H122658   4.009   2.463   3.098  1.0543 -0.0205 -0.8697
  389TIP3    H222659   3.858   2.462   3.090  0.9449  0.1738  0.7872
  390TIP3   OH222660   4.354   1.062   5.570 -0.0435 -0.4393 -0.4397
  390TIP3    H122661   4.410   1.136   5.547  0.2615 -0.7176 -0.6182
  390TIP3    H222662   4.387   0.990   5.516  1.0422 -1.2579  1.2374
  391TIP3   OH222663   2.030   2.488  27.593 -0.5491 -0.2033  0.4341
  391TIP3    H122664   1.947   2.535  27.585 -1.5495 -2.1267 -1.3361
  391TIP3    H222665   2.042   2.478  27.688 -1.7947  0.9969  0.7519
  392TIP3   OH222666   2.784   3.640  29.288  0.1528  0.1810  0.2284
  392TIP3    H122667   2.753   3.636  29.379 -1.4848 -1.1808 -0.3588
  392TIP3    H222668   2.816   3.552  29.270  4.5821  1.4155  0.7522
  393TIP3   OH222669   2.486   0.906  33.782  0.1024 -0.3336  0.2641
  393TIP3    H122670   2.464   0.814  33.767 -1.3600  0.1723 -0.9180
  393TIP3    H222671   2.564   0.903  33.837  1.2460 -2.3041 -1.3275
  394TIP3   OH222672   3.177   3.464  13.470 -0.1147  0.0405  0.0097
  394TIP3    H122673   3.150   3.538  13.416 -1.5955 -0.5724 -0.1389
  394TIP3    H222674   3.241   3.501  13.531 -1.7461  1.7619  0.7920
  395TIP3   OH222675   1.468   3.421  41.501 -0.1531  0.1545  0.0115
  395TIP3    H122676   1.375   3.402  41.515  0.1213  0.2041  2.2984
  395TIP3    H222677   1.474   3.443  41.408 -3.1514  3.9918  0.4532
  396TIP3   OH222678   1.223   2.914  37.097  0.1797  0.0019 -0.0794
  396TIP3    H122679   1.299   2.892  37.150 -0.5016 -0.7793  0.6011
  396TIP3    H222680   1.194   2.831  37.059 -1.1270  0.0309  0.7649
  397TIP3   OH222681   4.263   3.466   1.713  0.0289  0.2945  0.2103
  397TIP3    H122682   4.322   3.528   1.670 -0.2573 -0.5097 -1.4484
  397TIP3    H222683   4.308   3.440   1.792  1.1161  0.9963 -0.1583
  398TIP3   OH222684   0.290   3.547   8.306  0.4181 -0.0948 -0.4564
  398TIP3    H122685   0.300   3.465   8.258  0.5689  0.2136 -0.9546
  398TIP3    H222686   0.223   3.595   8.258  0.9476  0.4407 -0.6704
  399TIP3   OH222687   2.693   3.805   2.583  0.3750 -0.6400 -0.5696
  399TIP3    H122688   2.688   3.853   2.500 -0.8669  2.1784  1.0219
  399TIP3    H222689   2.603   3.800   2.614  0.8750 -1.2013  0.8832
  400TIP3   OH222690   0.535   1.254  35.750  0.4032 -0.2267 -0.4751
  400TIP3    H122691   0.465   1.202  35.789  0.8254 -1.0800 -0.8341
  400TIP3    H222692   0.509   1.267  35.659  0.5474 -0.2510 -0.5189
  401TIP3   OH222693   1.474   3.509  41.220  0.5197  0.0349  0.2180
  401TIP3    H122694   1.551   3.562  41.199 -0.3451  1.5439  0.6897
  401TIP3    H222695   1.401   3.571  41.219 -0.7770 -1.4194 -0.6406
  402TIP3   OH222696   2.167   2.103  33.054  0.2502 -0.3147 -0.4734
  402TIP3    H122697   2.152   2.197  33.044 -0.5626 -0.2621  1.0154
  402TIP3    H222698   2.123   2.080  33.136 -0.4904 -2.1999 -1.3392
  403TIP3   OH222699   1.395   2.781   6.432 -0.3511 -0.0583 -0.2475
  403TIP3    H122700   1.452   2.752   6.503  0.4073 -0.4662 -1.0018
  403TIP3    H222701   1.307   2.762   6.463 -0.0641  0.1493  0.7457
  404TIP3   OH222702   0.862   1.689  12.524  0.0066  0.4035  0.4146
  404TIP3    H122703   0.801   1.725  12.460 -0.4565  1.0243  1.1809
  404TIP3    H222704   0.928   1.758  12.536  0.9746 -0.3296 -0.5330
  405TIP3   OH222705   1.127   0.792   7.252  0.4453  0.2443 -0.0169
  405TIP3    H122706   1.199   0.833   7.301  0.9668 -2.3307  1.5335
  405TIP3    H222707   1.151   0.700   7.245 -2.1092 -0.4740 -0.5737
  406TIP3   OH222708   2.387   0.761  19.005 -0.2210  0.6524 -0.4322
  406TIP3    H122709   2.386   0.835  19.066  0.2699  0.7954 -0.5898
  406TIP3    H222710   2.390   0.801  18.918 -0.6738  0.4478 -0.5454
  407TIP3   OH222711   4.266   0.445  22.835  0.0585 -0.0111 -0.0674
  407TIP3    H122712   4.359   0.463  22.819  1.0451 -1.5639  3.0077
  407TIP3    H222713   4.220   0.488  22.763  3.1236  1.0445 -1.5706
  408TIP3   OH222714   0.243   4.242   9.536  0.2415 -0.2527  0.4811
  408TIP3    H122715   0.262   4.307   9.468  3.1280 -1.5677 -0.1046
  408TIP3    H222716   0.213   4.165   9.488 -0.7041 -0.1893  0.9646
  409TIP3   OH222717   1.951   2.554  29.849 -0.1646  0.0655 -0.2929
  409TIP3    H122718   1.865   2.530  29.882  0.2989 -1.3272 -0.0578
  409TIP3    H222719   1.933   2.614  29.776 -1.2978  0.1978  0.0804
  410TIP3   OH222720   2.657   1.432   1.808  0.4745  0.6094  0.1376
  410TIP3    H122721   2.706   1.371   1.863 -0.4985 -0.6108 -0.3095
  410TIP3    H222722   2.719   1.504   1.792  1.7875 -0.4126  0.3784
  411TIP3   OH222723   2.016   0.573   8.933  0.4245  0.5899  0.0302
  411TIP3    H122724   2.086   0.567   8.997  2.4761  0.9767 -2.0285
  411TIP3    H222725   1.986   0.664   8.937  0.7833  0.6994  0.2082
  412TIP3   OH222726   1.582   1.578  39.243 -0.3714 -0.2707  0.0980
  412TIP3    H122727   1.548   1.654  39.291 -0.6796 -0.2015 -0.2293
  412TIP3    H222728   1.537   1.580  39.159  1.9347  1.0159 -1.1937
  413TIP3   OH222729   1.031   2.342  37.296  0.1073 -0.1985 -0.3294
  413TIP3    H122730   1.047   2.303  37.382  2.0879  0.8883 -0.1327
  413TIP3    H222731   1.078   2.285  37.235 -0.5242 -0.4530 -0.5843
  414TIP3   OH222732   1.763   1.117  39.851  0.2808 -1.0439 -0.3235
  414TIP3    H122733   1.819   1.134  39.927  0.9487 -0.5151 -0.9120
  414TIP3    H222734   1.791   1.032  39.819  3.2814  0.5843 -2.6461
  415TIP3   OH222735   2.145   3.203  34.975 -0.1124 -0.7035 -0.6271
  415TIP3    H122736   2.234   3.171  34.965  0.7397  0.5195  1.9365
  415TIP3    H222737   2.139   3.278  34.916  1.1184  0.1254  0.2665
  416TIP3   OH222738   4.297   1.781   4.739 -0.5323 -0.0478  0.3841
  416TIP3    H122739   4.214   1.827   4.727 -0.7188 -0.0375  1.5579
  416TIP3    H222740   4.311   1.783   4.834  0.7249 -0.2002  0.2119
  417TIP3   OH222741   1.993   0.705  41.459 -0.6914  0.3787  0.5024
  417TIP3    H122742   1.945   0.695  41.541 -1.0206  2.8936  0.7007
  417TIP3    H222743   2.057   0.774  41.477 -0.2391  0.4213 -1.1281
  418TIP3   OH222744   1.729   4.260  13.635 -0.4492  0.2743  0.3132
  418TIP3    H122745   1.734   4.340  13.584 -2.5946 -0.9127 -2.0198
  418TIP3    H222746   1.803   4.265  13.696  1.7472  2.2702 -2.2553
  419TIP3   OH222747   0.135   1.304  26.024 -0.0927  0.0600 -0.2545
  419TIP3    H122748   0.097   1.241  26.086 -0.1155  0.3891  0.0657
  419TIP3    H222749   0.062   1.359  25.997  0.1853  0.8674  0.5708
  420TIP3   OH222750   1.054   0.844   5.453 -0.2454 -0.6333 -0.2141
  420TIP3    H122751   1.120   0.909   5.430  0.0490 -1.5095 -1.9622
  420TIP3    H222752   1.036   0.796   5.372 -0.9498 -2.2931  0.8442
  421TIP3   OH222753   0.294   4.141   2.453 -0.2965 -0.1806 -0.5126
  421TIP3    H122754   0.367   4.203   2.444 -0.9234  0.6546 -0.0247
  421TIP3    H222755   0.283   4.104   2.365 -0.6111  1.2378 -1.1102
  422TIP3   OH222756   1.610   4.359   9.763  0.7338  0.3176  0.4798
  422TIP3    H122757   1.596   4.429   9.699  1.8060 -0.3316 -0.5102
  422TIP3    H222758   1.689   4.386   9.810 -0.3476  1.0511  1.9226
  423TIP3   OH222759   1.736   2.123  10.664 -0.2893 -0.2726 -0.3956
  423TIP3    H122760   1.775   2.208  10.681  0.0671 -0.5203  0.0519
  423TIP3    H222761   1.772   2.065  10.731  1.0967 -1.2796 -1.9317
  424TIP3   OH222762   0.144   0.962  27.973  0.1577  0.6073 -0.1081
  424TIP3    H122763   0.196   0.966  28.054  1.0967  0.0154 -0.6622
  424TIP3    H222764   0.208   0.972  27.903 -0.8541  2.8824 -0.7822
  425TIP3   OH222765   1.034   1.521  40.643 -0.1852  0.3206 -0.1139
  425TIP3    H122766   1.025   1.447  40.583 -1.9582  0.7776 -0.4765
  425TIP3    H222767   0.971   1.503  40.713 -1.1498  1.7662 -0.5603
  426TIP3   OH222768   2.418   4.131  33.255 -0.8832 -0.2615 -0.3571
  426TIP3    H122769   2.509   4.151  33.231 -0.3227 -2.6814 -0.4561
  426TIP3    H222770   2.398   4.193  33.326  0.9954  0.0178 -0.0207
  427TIP3   OH222771   0.537   1.769  29.358 -0.5009 -0.1814 -0.2549
  427TIP3    H122772   0.628   1.749  29.378 -0.9209 -0.4913  1.5496
  427TIP3    H222773   0.503   1.688  29.317 -0.3761 -0.6543  0.5592
  428TIP3   OH222774   1.660   1.275  32.879 -0.6047  0.2434 -0.1244
  428TIP3    H122775   1.663   1.226  32.797  0.4352  0.4943 -0.2464
  428TIP3    H222776   1.743   1.256  32.922 -1.2078 -0.0046  0.9566
  429TIP3   OH222777   3.803   3.911   4.764 -0.4916 -0.1028  0.3507
  429TIP3    H122778   3.824   3.817   4.767  0.2156  0.0465  0.3443
  429TIP3    H222779   3.764   3.930   4.849 -1.6219 -0.6173 -0.0312
  430TIP3   OH222780   3.611   1.558   4.512 -0.4234  0.1551 -0.4382
  430TIP3    H122781   3.555   1.486   4.542 -3.8572  2.7774  0.0045
  430TIP3    H222782   3.660   1.584   4.590 -1.4407  0.2216  0.1936
  431TIP3   OH222783   3.028   2.530  33.233 -0.4442  0.8187 -0.2900
  431TIP3    H122784   2.958   2.467  33.249  1.0268 -0.2142  2.8135
  431TIP3    H222785   3.086   2.487  33.170  0.8855 -1.3808  2.2664
  432TIP3   OH222786   4.035   2.059  28.780  0.2491 -0.0353 -0.2536
  432TIP3    H122787   4.097   1.986  28.774  0.5906  0.2623 -0.3490
  432TIP3    H222788   4.089   2.136  28.796 -0.0825  0.2533 -0.4981
  433TIP3   OH222789   4.175   4.296  31.141 -0.2230  0.1847 -0.1221
  433TIP3    H122790   4.270   4.308  31.132 -0.4493  1.7722 -0.6121
  433TIP3    H222791   4.137   4.373  31.100 -1.7769 -1.0129 -1.0774
  434TIP3   OH222792   2.477   3.635  31.548 -0.4804  0.5327 -0.1182
  434TIP3    H122793   2.537   3.592  31.608  0.9842 -0.2786 -2.0526
  434TIP3    H222794   2.522   3.715  31.521 -0.4476  0.1760 -1.1880
  435TIP3   OH222795   4.253   0.807   6.704 -0.4487 -0.0954  0.2435
  435TIP3    H122796   4.341   0.834   6.732 -0.4258  0.1960 -0.1052
  435TIP3    H222797   4.238   0.725   6.751 -0.3998  0.3631  1.0793
  436TIP3   OH222798   1.752   0.255  37.001  0.3407  0.5882  0.5029
  436TIP3    H122799   1.787   0.294  36.921 -2.6572 -2.0292 -2.4173
  436TIP3    H222800   1.681   0.314  37.028 -0.1211  0.3648 -0.1926
  437TIP3   OH222801   3.584   3.245  28.406 -0.1693 -0.3144 -0.4702
  437TIP3    H122802   3.671   3.243  28.367  0.7397  0.5620  1.3934
  437TIP3    H222803   3.530   3.193  28.346  1.9695 -2.2742 -0.8447
  438TIP3   OH222804   2.177   1.781  40.114 -0.0339  0.0424 -0.4790
  438TIP3    H122805   2.244   1.752  40.175  0.8038 -0.4675 -1.6075
  438TIP3    H222806   2.164   1.874  40.136 -0.5624 -0.4015  1.1786
  439TIP3   OH222807   2.240   1.410   9.113  0.3659 -0.3973  0.0040
  439TIP3    H122808   2.263   1.329   9.157  0.9158 -0.2487 -0.0066
  439TIP3    H222809   2.279   1.403   9.026  0.3065 -0.1738 -0.0421
  440TIP3   OH222810   3.917   3.221  32.627  0.6314  0.0847  0.1291
  440TIP3    H122811   3.983   3.249  32.690 -1.3616  0.0297  2.4251
  440TIP3    H222812   3.863   3.158  32.676 -0.7847 -0.2735 -1.7808
  441TIP3   OH222813   2.207   0.214  30.107  0.1443  0.3085 -0.2425
  441TIP3    H122814   2.147   0.141  30.095 -1.4102  1.4543  0.2635
  441TIP3    H222815   2.156   0.281  30.153  1.7667  1.3899  0.1028
  442TIP3   OH222816   2.002   2.033  38.742 -0.2486  0.2337 -0.0605
  442TIP3    H122817   1.957   2.110  38.776 -1.7291 -0.7042  0.2044
  442TIP3    H222818   1.960   2.016  38.657  0.1813 -0.1757 -0.1946
  443TIP3   OH222819   2.859   1.187  34.093  0.4282 -0.0646 -0.2122
  443TIP3    H122820   2.930   1.229  34.045  0.1761  1.0337  0.3439
  443TIP3    H222821   2.816   1.258  34.141 -0.3133 -0.8827  0.3893
  444TIP3   OH222822   2.103   4.046  28.228 -0.9352  0.1105 -0.2641
  444TIP3    H122823   2.174   4.110  28.219  0.6317 -1.3977  0.7819
  444TIP3    H222824   2.026   4.099  28.249 -0.1819  1.8059 -1.5436
  445TIP3   OH222825   2.588   2.050  38.508  0.3972  0.6083  0.2882
  445TIP3    H122826   2.532   2.001  38.567  1.7818 -1.9367 -0.3497
  445TIP3    H222827   2.540   2.050  38.425 -0.1316  1.4122  0.5847
  446TIP3   OH222828   0.510   2.462  33.886  0.3466 -0.1926 -0.3623
  446TIP3    H122829   0.500   2.503  33.972  0.9531 -0.0922 -0.3395
  446TIP3    H222830   0.431   2.408  33.876 -0.0009  0.2428  0.0102
  447TIP3   OH222831   2.354   0.324  17.958  0.2770  0.6830  0.0222
  447TIP3    H122832   2.310   0.262  17.899 -1.0174  0.6648  0.9660
  447TIP3    H222833   2.353   0.406  17.910  1.4934  0.1425 -1.0009
  448TIP3   OH222834   3.304   3.656   3.631 -0.6569 -0.5523  0.1446
  448TIP3    H122835   3.232   3.716   3.649  0.2947  0.8680 -0.6398
  448TIP3    H222836   3.287   3.624   3.542  0.5700  1.1959 -0.7850
  449TIP3   OH222837   2.955   2.194  38.444  0.0910  0.0117  0.3929
  449TIP3    H122838   2.879   2.246  38.471  0.2185  0.0461  0.6882
  449TIP3    H222839   2.918   2.113  38.409 -0.0365 -0.8365  2.3489
  450TIP3   OH222840   0.220   2.267  38.921 -0.3758  0.2335  0.0907
  450TIP3    H122841   0.271   2.222  38.854  1.2508  1.6262  0.3368
  450TIP3    H222842   0.142   2.212  38.932 -0.2616 -0.5251 -2.2478
  451TIP3   OH222843   2.898   0.298   2.358  0.2234 -0.2457 -0.6022
  451TIP3    H122844   2.927   0.379   2.401  0.0151  0.1518 -1.1954
  451TIP3    H222845   2.811   0.282   2.394  1.0567 -1.3352  1.0373
  452TIP3   OH222846   0.702   3.901  15.400 -0.5074 -0.4591 -0.2131
  452TIP3    H122847   0.625   3.955  15.418 -0.1881 -0.2203  0.4732
  452TIP3    H222848   0.762   3.921  15.472  0.8297  0.5124 -1.5474
  453TIP3   OH222849   1.420   3.373   7.209 -0.2982  0.1678  0.7259
  453TIP3    H122850   1.357   3.437   7.242  1.2535  0.5579  3.2036
  453TIP3    H222851   1.505   3.408   7.235  1.0126 -0.4484 -2.2774
  454TIP3   OH222852   2.386   0.925  12.245  0.1576 -0.0840  0.0740
  454TIP3    H122853   2.428   0.994  12.193 -0.9069  0.6069  0.1131
  454TIP3    H222854   2.365   0.967  12.328  0.3217 -0.7215  0.4444
  455TIP3   OH222855   1.010   1.825  38.229 -0.3447 -0.4815  0.0650
  455TIP3    H122856   0.988   1.757  38.293 -0.6341  0.2548  0.7565
  455TIP3    H222857   1.092   1.863  38.262  0.8793 -1.7695 -1.3493
  456TIP3   OH222858   3.076   1.348  36.919 -0.0632 -0.0921 -0.1838
  456TIP3    H122859   3.170   1.359  36.902  0.3185 -1.3105  0.9568
  456TIP3    H222860   3.049   1.280  36.857 -0.4586  0.9889 -1.2384
  457TIP3   OH222861   1.408   4.003  31.921 -0.1903 -0.0543  0.0201
  457TIP3    H122862   1.384   3.921  31.878  2.2052 -0.8821  0.0853
  457TIP3    H222863   1.476   4.040  31.865  0.3138  0.7546  1.1331
  458TIP3   OH222864   1.686   1.189   2.240 -0.4055  0.7722 -0.1802
  458TIP3    H122865   1.618   1.135   2.280  0.1079  0.3322  0.1119
  458TIP3    H222866   1.670   1.277   2.276 -1.2054  0.8126 -0.6139
  459TIP3   OH222867   4.107   1.162   7.621  0.7872 -0.0057 -0.0081
  459TIP3    H122868   4.158   1.085   7.645  0.7865 -0.3881 -1.2149
  459TIP3    H222869   4.168   1.235   7.635  0.7830 -0.1897  1.1432
  460TIP3   OH222870   2.315   1.234  30.562 -0.0764  0.3998 -0.0895
  460TIP3    H122871   2.263   1.236  30.643  2.4569  2.0058  1.6545
  460TIP3    H222872   2.343   1.324  30.549  0.8512 -0.0972 -1.9313
  461TIP3   OH222873   2.543   1.480   0.419  0.3633  0.0007 -0.1629
  461TIP3    H122874   2.457   1.482   0.378  1.0578 -1.2098 -1.7557
  461TIP3    H222875   2.535   1.414   0.489 -0.7889  1.9975  1.7097
  462TIP3   OH222876   1.372   1.548   9.285  0.2521 -0.4832  0.7928
  462TIP3    H122877   1.427   1.533   9.208 -0.3459 -1.9073  0.6214
  462TIP3    H222878   1.428   1.526   9.360  0.2084 -1.0515  0.6623
  463TIP3   OH222879   0.800   1.911   9.997  0.8568 -0.2136  0.5984
  463TIP3    H122880   0.859   1.943  10.065  0.4641 -1.3747  1.5221
  463TIP3    H222881   0.723   1.881  10.046 -0.0540  0.3024 -0.4930
  464TIP3   OH222882   2.230   0.763  11.890  0.2947  0.9986  0.7115
  464TIP3    H122883   2.178   0.683  11.888 -0.4047  1.3682  2.2211
  464TIP3    H222884   2.256   0.778  11.799 -0.9403 -0.0426  0.1618
  465TIP3   OH222885   2.738   2.648  37.237 -0.4995 -0.1585 -0.5913
  465TIP3    H122886   2.678   2.651  37.312  2.0877 -0.1358  1.6414
  465TIP3    H222887   2.771   2.558  37.236  1.5170  0.5141  0.1096
  466TIP3   OH222888   1.215   1.121  36.570 -0.2132  0.1351 -0.1393
  466TIP3    H122889   1.191   1.165  36.652 -0.2759  1.0895 -0.6559
  466TIP3    H222890   1.163   1.166  36.503 -1.0076 -1.3540 -0.5832
  467TIP3   OH222891   0.558   1.955   0.720 -0.0994  0.2075 -0.4182
  467TIP3    H122892   0.517   1.905   0.649 -0.5989  0.8746 -0.6101
  467TIP3    H222893   0.585   1.889   0.784 -2.9831 -0.1883  0.5232
  468TIP3   OH222894   2.582   1.170  28.470 -0.4224  0.1803 -0.1328
  468TIP3    H122895   2.658   1.193  28.524 -0.3079  0.7820 -0.5459
  468TIP3    H222896   2.584   1.074  28.467 -1.1483  0.0617  1.9383
  469TIP3   OH222897   4.317   1.012   2.489  0.4417 -0.9047 -0.0415
  469TIP3    H122898   4.301   1.057   2.572  1.5523  0.0317 -0.3070
  469TIP3    H222899   4.389   1.061   2.450 -1.5320  0.1572 -2.6513
  470TIP3   OH222900   4.327   2.052  12.350  0.2092  0.2760  0.5340
  470TIP3    H122901   4.234   2.058  12.370  0.3218  1.6617  0.6713
  470TIP3    H222902   4.359   1.982  12.407 -0.6000  0.2929  1.0246
  471TIP3   OH222903   1.265   2.493  36.834 -0.0720  0.0433  0.0099
  471TIP3    H122904   1.239   2.468  36.746 -0.5248  1.6923 -0.3607
  471TIP3    H222905   1.355   2.462  36.842  0.5526  1.2758 -1.6524
  472TIP3   OH222906   2.822   0.327  35.000  0.3500 -0.3882 -0.1663
  472TIP3    H122907   2.770   0.264  34.951  0.1936  0.6013 -1.3263
  472TIP3    H222908   2.780   0.332  35.086 -0.3481 -0.9641 -0.4640
  473TIP3   OH222909   1.621   0.052  14.644  0.0295  0.2968 -0.0147
  473TIP3    H122910   1.539   0.100  14.631  0.8492  1.6525 -0.3865
  473TIP3    H222911   1.629  -0.002  14.565  0.9692  2.4588 -1.5002
  474TIP3   OH222912   0.448   2.820  24.017  0.2359 -0.1923  0.0711
  474TIP3    H122913   0.489   2.884  23.958 -1.5526 -0.2621 -1.3235
  474TIP3    H222914   0.496   2.739  24.001  1.5518  0.4212  0.7601
  475TIP3   OH222915   4.270   1.426  26.022  0.2892  0.4794 -0.5532
  475TIP3    H122916   4.200   1.442  26.086 -0.4361  1.9836 -1.6546
  475TIP3    H222917   4.245   1.345  25.979 -0.2002  0.4231 -0.1758
  476TIP3   OH222918   2.274   0.362  30.835 -0.1233 -0.2397  0.2727
  476TIP3    H122919   2.219   0.439  30.822  0.6668  0.3062  0.1765
  476TIP3    H222920   2.211   0.293  30.858 -0.7412  0.7027  1.6122
  477TIP3   OH222921   0.470   3.674   0.022  0.1780  0.1171  0.4842
  477TIP3    H122922   0.384   3.702   0.054 -0.6096 -0.0328 -1.3792
  477TIP3    H222923   0.480   3.584   0.052  0.5218  0.6982  2.2395
  478TIP3   OH222924   1.373   3.376   3.545  0.1200 -0.0915 -0.1121
  478TIP3    H122925   1.392   3.469   3.533 -0.0350  0.0262  0.5272
  478TIP3    H222926   1.426   3.333   3.478  0.5775  0.4195 -0.0928
  479TIP3   OH222927   0.087   1.946   9.483 -0.2919 -0.5642  0.1339
  479TIP3    H122928   0.058   1.865   9.440  1.0727 -1.7443  1.3598
  479TIP3    H222929   0.168   1.969   9.439  0.5694 -1.2070  1.3426
  480TIP3   OH222930   3.377   1.941  25.045  0.1276  0.6789  0.3727
  480TIP3    H122931   3.447   1.879  25.065 -0.3452  0.7238  2.3295
  480TIP3    H222932   3.367   1.993  25.125 -1.8990  0.9076  0.0149
  481TIP3   OH222933   0.421   1.945   6.347  0.2340 -1.0326 -0.3720
  481TIP3    H122934   0.484   1.983   6.286  0.0292 -0.2526 -0.1134
  481TIP3    H222935   0.465   1.867   6.381  0.5583 -1.1825 -1.1176
  482TIP3   OH222936   3.001   1.087  41.127  0.4346 -0.0757 -0.4143
  482TIP3    H122937   3.069   1.154  41.122  1.0580 -0.7282 -0.9112
  482TIP3    H222938   3.041   1.015  41.175  0.5530 -0.9719 -1.7944
  483TIP3   OH222939   0.884   0.299  34.332  0.0845 -0.1126 -0.3749
  483TIP3    H122940   0.966   0.292  34.281 -0.2531 -0.6224 -0.8657
  483TIP3    H222941   0.903   0.254  34.414 -0.1819 -1.6819 -1.1231
  484TIP3   OH222942   1.405   2.447  38.448 -0.2603  0.7345 -0.0555
  484TIP3    H122943   1.429   2.401  38.528  1.4809 -1.2130 -1.6175
  484TIP3    H222944   1.341   2.390  38.406 -1.9783  2.2400  0.3351
  485TIP3   OH222945   0.863   1.468   6.684  0.1665 -0.4459  0.1320
  485TIP3    H122946   0.929   1.521   6.730 -0.4587  0.5891 -0.1354
  485TIP3    H222947   0.785   1.524   6.681 -0.9561 -1.8877  1.0172
  486TIP3   OH222948   2.448   3.731  40.034 -0.7143  0.5508 -0.7111
  486TIP3    H122949   2.450   3.703  40.125  1.7285  0.7711 -0.6413
  486TIP3    H222950   2.428   3.824  40.038 -1.2917  0.4247 -0.4722
  487TIP3   OH222951   3.089   1.108  40.132  0.0289  0.4158 -0.9359
  487TIP3    H122952   3.076   1.020  40.097  0.4363  0.4301 -1.1298
  487TIP3    H222953   3.025   1.162  40.085 -2.6731 -0.3427  1.5967
  488TIP3   OH222954   2.104   0.834  32.252 -0.5933  0.0786 -0.2221
  488TIP3    H122955   2.091   0.830  32.158 -0.7959  1.3048 -0.2653
  488TIP3    H222956   2.079   0.747  32.284 -2.3613  0.2253 -1.0771
  489TIP3   OH222957   2.899   2.353  11.778 -0.2682 -0.3002  0.7498
  489TIP3    H122958   2.861   2.375  11.863  1.3630  0.0927  1.4164
  489TIP3    H222959   2.853   2.408  11.716 -0.0108  1.0084  1.6789
  490TIP3   OH222960   1.832   2.134  39.744  0.0172  0.2241  0.2089
  490TIP3    H122961   1.870   2.131  39.657  0.9428 -0.9268  0.6307
  490TIP3    H222962   1.755   2.190  39.735  1.3009  1.8735 -0.8553
  491TIP3   OH222963   4.398   0.123  32.166 -0.7321  0.7958 -0.4390
  491TIP3    H122964   4.404   0.033  32.199 -2.7646 -0.1305 -2.3802
  491TIP3    H222965   4.357   0.172  32.238  2.9888  0.9980  1.8288
  492TIP3   OH222966   0.613   3.028  33.527 -0.8020 -0.0685 -0.7475
  492TIP3    H122967   0.627   3.008  33.435  0.3063 -1.2696 -0.3569
  492TIP3    H222968   0.601   3.123  33.530  1.3731  0.3070 -1.8924
  493TIP3   OH222969   3.439   3.531  26.645  0.3647  0.1699 -0.0669
  493TIP3    H122970   3.467   3.622  26.637  1.2158 -0.1540 -1.1414
  493TIP3    H222971   3.515   3.486  26.682  0.3498 -0.2701 -0.5508
  494TIP3   OH222972   2.279   0.418  39.452  0.5443  0.6354  0.1624
  494TIP3    H122973   2.266   0.486  39.518  2.0400  1.3890 -0.2872
  494TIP3    H222974   2.319   0.346  39.500  2.5342  1.5473 -0.0620
  495TIP3   OH222975   3.693   2.385   3.110 -0.1530  0.2590  0.2316
  495TIP3    H122976   3.624   2.378   3.043  0.0216  0.2539  0.0499
  495TIP3    H222977   3.743   2.304   3.101 -0.7624 -0.2324  1.0862
  496TIP3   OH222978   2.143   1.537   1.726  0.2223 -0.9912  0.1352
  496TIP3    H122979   2.095   1.456   1.744 -3.8094  0.5306 -2.5168
  496TIP3    H222980   2.106   1.602   1.785 -2.0015  0.4151 -2.5395
  497TIP3   OH222981   0.935   1.704  14.901  0.8948  0.6673 -0.0065
  497TIP3    H122982   0.919   1.674  14.811 -0.3409  2.8198 -0.5813
  497TIP3    H222983   0.914   1.628  14.956 -0.8215  0.0375 -1.4189
  498TIP3   OH222984   1.647   3.103   9.959 -1.2318 -0.5260 -0.2638
  498TIP3    H122985   1.674   3.097  10.050 -0.9601 -0.4138 -0.3365
  498TIP3    H222986   1.568   3.157   9.962 -1.0635 -0.2833 -0.1241
  499TIP3   OH222987   3.743   2.734  35.304  0.9262 -0.4682 -0.0490
  499TIP3    H122988   3.773   2.744  35.214  1.8583 -1.7748  0.1011
  499TIP3    H222989   3.757   2.642  35.324 -0.2945 -0.4367  1.0822
  500TIP3   OH222990   2.862   3.998  31.465  0.0557 -0.3230  0.1869
  500TIP3    H122991   2.836   3.920  31.415 -1.8951 -0.6718  1.6091
  500TIP3    H222992   2.944   4.026  31.425 -0.9396 -1.0628 -2.6328
  501TIP3   OH222993   1.138   2.415  18.348 -0.7986 -0.1276 -0.2100
  501TIP3    H122994   1.117   2.431  18.440  1.5303 -0.7611  0.5052
  501TIP3    H222995   1.082   2.476  18.299 -2.6265 -0.3168  1.5464
  502TIP3   OH222996   0.906   2.235  13.881  0.4488  0.3319 -0.3587
  502TIP3    H122997   0.900   2.326  13.910 -0.1389 -0.2321  1.4196
  502TIP3    H222998   0.868   2.236  13.793 -1.8593  1.4189  0.5594
  503TIP3   OH222999   0.514   1.450  27.401 -1.1627  0.2227 -0.4076
  503TIP3    H123000   0.512   1.376  27.462  1.3422  2.2276  2.3930
  503TIP3    H223001   0.436   1.500  27.422  0.4665  1.7431  2.5300
  504TIP3   OH223002   3.490   3.779   5.677 -0.1285  0.0077  0.2409
  504TIP3    H123003   3.485   3.864   5.720 -0.9363  1.1685 -1.9586
  504TIP3    H223004   3.412   3.775   5.622  1.7382 -0.4280 -2.6261
  505TIP3   OH223005   2.939   1.616  32.255 -0.2522 -1.4705  0.2513
  505TIP3    H123006   2.877   1.679  32.218  1.1874  2.4624  3.7634
  505TIP3    H223007   2.892   1.577  32.329 -0.1385 -2.3364 -0.1223
  506TIP3   OH223008   1.390   2.658   9.656  0.1164 -0.3732 -0.4055
  506TIP3    H123009   1.377   2.633   9.564 -2.4494 -0.0882 -0.1997
  506TIP3    H223010   1.387   2.575   9.704 -1.9717 -0.3052 -0.3204
  507TIP3   OH223011   3.709   3.828  10.958 -0.2183 -0.0026  0.6300
  507TIP3    H123012   3.619   3.796  10.948 -0.8646  2.1500 -1.4737
  507TIP3    H223013   3.718   3.844  11.052 -1.8201 -0.8625  0.9703
  508TIP3   OH223014   2.857   2.234  38.840 -0.0212  0.0841 -0.1008
  508TIP3    H123015   2.909   2.154  38.830  1.4000  1.0567 -0.9041
  508TIP3    H223016   2.806   2.220  38.919 -1.8357 -2.6934 -1.5796
  509TIP3   OH223017   0.768   0.388   4.654  0.3256  0.7018 -0.2742
  509TIP3    H123018   0.705   0.316   4.660  1.2474 -0.0172  1.6782
  509TIP3    H223019   0.748   0.431   4.570 -1.4017 -0.7270 -0.6532
  510TIP3   OH223020   2.043   0.351  29.704  0.2396 -0.3675 -0.3555
  510TIP3    H123021   2.060   0.403  29.625 -1.6584  1.7629  0.5382
  510TIP3    H223022   1.952   0.370  29.726 -1.3490 -5.6248 -0.9921
  511TIP3   OH223023   0.966   0.629  33.799  0.2933  0.3426 -0.1280
  511TIP3    H123024   1.057   0.609  33.819  0.3390  2.0404  1.6272
  511TIP3    H223025   0.969   0.698  33.733  0.3474  1.2793  0.8226
  512TIP3   OH223026   0.408   3.933   1.195  0.2387  0.5418 -0.4429
  512TIP3    H123027   0.476   3.873   1.163  2.0985  1.3141  1.7869
  512TIP3    H223028   0.394   3.907   1.286 -1.1479  1.5990 -0.3148
  513TIP3   OH223029   4.027   3.450  32.184  0.3804  0.9504  0.3256
  513TIP3    H123030   4.066   3.432  32.270  0.3660  0.5930  0.2564
  513TIP3    H223031   3.941   3.487  32.203 -0.6937 -1.4811  0.4618
  514TIP3   OH223032   1.562   2.684  34.843  0.0695  0.4705  0.4310
  514TIP3    H123033   1.593   2.683  34.934  0.9767  0.7477  0.1374
  514TIP3    H223034   1.553   2.776  34.822  0.3297  0.4218  0.0916
  515TIP3   OH223035   0.028   3.867   8.757 -0.2327  0.2098  0.2109
  515TIP3    H123036  -0.052   3.855   8.809 -2.1212  0.1728 -2.4876
  515TIP3    H223037   0.095   3.818   8.805 -2.0797 -0.7244  2.0189
  516TIP3   OH223038   0.760   4.133  30.266  0.5689  0.0514  0.3692
  516TIP3    H123039   0.692   4.072  30.236 -0.6191  1.4056  0.2165
  516TIP3    H223040   0.805   4.085  30.335 -0.1112 -1.1336  0.0301
  517TIP3   OH223041   2.123   4.107   8.803  0.0483 -0.0347 -0.5630
  517TIP3    H123042   2.048   4.112   8.862  0.0715 -0.4325 -0.4980
  517TIP3    H223043   2.189   4.164   8.844  0.2452 -0.7020  0.0638
  518TIP3   OH223044   3.624   3.775  40.244 -0.1073 -0.4667  0.1672
  518TIP3    H123045   3.570   3.716  40.192  1.0963 -0.9858 -0.5488
  518TIP3    H223046   3.615   3.860  40.201 -1.0340 -0.3475  0.5860
  519TIP3   OH223047   2.007   1.734   0.778 -0.1301 -0.3174 -0.6469
  519TIP3    H123048   2.042   1.752   0.865  0.1785 -1.1914 -0.5765
  519TIP3    H223049   2.011   1.638   0.770  0.4773 -0.2102 -1.8750
  520TIP3   OH223050   0.496   0.216  12.321  0.8294 -0.4382 -0.0134
  520TIP3    H123051   0.453   0.131  12.327  0.4001 -0.4240 -2.0156
  520TIP3    H223052   0.588   0.195  12.305  0.7525 -0.5365 -0.3403
  521TIP3   OH223053   1.535   1.787  39.941  0.2496  0.1683 -0.0534
  521TIP3    H123054   1.624   1.808  39.912  0.5010  0.9914  1.2291
  521TIP3    H223055   1.535   1.692  39.950  0.8107  0.1037 -0.6571
  522TIP3   OH223056   1.668   4.386   5.636  0.1262  0.2433 -0.1884
  522TIP3    H123057   1.576   4.405   5.615  0.2623  1.6032  0.3852
  522TIP3    H223058   1.665   4.298   5.674 -0.7013 -0.4163 -1.6640
  523TIP3   OH223059   0.692   0.078  39.286  0.0712 -0.2091  0.0978
  523TIP3    H123060   0.686   0.029  39.368  2.1103 -0.0490  0.4009
  523TIP3    H223061   0.719   0.013  39.221  0.2834  0.0148 -0.0406
  524TIP3   OH223062   4.149   1.506   1.128  0.3420 -0.5184  0.8245
  524TIP3    H123063   4.173   1.445   1.197  0.2459 -0.1760  1.1698
  524TIP3    H223064   4.066   1.472   1.093 -0.0522 -0.2380  1.4589
  525TIP3   OH223065   1.840   2.749  35.880 -0.5822 -0.0470  0.1654
  525TIP3    H123066   1.857   2.658  35.907  0.2919 -0.0930 -0.4941
  525TIP3    H223067   1.854   2.800  35.959 -0.1257 -0.3904  0.3076
  526TIP3   OH223068   4.154   1.155  27.572 -0.2894  0.4311 -0.3556
  526TIP3    H123069   4.212   1.085  27.604  0.2331  0.6943 -0.7120
  526TIP3    H223070   4.086   1.108  27.523 -3.4766 -0.4201  4.2633
  527TIP3   OH223071   0.970   3.719   6.810 -0.5157 -1.0501 -0.7031
  527TIP3    H123072   0.935   3.805   6.833  3.3249  0.3700  0.7535
  527TIP3    H223073   0.947   3.663   6.884  2.5190  0.6751  1.8122
  528TIP3   OH223074   3.119   0.698   8.851  0.1020 -0.2261 -0.0605
  528TIP3    H123075   3.136   0.738   8.937 -0.4834 -2.1142  0.9813
  528TIP3    H223076   3.036   0.738   8.823 -0.7917 -1.0622  1.2424
  529TIP3   OH223077   2.543   4.353  33.732 -0.4272 -0.0246 -0.2409
  529TIP3    H123078   2.495   4.381  33.809 -2.4611 -1.6376 -0.8322
  529TIP3    H223079   2.630   4.391  33.743 -0.8544  0.3765  2.4674
  530TIP3   OH223080   2.339   2.139   7.217  0.3185  0.0790 -0.2559
  530TIP3    H123081   2.412   2.091   7.256  0.7723 -1.1424 -2.4262
  530TIP3    H223082   2.266   2.078   7.221  0.1819  0.2158 -0.6709
  531TIP3   OH223083   0.849   2.706   4.148  0.0316 -0.4608 -0.2956
  531TIP3    H123084   0.939   2.733   4.130  0.1692 -0.8042 -0.1405
  531TIP3    H223085   0.795   2.778   4.116  0.3955  0.0573  0.2372
  532TIP3   OH223086   0.448   1.972   3.392 -0.2890 -0.3454  0.2331
  532TIP3    H123087   0.515   1.964   3.324 -2.5337 -0.5914 -2.1328
  532TIP3    H223088   0.492   2.014   3.465  2.5291 -0.9253 -1.0156
  533TIP3   OH223089   0.414   4.068  38.815 -0.2358  0.4293 -0.4457
  533TIP3    H123090   0.340   4.054  38.756  0.6167  1.8358 -1.9372
  533TIP3    H223091   0.375   4.079  38.901 -1.6207 -0.5086 -0.9203
  534TIP3   OH223092   2.865   2.694   9.243 -0.1652  0.3067 -0.4818
  534TIP3    H123093   2.856   2.681   9.337  0.0505 -0.0867 -0.5170
  534TIP3    H223094   2.819   2.620   9.204 -2.1869  1.6084 -0.7144
  535TIP3   OH223095   2.063   2.968  36.892  0.0832  0.1418 -0.0823
  535TIP3    H123096   2.037   2.933  36.978  0.1076 -1.5521 -0.7252
  535TIP3    H223097   1.998   3.035  36.874 -1.8227 -1.5814 -0.0651
  536TIP3   OH223098   3.317   2.284  29.415  0.7990  0.3626  0.0817
  536TIP3    H123099   3.404   2.321  29.428  1.2864 -0.7439  0.0418
  536TIP3    H223100   3.312   2.211  29.476 -0.3182  0.7503  0.4800
  537TIP3   OH223101   1.169   1.535  31.654 -0.0952  0.1236  0.0463
  537TIP3    H123102   1.133   1.460  31.608 -0.2526 -0.5332  1.2153
  537TIP3    H223103   1.135   1.611  31.606 -2.1558 -0.4818  0.4581
  538TIP3   OH223104   1.090   3.802  32.942 -0.2673 -0.1840  0.2521
  538TIP3    H123105   1.055   3.783  33.029  1.7254 -1.2449  0.8672
  538TIP3    H223106   1.056   3.732  32.886 -1.3703  0.3758  0.1945
  539TIP3   OH223107   2.969   1.881  38.036  0.5112  0.2358 -0.5781
  539TIP3    H123108   2.975   1.794  37.997 -0.4419 -0.4940  0.8314
  539TIP3    H223109   3.038   1.882  38.103 -0.7831 -0.2493  0.8330
  540TIP3   OH223110   1.473   1.895  35.707 -0.3341  0.6671  0.1680
  540TIP3    H123111   1.519   1.870  35.786 -0.6591 -0.3422  0.0536
  540TIP3    H223112   1.539   1.939  35.653  0.0415  0.7936  0.7310
  541TIP3   OH223113   4.274   2.262  30.610  0.6029  0.5880  0.6191
  541TIP3    H123114   4.326   2.306  30.678 -1.0443  1.2712  1.4974
  541TIP3    H223115   4.201   2.223  30.658  2.3685 -4.0020  0.0538
  542TIP3   OH223116   1.833   2.605  30.824 -0.7218 -0.8108 -0.5010
  542TIP3    H123117   1.887   2.596  30.902 -1.7268 -1.4648  0.1428
  542TIP3    H223118   1.798   2.694  30.829 -1.0751 -0.9723 -0.0009
  543TIP3   OH223119   3.248   3.075   5.378 -0.6720 -0.3750 -0.3279
  543TIP3    H123120   3.288   3.044   5.459  1.1105  0.0838 -0.9981
  543TIP3    H223121   3.167   3.024   5.371  1.5976 -4.3559 -0.8893
  544TIP3   OH223122   2.329   1.762  26.705 -0.3899  0.5925 -0.2754
  544TIP3    H123123   2.257   1.710  26.671  0.0229 -0.2565  0.1125
  544TIP3    H223124   2.345   1.726  26.792  0.0945  1.1875 -0.1075
  545TIP3   OH223125   0.945   2.884   1.522 -0.6792 -0.5237 -0.6313
  545TIP3    H123126   0.998   2.807   1.505 -1.5186 -0.7944 -2.2209
  545TIP3    H223127   0.963   2.906   1.613  1.9892 -0.7074 -1.0345
  546TIP3   OH223128   3.804   3.383  32.972 -0.1011 -0.6083 -0.2337
  546TIP3    H123129   3.731   3.384  33.034  1.7784  0.5510  2.1484
  546TIP3    H223130   3.846   3.298  32.987  1.8273  0.6386  2.1084
  547TIP3   OH223131   2.467   0.895  11.917  0.3747  0.2715  0.3777
  547TIP3    H123132   2.391   0.869  11.969  0.6843 -2.2323 -0.3034
  547TIP3    H223133   2.430   0.934  11.838 -0.2082 -0.3724  0.3241
  548TIP3   OH223134   1.179   1.191  36.846  0.5578  0.3855 -0.4292
  548TIP3    H123135   1.151   1.153  36.929 -1.3453 -1.1085 -1.6637
  548TIP3    H223136   1.273   1.173  36.841  0.0925 -2.5680 -0.0950
  549TIP3   OH223137   3.716   3.951  24.666  0.4062 -0.2978  0.3086
  549TIP3    H123138   3.714   3.919  24.756  1.4500 -2.4735 -0.3725
  549TIP3    H223139   3.666   3.887  24.616 -0.9906  1.3870 -0.5922
  550TIP3   OH223140   3.277   2.394  10.883  0.1677 -0.0483 -0.2812
  550TIP3    H123141   3.312   2.467  10.831 -0.5880  0.2729 -0.3608
  550TIP3    H223142   3.350   2.365  10.937  0.3742  1.0671  0.0709
  551TIP3   OH223143   2.929   3.776  10.743 -0.1605  0.5459 -0.1785
  551TIP3    H123144   2.835   3.794  10.745 -0.5227 -1.2561  1.7776
  551TIP3    H223145   2.969   3.847  10.792 -0.4367  1.4098 -1.1608
  552TIP3   OH223146   1.006   2.811  35.351  0.2200  0.2743 -0.3115
  552TIP3    H123147   1.039   2.855  35.273  1.4732  1.0995  0.6569
  552TIP3    H223148   1.073   2.825  35.418 -0.8601 -0.3331  0.9530
  553TIP3   OH223149   4.302   2.236   1.194  0.4597  0.0139 -0.7767
  553TIP3    H123150   4.327   2.151   1.230 -1.2956 -0.0431  0.4697
  553TIP3    H223151   4.207   2.231   1.186  0.5269  1.0129 -3.0332
  554TIP3   OH223152   1.382   3.063   9.390 -0.0239  0.4426  0.2585
  554TIP3    H123153   1.445   3.073   9.461  0.2468 -2.0119  0.4416
  554TIP3    H223154   1.312   3.125   9.412  0.5113  0.4456  2.1610
  555TIP3   OH223155   0.602   3.885  40.646 -0.4871 -0.8046  0.2979
  555TIP3    H123156   0.631   3.896  40.736 -0.5306 -0.4366  0.2710
  555TIP3    H223157   0.589   3.975  40.614  0.9477 -0.8636 -0.5412
  556TIP3   OH223158   3.531   3.809  31.870 -0.2175 -0.0281 -0.1791
  556TIP3    H123159   3.605   3.779  31.923  0.6829  0.1067 -1.3444
  556TIP3    H223160   3.570   3.857  31.798 -1.5656  2.9706  0.9492
  557TIP3   OH223161   4.025   3.035  27.641  0.4249 -0.5834  0.1384
  557TIP3    H123162   4.115   3.001  27.638  0.9476  0.6789  0.6804
  557TIP3    H223163   3.999   3.043  27.549  0.1303 -2.7354 -0.0182
  558TIP3   OH223164   3.584   1.935   1.606  0.1068 -0.1328  0.6573
  558TIP3    H123165   3.620   1.932   1.517 -0.2667  0.9389  0.4583
  558TIP3    H223166   3.642   1.878   1.657  0.5887 -0.4051 -0.1798
  559TIP3   OH223167   0.333   0.822   3.560  0.4577  0.3481  0.2197
  559TIP3    H123168   0.239   0.835   3.555  0.4426  0.9636  1.7079
  559TIP3    H223169   0.371   0.900   3.520  0.3351  0.5338  0.4652
  560TIP3   OH223170   3.543   0.279   7.976 -0.0978  0.3361  0.0850
  560TIP3    H123171   3.566   0.230   7.898  1.4414 -1.4778  1.5579
  560TIP3    H223172   3.451   0.257   7.993  0.1672 -0.9519 -0.0759
  561TIP3   OH223173   0.055   4.252   7.906 -0.6706 -0.0335 -0.1306
  561TIP3    H123174  -0.013   4.269   7.841 -0.3013  0.2015 -0.4577
  561TIP3    H223175   0.082   4.338   7.937 -2.7539 -0.1692  2.3605
  562TIP3   OH223176   3.900   2.010   9.541  0.2093  0.2955  0.4215
  562TIP3    H123177   3.915   1.933   9.596 -0.8736  0.7227  1.3637
  562TIP3    H223178   3.978   2.064   9.552  1.9502 -1.5203 -1.8565
  563TIP3   OH223179   2.722   4.162   1.923 -0.0705  0.5012  0.1061
  563TIP3    H123180   2.684   4.079   1.955 -0.9673  1.6029  2.1468
  563TIP3    H223181   2.816   4.145   1.918 -0.2788 -0.7546  0.0828
  564TIP3   OH223182   4.272   2.656   8.421  0.3765 -0.4762  0.1848
  564TIP3    H123183   4.217   2.590   8.378  0.0217 -0.5067  0.6762
  564TIP3    H223184   4.210   2.722   8.451  0.6946 -0.1079  0.0246
  565TIP3   OH223185   3.816   0.554  40.811  0.0828 -0.3170 -0.3495
  565TIP3    H123186   3.721   0.564  40.823 -0.0192 -2.0663  0.6289
  565TIP3    H223187   3.849   0.533  40.898  1.6372  1.6898 -0.3826
  566TIP3   OH223188   3.458   1.604  11.845 -0.2454  0.0271  0.2099
  566TIP3    H123189   3.415   1.685  11.874 -1.5566 -1.1633  1.7501
  566TIP3    H223190   3.391   1.560  11.792  0.0267 -0.5878  0.3730
  567TIP3   OH223191   2.324   2.001  18.117  0.5352  0.1528  0.3720
  567TIP3    H123192   2.396   2.065  18.109  0.6258 -0.1083 -1.2692
  567TIP3    H223193   2.245   2.053  18.103  0.4173  0.3262  1.5561
  568TIP3   OH223194   4.257   3.224  26.375  0.1223  0.7900 -0.2545
  568TIP3    H123195   4.281   3.305  26.331  2.1068  0.2507 -0.2535
  568TIP3    H223196   4.245   3.249  26.467 -1.6195  1.4602 -0.6134
  569TIP3   OH223197   3.808   1.698   0.148  0.4766  0.2094  0.8413
  569TIP3    H123198   3.858   1.617   0.153  1.6187  0.8425  0.2549
  569TIP3    H223199   3.758   1.690   0.068 -0.0601 -0.2576  1.2165
  570TIP3   OH223200   3.433   3.839  39.618  0.2599  0.2182 -0.2787
  570TIP3    H123201   3.498   3.771  39.598  1.6148  1.1396  0.7582
  570TIP3    H223202   3.461   3.914  39.566  0.4490  0.8426  0.7091
  571TIP3   OH223203   1.717   1.236  12.421  0.1705  0.0356  0.0161
  571TIP3    H123204   1.784   1.230  12.354 -0.4146  0.5107 -0.6250
  571TIP3    H223205   1.634   1.225  12.374 -0.3054  1.3610  0.4967
  572TIP3   OH223206   4.292   1.505  11.248 -0.4958  0.0418 -0.0224
  572TIP3    H123207   4.343   1.571  11.295 -0.0769 -1.1815  1.3114
  572TIP3    H223208   4.333   1.422  11.271 -1.4991 -0.7648 -1.0223
  573TIP3   OH223209   0.737   4.199   0.425 -0.1516 -0.5067 -0.3140
  573TIP3    H123210   0.817   4.249   0.408 -0.2240  0.0897  0.9257
  573TIP3    H223211   0.668   4.249   0.382 -0.4353  1.3330  2.0560
  574TIP3   OH223212   0.399   1.356  37.828  0.8058  0.5077  0.5784
  574TIP3    H123213   0.467   1.402  37.778 -1.0410  1.3418 -1.3158
  574TIP3    H223214   0.397   1.402  37.912  1.5380  1.4646  0.0974
  575TIP3   OH223215   0.785   4.323  22.918  0.2243 -0.3622  0.0788
  575TIP3    H123216   0.723   4.327  22.845  0.8306 -1.2050 -0.4951
  575TIP3    H223217   0.782   4.411  22.956 -1.2047 -0.3350 -0.0253
  576TIP3   OH223218   3.481   1.414  35.299 -0.0209 -0.0217  0.5284
  576TIP3    H123219   3.452   1.346  35.360  1.8424 -1.9580 -0.5842
  576TIP3    H223220   3.553   1.458  35.345 -0.6822  0.6770  0.9201
  577TIP3   OH223221   1.539   0.964  40.339 -0.1633  0.2802 -0.3323
  577TIP3    H123222   1.528   1.028  40.268 -0.1337  1.1238  0.4113
  577TIP3    H223223   1.463   0.906  40.330  0.6457 -0.6072 -2.0139
  578TIP3   OH223224   0.296   0.987   8.750  0.0680  0.1606 -0.5031
  578TIP3    H123225   0.357   0.957   8.683  0.4052 -1.7410  0.5830
  578TIP3    H223226   0.212   0.948   8.727  0.7544 -2.9045  1.5545
  579TIP3   OH223227   0.479   4.111   1.617  0.2684  0.3576  0.3620
  579TIP3    H123228   0.398   4.061   1.610 -0.4662  1.6214 -0.9388
  579TIP3    H223229   0.548   4.049   1.595 -0.5646 -0.2159 -0.7582
  580TIP3   OH223230   3.237   3.481  12.415  0.0692 -0.5526  0.3280
  580TIP3    H123231   3.222   3.416  12.483  2.4973  0.0336  1.5398
  580TIP3    H223232   3.262   3.560  12.464 -1.7454  1.0148 -1.1341
  581TIP3   OH223233   0.593   1.940  10.710  0.4905 -0.1304  0.2282
  581TIP3    H123234   0.650   1.990  10.768 -0.1408  0.0250  0.7234
  581TIP3    H223235   0.652   1.877  10.669  1.3749  1.2675 -0.7316
  582TIP3   OH223236   2.101   3.185   5.793 -0.2517 -0.0936 -0.2577
  582TIP3    H123237   2.140   3.253   5.848 -1.8251  0.5029  0.1758
  582TIP3    H223238   2.126   3.209   5.704  2.3124 -1.0624  0.1261
  583TIP3   OH223239   3.846   1.068  35.414 -0.1626 -0.0161  0.5860
  583TIP3    H123240   3.823   1.044  35.504 -3.5776 -0.3617 -0.2331
  583TIP3    H223241   3.919   1.010  35.392  1.3962  0.7405  3.3757
  584TIP3   OH223242   0.472   2.031   7.935 -0.5187  0.1562  0.5707
  584TIP3    H123243   0.502   2.043   8.025  1.9401 -0.5328 -0.0773
  584TIP3    H223244   0.400   1.968   7.941 -0.6205  0.3874  2.0616
  585TIP3   OH223245   0.760   0.162   5.101  0.7975 -0.0825 -0.1118
  585TIP3    H123246   0.705   0.085   5.087 -0.3801  0.9581 -1.5700
  585TIP3    H223247   0.848   0.132   5.082  0.3328 -1.0220 -0.8969
  586TIP3   OH223248   3.717   2.213  12.136 -0.2017 -0.4888 -0.5852
  586TIP3    H123249   3.682   2.250  12.056  1.2529 -0.1040 -1.0678
  586TIP3    H223250   3.641   2.200  12.192 -1.2117 -0.5849 -1.9470
  587TIP3   OH223251   0.553   1.267  22.889 -0.0144  0.0220 -0.4173
  587TIP3    H123252   0.478   1.216  22.859 -0.7601  1.0637 -0.3674
  587TIP3    H223253   0.623   1.202  22.900 -1.0494 -1.0491  0.0454
  588TIP3   OH223254   2.764   2.218  40.991 -0.2596  0.1608 -0.3176
  588TIP3    H123255   2.842   2.165  41.009 -0.0710 -0.3247 -2.2973
  588TIP3    H223256   2.710   2.162  40.935 -0.6406  1.6003 -1.4330
  589TIP3   OH223257   0.480   2.425   1.552  0.1003  0.0535  0.3313
  589TIP3    H123258   0.486   2.510   1.595  2.1712 -0.6475  1.5685
  589TIP3    H223259   0.416   2.377   1.605  2.5526 -0.7694  2.7758
  590TIP3   OH223260   4.364   2.091  12.723 -0.7276  0.0314 -0.7931
  590TIP3    H123261   4.322   2.037  12.657 -0.0618  1.7939 -2.7684
  590TIP3    H223262   4.455   2.060  12.727 -1.1995 -1.2898  0.7224
  591TIP3   OH223263   2.130   0.607  27.405 -0.4674 -0.4026  0.0015
  591TIP3    H123264   2.222   0.595  27.430 -0.0198 -1.2897 -1.8818
  591TIP3    H223265   2.128   0.691  27.360  0.3383 -2.0058 -3.3963
  592TIP3   OH223266   2.717   0.881  36.623 -0.3422 -0.0362 -0.2253
  592TIP3    H123267   2.762   0.906  36.704 -0.3762 -1.3477  0.2196
  592TIP3    H223268   2.685   0.793  36.640 -0.2555 -0.3707 -1.7077
  593TIP3   OH223269   2.367   1.730  41.383  0.3410 -0.5676 -0.3197
  593TIP3    H123270   2.391   1.794  41.317  0.9406 -1.0287 -0.5581
  593TIP3    H223271   2.403   1.764  41.465  0.3024 -0.4018 -0.3728
  594TIP3   OH223272   1.816   1.208  29.680  0.3700 -0.3108 -0.1322
  594TIP3    H123273   1.799   1.182  29.589 -0.9316  0.6719 -0.1952
  594TIP3    H223274   1.891   1.267  29.674  0.4869 -0.4941 -0.5185
  595TIP3   OH223275   3.748   0.793  37.626 -0.2231 -0.0640 -0.1340
  595TIP3    H123276   3.840   0.809  37.604 -0.3853 -0.5124 -1.1810
  595TIP3    H223277   3.701   0.869  37.590 -0.5943 -1.2053 -2.2053
  596TIP3   OH223278   0.447   3.648  27.095  0.7987 -0.5653  0.3218
  596TIP3    H123279   0.464   3.556  27.077 -1.0797 -1.1226  1.2484
  596TIP3    H223280   0.390   3.676  27.023  0.0378 -0.5728  0.9174
  597TIP3   OH223281   2.087   2.422  32.594 -0.1009 -0.3415 -0.0418
  597TIP3    H123282   2.001   2.381  32.582  0.3597 -1.0439 -1.0047
  597TIP3    H223283   2.116   2.391  32.680 -0.3832 -0.8673 -0.1345
  598TIP3   OH223284   2.607   3.927  41.050  0.5071 -0.2659  0.3458
  598TIP3    H123285   2.655   3.967  41.122  0.3262 -0.0745  0.3558
  598TIP3    H223286   2.673   3.873  41.005  0.7848  0.1654  0.2345
  599TIP3   OH223287   0.401   1.988  23.130  0.9359  0.4581 -0.1454
  599TIP3    H123288   0.394   1.910  23.075  0.4106  2.0214 -2.4591
  599TIP3    H223289   0.320   1.988  23.181  1.1774 -0.7556  0.2702
  600TIP3   OH223290   3.678   1.140   4.324  0.5212  0.1108  0.3607
  600TIP3    H123291   3.679   1.058   4.373  0.0163  0.1269  0.4023
  600TIP3    H223292   3.753   1.188   4.357  1.2827 -0.6524 -0.2187
  601TIP3   OH223293   0.196   3.594  11.633 -0.0195  0.2293 -0.4470
  601TIP3    H123294   0.152   3.669  11.594 -0.2728  0.6411  0.5831
  601TIP3    H223295   0.194   3.527  11.565 -2.0413  0.3092 -0.5335
  602TIP3   OH223296   0.001   0.962  34.685 -0.4425 -0.0226 -0.3207
  602TIP3    H123297  -0.051   0.936  34.762  0.8086 -1.3979  0.1129
  602TIP3    H223298   0.080   0.908  34.691  0.8021  1.6336 -1.2447
  603TIP3   OH223299   1.914   2.821  28.283  0.0533  0.4708 -0.7494
  603TIP3    H123300   2.000   2.783  28.303 -0.2925  0.1902  0.2623
  603TIP3    H223301   1.891   2.871  28.361 -1.2894 -0.5387 -0.4601
  604TIP3   OH223302   4.072   3.636  27.491  0.3849  0.2844 -0.1043
  604TIP3    H123303   4.050   3.600  27.405  0.6052 -0.0588 -0.0200
  604TIP3    H223304   4.074   3.730  27.477  2.3427  0.1631 -0.9524
  605TIP3   OH223305   1.469   2.794  29.032  0.0043 -0.0856  0.1302
  605TIP3    H123306   1.502   2.869  29.081  2.3616 -0.0924 -1.2717
  605TIP3    H223307   1.467   2.825  28.941  2.1641 -2.0046 -0.6426
  606TIP3   OH223308   3.601   3.532  33.592 -0.0945 -0.2687 -0.1203
  606TIP3    H123309   3.570   3.461  33.536 -0.1457 -0.1502 -0.2411
  606TIP3    H223310   3.696   3.522  33.592 -0.1643 -1.1233  0.8969
  607TIP3   OH223311   3.341   2.737  30.641  0.0410 -0.1052  0.1347
  607TIP3    H123312   3.360   2.830  30.630  0.2864 -0.2340 -0.5968
  607TIP3    H223313   3.413   2.704  30.696 -0.2956  0.2228  0.7791
  608TIP3   OH223314   3.581   0.905  40.825  0.5010  0.5529  0.1621
  608TIP3    H123315   3.664   0.893  40.779  1.2268  0.4272  1.4418
  608TIP3    H223316   3.524   0.838  40.789  1.2351  0.0772 -0.1449
  609TIP3   OH223317   1.212   3.343  12.071  0.0972  0.1601 -0.8675
  609TIP3    H123318   1.176   3.407  12.133 -0.3029 -0.3584 -0.5580
  609TIP3    H223319   1.290   3.386  12.035  0.8884  0.1201  0.7014
  610TIP3   OH223320   1.524   3.589  40.552 -0.3281  0.2433 -1.0588
  610TIP3    H123321   1.522   3.595  40.648  1.8622  0.9882 -1.0154
  610TIP3    H223322   1.503   3.498  40.533  0.6546 -0.2749  0.2257
  611TIP3   OH223323   4.191   1.376   5.180 -0.4993 -0.2929 -0.1463
  611TIP3    H123324   4.156   1.319   5.249 -0.4045  0.4201  0.5043
  611TIP3    H223325   4.273   1.334   5.154  0.1032  0.0789  1.0726
  612TIP3   OH223326   0.989   0.537   9.241 -0.0601  0.6669  0.0508
  612TIP3    H123327   0.976   0.487   9.322  0.0701 -0.2743 -0.5011
  612TIP3    H223328   0.907   0.585   9.230 -0.2166  0.5256  0.5501
  613TIP3   OH223329   4.354   3.320   6.601 -0.3260 -0.2838  0.2945
  613TIP3    H123330   4.262   3.333   6.625 -0.0287  1.9731  0.4574
  613TIP3    H223331   4.400   3.315   6.685 -0.2062 -0.6154  0.2105
  614TIP3   OH223332   0.202   2.384   0.486  0.0830  0.4515 -0.0824
  614TIP3    H123333   0.268   2.384   0.416  0.3316  0.6571  0.1513
  614TIP3    H223334   0.207   2.296   0.524  1.2297  0.8994  0.8725
  615TIP3   OH223335   2.134   3.925  38.467 -0.2442 -0.0956  0.1904
  615TIP3    H123336   2.160   3.950  38.379 -0.5468  0.1918  0.1812
  615TIP3    H223337   2.218   3.916  38.514 -0.0905 -0.1019 -0.0833
  616TIP3   OH223338   3.352   2.659  28.046  0.3258 -0.1037  0.1322
  616TIP3    H123339   3.262   2.692  28.046 -0.3636 -1.6785  2.7012
  616TIP3    H223340   3.376   2.655  27.953 -2.3182  0.1973 -0.6537
  617TIP3   OH223341   3.024   3.782  40.485  0.1282 -0.4058 -0.4375
  617TIP3    H123342   3.081   3.802  40.560 -1.6776  0.4591  0.7815
  617TIP3    H223343   2.936   3.789  40.520 -0.7938  0.2633 -2.7276
  618TIP3   OH223344   3.896   3.605  31.768  0.5158  0.0575  0.4999
  618TIP3    H123345   3.957   3.533  31.785  1.3689  0.7638  0.4594
  618TIP3    H223346   3.935   3.653  31.695 -0.0041  0.6167  0.5835
  619TIP3   OH223347   1.878   0.800   2.084  0.1411 -0.3318  0.1690
  619TIP3    H123348   1.811   0.738   2.115 -0.2574  0.1662  0.3096
  619TIP3    H223349   1.951   0.789   2.145  0.6177 -1.6113 -0.5675
  620TIP3   OH223350   1.509   1.900  35.283  0.2619  0.3458  1.1425
  620TIP3    H123351   1.487   1.818  35.326 -1.8567  0.9743  1.3721
  620TIP3    H223352   1.568   1.875  35.212  0.3797 -1.2423  1.7581
  621TIP3   OH223353   1.346   0.828   1.185  0.0329 -0.6595 -0.2036
  621TIP3    H123354   1.420   0.831   1.124 -0.9421 -2.3724 -1.5757
  621TIP3    H223355   1.345   0.737   1.217 -2.0901 -0.9900 -1.0844
  622TIP3   OH223356   2.850   1.161   8.781 -0.2613 -0.1330 -0.0179
  622TIP3    H123357   2.828   1.138   8.871 -1.7427 -0.2197 -0.3799
  622TIP3    H223358   2.891   1.248   8.788 -0.5606 -0.0414  0.7158
  623TIP3   OH223359   2.658   0.862  32.586 -0.0114  0.1596 -0.1086
  623TIP3    H123360   2.741   0.832  32.547  0.6285  0.3197  1.0761
  623TIP3    H223361   2.629   0.933  32.528 -0.5480 -1.3970 -1.8416
  624TIP3   OH223362   2.543   2.747   4.710  0.0248  0.0399  0.4808
  624TIP3    H123363   2.524   2.704   4.626  0.2674  1.0570 -0.1179
  624TIP3    H223364   2.534   2.678   4.775  0.0714 -0.8286 -0.4104
  625TIP3   OH223365   0.341   2.238  21.203 -0.0366 -0.5667  0.3724
  625TIP3    H123366   0.334   2.240  21.107 -0.5383  2.2825  0.3724
  625TIP3    H223367   0.300   2.155  21.228 -2.0929 -0.3337 -1.7846
  626TIP3   OH223368   3.521   1.484   6.080 -0.1430 -0.0582  0.6615
  626TIP3    H123369   3.483   1.494   5.993  0.1656 -2.5547  0.1645
  626TIP3    H223370   3.452   1.444   6.133  0.7765 -1.9102  0.5377
  627TIP3   OH223371   0.622   2.052   9.159 -0.0587  0.3927 -0.4088
  627TIP3    H123372   0.648   2.127   9.106 -2.8531  1.6722 -0.1208
  627TIP3    H223373   0.664   2.068   9.244 -1.3687  2.1911 -0.0519
  628TIP3   OH223374   3.262   0.894   2.511  0.4268  0.4493 -0.0373
  628TIP3    H123375   3.256   0.906   2.606  0.8094  0.0277  0.0466
  628TIP3    H223376   3.223   0.973   2.474 -0.1361  0.4154  0.4693
  629TIP3   OH223377   2.032   3.363  38.582 -0.0583  0.2419  0.4292
  629TIP3    H123378   2.084   3.365  38.662  0.4498  0.2363  0.1058
  629TIP3    H223379   2.029   3.271  38.557 -0.1474  0.2524  0.4015
  630TIP3   OH223380   2.289   4.045  36.310 -0.3238  0.3942  0.4722
  630TIP3    H123381   2.209   4.046  36.362 -0.8941  1.0111 -0.3904
  630TIP3    H223382   2.329   4.131  36.326  0.1607  0.0963  0.8848
  631TIP3   OH223383   3.990   2.336   8.893 -0.2937  0.2470 -0.1252
  631TIP3    H123384   4.062   2.386   8.854  1.6747 -1.1752  1.4501
  631TIP3    H223385   4.016   2.324   8.985 -2.0801 -1.1701  0.2580
  632TIP3   OH223386   3.091   1.621   5.267  0.2634 -0.0116 -0.1444
  632TIP3    H123387   3.161   1.637   5.203  1.0654  1.0075  0.9505
  632TIP3    H223388   3.053   1.537   5.240  1.8384 -0.5404 -0.8517
  633TIP3   OH223389   1.985   2.673   2.561  0.4084 -0.2132 -0.3148
  633TIP3    H123390   1.909   2.615   2.565 -1.2242  1.7141 -1.3785
  633TIP3    H223391   2.055   2.617   2.528 -0.9340 -1.7108 -0.7910
  634TIP3   OH223392   0.482   2.042   2.563  0.8397 -0.4126  0.0184
  634TIP3    H123393   0.497   2.060   2.656 -0.9409  3.0575 -0.2161
  634TIP3    H223394   0.500   2.125   2.519 -1.3287 -1.0657 -2.3379
  635TIP3   OH223395   2.943   0.876   1.317  0.0991 -0.3328  0.2293
  635TIP3    H123396   2.990   0.837   1.243  2.0405  2.8630 -0.4210
  635TIP3    H223397   2.857   0.898   1.283  1.2066  1.7455 -1.4107
  636TIP3   OH223398   4.046   0.698   2.437  0.2611 -0.5458 -0.3881
  636TIP3    H123399   4.004   0.616   2.412 -1.2531  0.5491 -1.6210
  636TIP3    H223400   3.973   0.756   2.460  1.3642  0.0050  2.0609
  637TIP3   OH223401   3.919   2.276  22.409  0.1702  0.4564 -0.0846
  637TIP3    H123402   3.975   2.350  22.385  2.3548 -0.4753  1.7343
  637TIP3    H223403   3.896   2.293  22.501  1.7057 -1.6089  0.7570
  638TIP3   OH223404   4.254   2.796  31.882  0.2748 -0.3248 -0.1230
  638TIP3    H123405   4.188   2.865  31.871 -0.3472 -1.0258 -0.9508
  638TIP3    H223406   4.222   2.744  31.956  1.8579  1.4724  1.9477
  639TIP3   OH223407   1.806   4.246  40.707 -0.1490  0.4472 -0.2564
  639TIP3    H123408   1.802   4.228  40.613  0.8525  0.3628 -0.2993
  639TIP3    H223409   1.724   4.290  40.728 -1.0096 -0.8117 -0.8950
  640TIP3   OH223410   3.109   2.886  11.604  0.3088 -0.0996 -0.1751
  640TIP3    H123411   3.161   2.957  11.566 -1.9180  0.5692 -2.2097
  640TIP3    H223412   3.062   2.848  11.529 -0.9836 -1.6335  1.3305
  641TIP3   OH223413   4.294   1.534  20.696 -0.0778  0.1189  0.0023
  641TIP3    H123414   4.350   1.485  20.637  0.4180  0.6750  0.0080
  641TIP3    H223415   4.248   1.597  20.639 -1.5935 -1.1000 -0.1929
  642TIP3   OH223416   3.094   0.030  37.277 -0.2393 -0.1542  0.4818
  642TIP3    H123417   3.185   0.001  37.268  0.0930  0.9649  0.1810
  642TIP3    H223418   3.042  -0.049  37.261  0.6666 -0.7190  0.2847
  643TIP3   OH223419   3.443   2.181  11.523  0.2784  0.2909 -0.2930
  643TIP3    H123420   3.456   2.162  11.616  2.6442  1.6835 -0.2722
  643TIP3    H223421   3.491   2.112  11.478 -2.7141 -1.7426 -0.6625
  644TIP3   OH223422   3.121   2.803  33.003  0.8052  0.1464  0.2313
  644TIP3    H123423   3.072   2.861  32.944  2.3807 -0.3663 -1.6427
  644TIP3    H223424   3.087   2.716  32.985  0.9195  0.0461  0.4962
  645TIP3   OH223425   2.425   3.449  33.483 -0.0182 -0.1809 -0.4480
  645TIP3    H123426   2.503   3.496  33.512  0.7501 -0.0353 -2.5894
  645TIP3    H223427   2.361   3.518  33.465  0.3887 -0.0659 -1.5297
  646TIP3   OH223428   4.402   2.318   0.771 -0.4557  0.1248 -0.5069
  646TIP3    H123429   4.342   2.374   0.722  1.5548  1.4879 -1.5088
  646TIP3    H223430   4.485   2.366   0.773  1.6126 -3.0628 -2.0073
  647TIP3   OH223431   2.522   3.190  38.120 -0.1442  0.4681  0.0461
  647TIP3    H123432   2.447   3.211  38.176 -2.0062 -0.4367 -2.0176
  647TIP3    H223433   2.597   3.229  38.166 -1.7763  1.0344  2.3898
  648TIP3   OH223434   0.999   2.244  12.208  0.0862  0.1354  0.6747
  648TIP3    H123435   1.008   2.149  12.222 -1.2340 -0.1404 -0.1883
  648TIP3    H223436   0.908   2.262  12.231 -0.3362  0.7740 -1.3553
  649TIP3   OH223437   2.298   1.674   6.567 -0.3831 -0.3671  0.0362
  649TIP3    H123438   2.323   1.592   6.524  2.2278  0.1463  0.4146
  649TIP3    H223439   2.269   1.647   6.654  2.6830 -0.8525  1.0345
  650TIP3   OH223440   1.965   1.361   5.843  0.6395 -0.2354 -0.4619
  650TIP3    H123441   1.949   1.454   5.858  2.4946  0.1922 -0.9534
  650TIP3    H223442   2.059   1.350   5.855  0.5656 -1.9150 -1.1366
  651TIP3   OH223443   0.089   3.669  39.375  0.1053  0.6636 -0.9497
  651TIP3    H123444   0.038   3.588  39.372 -0.1838  0.8392 -0.8253
  651TIP3    H223445   0.152   3.661  39.303  2.7949 -1.4580  1.4162
  652TIP3   OH223446   4.091   1.662  35.708 -0.3756  0.0764  0.2281
  652TIP3    H123447   4.184   1.675  35.730  0.1452 -0.5857 -1.4648
  652TIP3    H223448   4.054   1.624  35.788  1.3187 -1.7969  0.2107
  653TIP3   OH223449   4.008   1.442   5.565 -0.6585 -0.5787  0.0623
  653TIP3    H123450   3.913   1.432   5.555 -0.5694 -0.8311 -0.6180
  653TIP3    H223451   4.031   1.385   5.637 -1.1520  0.2115  0.8715
  654TIP3   OH223452   0.513   1.542   0.746  0.6861 -0.1528  0.6692
  654TIP3    H123453   0.430   1.576   0.714  0.9750  0.2785  0.3670
  654TIP3    H223454   0.523   1.579   0.834  2.4893  3.2464 -0.7785
  655TIP3   OH223455   3.412   4.123  40.521  0.1796  0.5717  0.1013
  655TIP3    H123456   3.501   4.134  40.488 -0.4394  0.2080 -1.8089
  655TIP3    H223457   3.374   4.054  40.467 -1.1855  0.5148  1.0735
  656TIP3   OH223458   2.033   2.623  13.234  0.3372 -0.0147 -0.7579
  656TIP3    H123459   1.944   2.649  13.256  1.2670  2.1331  0.8657
  656TIP3    H223460   2.026   2.584  13.147 -2.7685 -3.7336  0.8455
  657TIP3   OH223461   1.249   2.287  16.375 -0.2467 -0.4525  0.1342
  657TIP3    H123462   1.256   2.363  16.434  0.3970  0.5131 -1.1211
  657TIP3    H223463   1.263   2.211  16.431  0.2810  0.4324  1.2372
  658TIP3   OH223464   3.974   0.905  28.249 -0.0022 -0.1349 -0.8398
  658TIP3    H123465   3.982   0.922  28.156  0.5821  0.9800 -0.5977
  658TIP3    H223466   4.059   0.870  28.275  1.6854  4.1004  0.1541
  659TIP3   OH223467   2.408   3.859   2.181  0.2729 -0.2804 -0.7374
  659TIP3    H123468   2.361   3.933   2.219  1.9476  1.1154 -1.2436
  659TIP3    H223469   2.344   3.788   2.180 -0.9924  0.7506  1.0137
  660TIP3   OH223470   1.065   2.660  29.217  0.2294 -0.4772 -0.5107
  660TIP3    H123471   1.136   2.604  29.248 -0.3659 -1.3698 -0.7233
  660TIP3    H223472   1.100   2.749  29.225  0.8242 -0.8031  0.7886
  661TIP3   OH223473   0.136   3.236   2.905 -0.3571  0.0171 -0.1866
  661TIP3    H123474   0.097   3.166   2.957  1.1953 -1.6929 -1.2119
  661TIP3    H223475   0.228   3.237   2.931 -0.4370  2.0573  0.1627
  662TIP3   OH223476   2.588   1.959  36.456  1.0503 -0.0676  0.3117
  662TIP3    H123477   2.508   1.928  36.413  0.2988 -0.4379  1.9003
  662TIP3    H223478   2.651   1.969  36.385  0.4365 -2.4085 -0.6364
  663TIP3   OH223479   3.505   0.730  28.912  0.4229 -0.2869  0.1338
  663TIP3    H123480   3.528   0.811  28.958 -1.9415  1.1632 -1.0392
  663TIP3    H223481   3.438   0.690  28.968 -1.7343  0.9812 -1.3775
  664TIP3   OH223482   2.441   1.744  32.829  0.1841 -0.2477  0.6101
  664TIP3    H123483   2.465   1.664  32.876  1.1368  0.8744  2.1569
  664TIP3    H223484   2.513   1.805  32.847 -0.2946  0.8252 -0.8957
  665TIP3   OH223485   3.657   3.949   3.442  0.0508 -1.1366 -0.0183
  665TIP3    H123486   3.726   3.975   3.381  0.2810 -0.9169  0.3369
  665TIP3    H223487   3.642   3.857   3.423 -1.2147 -0.6282 -1.7308
  666TIP3   OH223488   2.700   4.280   5.740 -0.0238 -0.0252  0.3238
  666TIP3    H123489   2.653   4.314   5.664 -0.1517 -0.5303  0.1736
  666TIP3    H223490   2.696   4.351   5.804 -0.5837  0.1159  0.1396
  667TIP3   OH223491   0.726   1.300  34.296 -0.0415 -0.0828 -0.4760
  667TIP3    H123492   0.660   1.268  34.358  0.0520 -1.0622 -0.8533
  667TIP3    H223493   0.694   1.385  34.268 -0.3875  0.1132  0.4665
  668TIP3   OH223494   3.746   0.214  33.689 -0.2467 -0.2708  0.4206
  668TIP3    H123495   3.712   0.303  33.679 -1.2399 -0.4723  1.8060
  668TIP3    H223496   3.670   0.161  33.711  0.3050 -1.5179 -0.5146
  669TIP3   OH223497   2.952   1.994  30.026  0.3608  0.8518  0.0738
  669TIP3    H123498   2.913   2.077  29.996  0.2768  1.6044  2.1163
  669TIP3    H223499   3.046   2.009  30.021  0.3456  1.1258  0.5444
  670TIP3   OH223500   3.932   2.206   1.062 -0.2032 -0.3978 -0.5145
  670TIP3    H123501   3.957   2.237   1.149  1.6096  0.1224 -1.1862
  670TIP3    H223502   3.991   2.132   1.045  1.0835  0.9323 -2.2015
  671TIP3   OH223503   1.008   3.008  26.628 -0.9455  1.0000  0.8059
  671TIP3    H123504   1.017   3.089  26.677 -0.4037  0.5432  1.4784
  671TIP3    H223505   0.998   2.940  26.695 -2.8265  0.6593  0.2342
  672TIP3   OH223506   1.579   3.109  33.650 -0.0807  0.1848  0.0402
  672TIP3    H123507   1.652   3.083  33.706 -1.8744 -2.9808  1.1429
  672TIP3    H223508   1.595   3.202  33.632  3.2644  0.0619  1.5894
  673TIP3   OH223509   3.732   4.240   3.958 -0.0851  0.7273  0.1675
  673TIP3    H123510   3.658   4.292   3.927 -0.4443  1.1658  1.6773
  673TIP3    H223511   3.780   4.217   3.879 -1.4144  1.0674 -0.7816
  674TIP3   OH223512   2.055   3.606   8.315 -0.1977 -0.2836 -0.6031
  674TIP3    H123513   1.985   3.642   8.261  0.7437 -0.7280 -2.1831
  674TIP3    H223514   2.094   3.682   8.358 -1.6521 -0.0391  0.3314
  675TIP3   OH223515   0.034   4.097  32.812  0.5025 -0.0456 -0.1629
  675TIP3    H123516   0.004   4.031  32.875  2.8918 -0.6844  0.4223
  675TIP3    H223517   0.125   4.072  32.793  0.7489  1.7918 -1.6927
  676TIP3   OH223518   1.223   3.695  40.067 -0.2697 -0.1034 -0.6319
  676TIP3    H123519   1.267   3.712  40.150 -1.2041  0.6535 -0.2729
  676TIP3    H223520   1.220   3.600  40.060  1.2166 -0.1828 -0.5783
  677TIP3   OH223521   3.833   2.280  26.829 -0.4803 -0.2098  0.0268
  677TIP3    H123522   3.843   2.236  26.912 -0.2977 -1.3386 -0.5816
  677TIP3    H223523   3.758   2.238  26.788 -0.3457  0.0837 -0.5366
  678TIP3   OH223524   3.765   2.315  13.032 -0.5523 -0.2352 -0.2398
  678TIP3    H123525   3.762   2.287  13.124  3.3097 -1.4725 -0.3204
  678TIP3    H223526   3.782   2.234  12.983 -0.0516  0.7533 -1.7581
  679TIP3   OH223527   1.573   0.112   4.963 -0.6189  0.0408  0.4450
  679TIP3    H123528   1.578   0.148   4.874 -0.9738  0.3319  0.5388
  679TIP3    H223529   1.572   0.017   4.950 -2.5905  0.0649 -0.0098
  680TIP3   OH223530   2.599   0.370  36.942  0.3231  0.3312  0.1285
  680TIP3    H123531   2.524   0.315  36.920  0.2620  0.3694  0.2385
  680TIP3    H223532   2.590   0.446  36.884  1.9083 -1.0013 -2.0191
  681TIP3   OH223533   0.686   1.529  35.100  0.0924 -1.1203 -0.8389
  681TIP3    H123534   0.771   1.518  35.143 -0.7068  0.1481  1.1997
  681TIP3    H223535   0.708   1.572  35.017  1.2782  3.2625  1.4478
  682TIP3   OH223536   4.271   3.967  10.900 -0.1989  0.0965  0.3434
  682TIP3    H123537   4.228   4.044  10.863 -0.4515 -1.1654 -2.1899
  682TIP3    H223538   4.213   3.894  10.879  1.7868 -1.2795 -0.7199
  683TIP3   OH223539   2.270   3.325  41.309 -0.2422  0.2924  0.0189
  683TIP3    H123540   2.288   3.362  41.222  0.6640  1.1729  0.5659
  683TIP3    H223541   2.177   3.344  41.323 -0.0651  1.3701 -0.1880
  684TIP3   OH223542   3.512   0.865   7.654  0.0612  0.3347 -0.3727
  684TIP3    H123543   3.508   0.820   7.569 -0.4398 -1.4945  0.5734
  684TIP3    H223544   3.460   0.944   7.641  0.6845  0.5370 -1.9933
  685TIP3   OH223545   3.889   0.978  10.687 -0.2970 -0.1790 -0.4914
  685TIP3    H123546   3.877   1.018  10.773 -1.7474  0.3150 -0.8931
  685TIP3    H223547   3.843   1.038  10.627  1.5124  0.0126 -1.7505
  686TIP3   OH223548   3.142   2.466  36.097 -0.6141  0.2352  0.1255
  686TIP3    H123549   3.236   2.464  36.083 -0.6850 -0.0343 -0.3208
  686TIP3    H223550   3.112   2.546  36.054 -0.3906  1.1425  1.5785
  687TIP3   OH223551   3.534   3.628  26.955 -0.3127  0.4080  0.5694
  687TIP3    H123552   3.501   3.716  26.974 -0.3698  0.5309 -0.0886
  687TIP3    H223553   3.613   3.642  26.903  0.5372  0.0992  1.7242
  688TIP3   OH223554   3.231   1.471  37.956  0.6888  0.2787  0.2044
  688TIP3    H123555   3.240   1.566  37.967  0.4942  0.5709 -1.8172
  688TIP3    H223556   3.301   1.448  37.895 -0.8236 -0.4502 -1.3028
  689TIP3   OH223557   3.904   3.140  22.857 -0.0934  0.2077  0.1302
  689TIP3    H123558   3.891   3.045  22.852 -1.9255  0.4200  0.1261
  689TIP3    H223559   3.872   3.164  22.944 -1.1036  0.9971 -0.4334
  690TIP3   OH223560   0.483   1.537  40.337  0.9145 -0.3469  0.2015
  690TIP3    H123561   0.435   1.615  40.307  1.8839  0.3004  0.3091
  690TIP3    H223562   0.511   1.494  40.256 -1.3006 -1.6977  0.0676
  691TIP3   OH223563   4.242   2.123  12.045 -0.0740 -0.2419  0.4677
  691TIP3    H123564   4.158   2.080  12.064 -0.0756 -1.3268 -1.6976
  691TIP3    H223565   4.225   2.172  11.964  0.6853  1.7089  1.4400
  692TIP3   OH223566   0.676   1.125  21.304  0.2111 -0.2885  0.1215
  692TIP3    H123567   0.718   1.110  21.219  0.6827 -0.1226  0.3208
  692TIP3    H223568   0.683   1.219  21.318  1.5995 -0.5030  1.0734
  693TIP3   OH223569   1.601   2.318   1.912 -0.3773  0.6393 -0.2479
  693TIP3    H123570   1.576   2.258   1.982  0.6035  0.8571  0.3094
  693TIP3    H223571   1.531   2.310   1.847  0.0054 -1.5306 -0.4523
  694TIP3   OH223572   2.139   1.331   6.613  0.5636  0.5687  0.1382
  694TIP3    H123573   2.125   1.237   6.600 -0.5303  0.8391 -0.7844
  694TIP3    H223574   2.148   1.341   6.707  0.7118 -0.4624  0.2479
  695TIP3   OH223575   1.970   1.873  30.873 -0.0347  0.5475 -0.3710
  695TIP3    H123576   1.882   1.909  30.865 -0.5244 -0.9008 -2.0712
  695TIP3    H223577   2.028   1.947  30.853 -0.7850  1.6290  1.2156
  696TIP3   OH223578   4.039   4.024  31.028  0.0180  0.6486 -0.5452
  696TIP3    H123579   4.085   3.967  30.967  1.4513  0.8553  0.2948
  696TIP3    H223580   4.066   4.112  31.004  0.5205  0.7368  0.2986
  697TIP3   OH223581   1.976   0.148  28.847 -0.2739  0.2827 -0.2499
  697TIP3    H123582   2.010   0.136  28.759  0.3593  0.6557 -0.0674
  697TIP3    H223583   2.030   0.090  28.902 -1.0038 -0.3418 -0.1733
  698TIP3   OH223584   0.744   4.053  22.966 -0.0165  0.2692  0.0204
  698TIP3    H123585   0.742   4.148  22.959 -0.8778  0.3885  1.3942
  698TIP3    H223586   0.778   4.036  23.054  1.0063 -0.7262 -0.5462
  699TIP3   OH223587   3.518   1.173   2.797  0.0500 -1.0725 -0.0871
  699TIP3    H123588   3.509   1.131   2.882 -0.0496 -1.3326 -0.2271
  699TIP3    H223589   3.585   1.241   2.811  1.8962 -2.7289 -0.3853
  700TIP3   OH223590   1.730   4.075  28.639  0.2929 -0.0977  0.0290
  700TIP3    H123591   1.721   4.050  28.732  0.5769 -0.4529 -0.0343
  700TIP3    H223592   1.721   4.170  28.638  2.5185  0.1948  0.7312
  701TIP3   OH223593   3.019   1.083  33.680 -0.5162 -0.3986 -0.0569
  701TIP3    H123594   3.048   1.086  33.589  1.4063  3.0180  0.5113
  701TIP3    H223595   2.966   1.162  33.691  0.4395  0.0103  2.0650
  702TIP3   OH223596   3.951   1.759  10.202 -0.3872  0.1910 -0.3754
  702TIP3    H123597   3.936   1.745  10.296  0.6090  0.7953 -0.1046
  702TIP3    H223598   3.898   1.836  10.181 -0.1489  0.4187 -0.1590
  703TIP3   OH223599   3.620   0.728   2.205 -0.1440 -0.0999  0.1586
  703TIP3    H123600   3.608   0.685   2.120  0.2690  0.2268 -0.0698
  703TIP3    H223601   3.633   0.656   2.266  0.1888 -0.3172 -0.1606
  704TIP3   OH223602   0.220   3.687  31.166 -0.2260  0.4974  0.6705
  704TIP3    H123603   0.151   3.721  31.109  0.3735 -0.8924 -0.9654
  704TIP3    H223604   0.275   3.635  31.109  2.0613  1.3312  1.9790
  705TIP3   OH223605   1.437   0.473  39.843 -0.0182  0.2095  0.0728
  705TIP3    H123606   1.392   0.552  39.811  0.0725  0.3631  0.3218
  705TIP3    H223607   1.433   0.412  39.770 -1.8369 -0.2838  0.5282
  706TIP3   OH223608   1.822   4.126  27.817  0.4646 -0.1745  0.1344
  706TIP3    H123609   1.899   4.075  27.790  0.4457 -0.4228  0.5466
  706TIP3    H223610   1.748   4.077  27.782  0.5450  1.0983 -2.0088
  707TIP3   OH223611   2.877   0.793  32.193  0.3471  0.0726 -0.3220
  707TIP3    H123612   2.963   0.786  32.235 -0.3561 -1.1619  0.9849
  707TIP3    H223613   2.858   0.704  32.163 -1.5281 -0.2760  1.6617
  708TIP3   OH223614   4.209   1.748   6.135  0.0879 -0.2534  0.5277
  708TIP3    H123615   4.199   1.722   6.227  1.6079 -1.6464  0.3443
  708TIP3    H223616   4.264   1.826   6.137  0.4880 -0.5371  0.8019
  709TIP3   OH223617   2.147   1.969  16.415  0.6613 -0.5906 -0.0917
  709TIP3    H123618   2.094   1.981  16.493 -0.4099  0.4639 -0.9344
  709TIP3    H223619   2.146   1.874  16.399 -2.0336 -0.5570 -0.7289
  710TIP3   OH223620   0.887   1.218  41.377 -0.0740 -0.3810 -0.3468
  710TIP3    H123621   0.962   1.162  41.395  0.7323  0.7238 -0.1777
  710TIP3    H223622   0.881   1.221  41.282  0.8325  0.4499 -0.3945
  711TIP3   OH223623   3.185   3.153  41.301  0.1340 -0.1478 -0.3504
  711TIP3    H123624   3.089   3.153  41.298  0.1553 -0.5574 -1.4755
  711TIP3    H223625   3.210   3.069  41.263  0.9472 -0.1225  0.1088
  712TIP3   OH223626   0.524   3.761  11.397 -0.7433 -0.8892 -0.1838
  712TIP3    H123627   0.533   3.716  11.313  0.6139  0.9984 -1.1245
  712TIP3    H223628   0.595   3.825  11.398 -3.0942  1.9319  0.5828
  713TIP3   OH223629   4.005   1.487  10.226  0.1286  0.2236 -0.2187
  713TIP3    H123630   4.099   1.500  10.211  0.4314 -0.4197  0.9859
  713TIP3    H223631   3.967   1.575  10.215  1.0041  0.6647  0.1648
  714TIP3   OH223632   1.546   3.502  16.527 -0.3573 -0.0338  0.2123
  714TIP3    H123633   1.546   3.407  16.537  0.2156 -0.1353 -0.6613
  714TIP3    H223634   1.453   3.526  16.534 -0.5655 -0.7201 -0.1084
  715TIP3   OH223635   3.044   1.675  41.232  0.0232  0.1937 -0.0440
  715TIP3    H123636   3.121   1.711  41.187  0.6494 -1.8510 -0.6978
  715TIP3    H223637   3.076   1.653  41.319 -0.5897  1.9484  0.6673
  716TIP3   OH223638   3.647   3.014  12.601 -0.4559 -0.1924 -0.7314
  716TIP3    H123639   3.663   3.026  12.695  0.1313 -0.1116 -0.8402
  716TIP3    H223640   3.602   3.094  12.574  0.0437  0.1088 -0.6744
  717TIP3   OH223641   3.720   2.890  36.835 -0.1857  0.1184  0.1124
  717TIP3    H123642   3.722   2.800  36.801  0.7924 -0.0312  0.5334
  717TIP3    H223643   3.682   2.941  36.764  1.8120 -0.1973 -1.2869
  718TIP3   OH223644   3.462   0.767  13.366  0.2263  0.5537 -0.1236
  718TIP3    H123645   3.414   0.773  13.284 -0.7513 -0.4565  0.3525
  718TIP3    H223646   3.535   0.708  13.347 -1.0857 -1.2358  0.1966
  719TIP3   OH223647   2.018   3.191  31.709  0.1861  0.2647  0.4073
  719TIP3    H123648   1.999   3.103  31.743  0.1926 -0.0177 -0.2984
  719TIP3    H223649   2.112   3.192  31.697  0.1960  0.3989  0.5034
  720TIP3   OH223650   2.678   0.310  28.945 -0.2538 -0.2864  0.8006
  720TIP3    H123651   2.739   0.368  28.991 -1.0844 -0.4490  2.1823
  720TIP3    H223652   2.718   0.223  28.951 -0.3922 -0.3181  1.2898
  721TIP3   OH223653   0.660   3.645   5.037 -0.1299 -0.1325  0.2050
  721TIP3    H123654   0.614   3.562   5.047 -0.7445  0.3253  1.4384
  721TIP3    H223655   0.590   3.710   5.026  0.3302  0.2702 -0.4608
  722TIP3   OH223656   1.674   2.634  18.914 -0.0088 -0.2223  0.0385
  722TIP3    H123657   1.758   2.643  18.870  0.6153 -1.6443  0.8809
  722TIP3    H223658   1.668   2.541  18.937 -0.8207  0.2268  1.8854
  723TIP3   OH223659   0.286   3.028  10.652  0.8108  0.2680  0.5957
  723TIP3    H123660   0.238   3.006  10.732  0.6405 -0.0834  0.4019
  723TIP3    H223661   0.325   3.113  10.669  1.9143 -0.4094  1.5659
  724TIP3   OH223662   0.275   3.955  36.458 -0.7221 -0.2983  0.2896
  724TIP3    H123663   0.292   3.922  36.547 -1.8437 -1.3336  0.1483
  724TIP3    H223664   0.180   3.965  36.455 -0.5338  1.6915 -0.1556
  725TIP3   OH223665   2.534   1.316  12.366  0.1087 -0.3505 -0.1019
  725TIP3    H123666   2.587   1.347  12.439 -1.1790 -0.7024  1.0407
  725TIP3    H223667   2.555   1.374  12.293  0.4136  0.8850  0.9501
  726TIP3   OH223668   1.289   4.349  34.795 -0.2232  0.4000 -0.2002
  726TIP3    H123669   1.258   4.359  34.885 -0.7666  1.2824 -0.4743
  726TIP3    H223670   1.222   4.392  34.741  0.6091  0.8047 -0.9374
  727TIP3   OH223671   4.361   3.840   6.254  0.0333 -0.4286  0.4444
  727TIP3    H123672   4.372   3.933   6.235 -0.0128 -0.8151 -1.8393
  727TIP3    H223673   4.342   3.836   6.347 -1.6822  2.0207  0.2944
  728TIP3   OH223674   3.003   1.314  41.491  0.0655 -0.5601  0.2955
  728TIP3    H123675   2.916   1.352  41.501  0.0992 -0.2295 -0.6334
  728TIP3    H223676   3.028   1.289  41.580 -1.8868 -2.6856  0.3547
  729TIP3   OH223677   0.446   0.157   8.910 -0.1801 -0.2723 -0.1244
  729TIP3    H123678   0.428   0.186   8.999  0.8274 -1.4438  0.4922
  729TIP3    H223679   0.511   0.219   8.877 -1.0474  0.5574 -0.2943
  730TIP3   OH223680   0.679   2.443   7.399  0.2216 -0.1648 -0.1461
  730TIP3    H123681   0.643   2.408   7.481 -1.9293 -0.7837 -1.2878
  730TIP3    H223682   0.748   2.381   7.375  0.9301  0.0570  1.1887
  731TIP3   OH223683   1.835   1.701  30.663  0.1608 -0.1685  0.8059
  731TIP3    H123684   1.857   1.610  30.682 -0.9695 -0.8058 -0.7625
  731TIP3    H223685   1.820   1.741  30.749  0.5107 -1.4923  1.5048
  732TIP3   OH223686   2.422   1.641   4.557  0.2971 -0.9803 -0.2154
  732TIP3    H123687   2.460   1.556   4.581 -0.9081 -1.0677  1.5291
  732TIP3    H223688   2.353   1.620   4.494 -1.7142 -1.6591  2.0699
  733TIP3   OH223689   2.943   2.485  34.797  0.0846  0.3944  0.6696
  733TIP3    H123690   2.929   2.553  34.731 -0.3942 -0.0415  0.3093
  733TIP3    H223691   2.875   2.500  34.862 -1.2243 -0.8617 -0.3577
  734TIP3   OH223692   0.845   3.485  40.934 -0.0178 -0.7344 -0.1811
  734TIP3    H123693   0.853   3.465  41.027  0.5218 -1.2257 -0.3233
  734TIP3    H223694   0.771   3.432  40.905 -0.0206 -0.7837 -0.0861
  735TIP3   OH223695   0.087   0.017  30.069  0.1909  0.0266 -0.3356
  735TIP3    H123696   0.129  -0.057  30.112  0.5573  0.7576  0.6078
  735TIP3    H223697   0.064  -0.015  29.982 -1.1743 -1.7172  0.6041
  736TIP3   OH223698   1.314   4.024  41.414 -0.3705 -0.6799 -0.1454
  736TIP3    H123699   1.329   4.010  41.320  0.6115 -0.5126 -0.0300
  736TIP3    H223700   1.353   3.947  41.456  2.4325  0.8417  0.3181
  737TIP3   OH223701   2.659   2.363   6.290 -0.3489 -0.2090 -0.0176
  737TIP3    H123702   2.657   2.390   6.198  1.8338  0.9003  0.2110
  737TIP3    H223703   2.681   2.442   6.338  1.3296 -1.3291  1.1602
  738TIP3   OH223704   4.216   3.194   9.877 -0.1419 -0.0363 -0.0408
  738TIP3    H123705   4.280   3.145   9.826 -0.1996  0.9267 -1.0721
  738TIP3    H223706   4.223   3.284   9.846 -4.0138 -0.3239 -2.3979
  739TIP3   OH223707   2.725   4.027  36.132 -0.2363  0.8658  0.0073
  739TIP3    H123708   2.643   4.037  36.084  0.3909  0.8630 -1.0862
  739TIP3    H223709   2.775   3.963  36.081  1.8394  3.3809 -1.2898
  740TIP3   OH223710   2.051   3.458  40.277  0.6189  0.0643  0.4198
  740TIP3    H123711   2.072   3.422  40.363 -0.7709 -2.3349 -0.1668
  740TIP3    H223712   1.955   3.466  40.277  0.5324 -0.6154 -1.1079
  741TIP3   OH223713   0.296   3.145   3.355  0.1666 -0.3442  0.4607
  741TIP3    H123714   0.284   3.064   3.405 -2.1418 -1.7056 -2.0003
  741TIP3    H223715   0.208   3.182   3.349  0.7720  0.9979 -0.6133
  742TIP3   OH223716   2.603   2.056   0.268 -0.4900  0.1033 -0.0948
  742TIP3    H123717   2.575   2.086   0.354  0.8319 -0.7684  0.6641
  742TIP3    H223718   2.589   2.131   0.210 -0.8288  0.8863  0.9905
  743TIP3   OH223719   4.197   0.042   6.176  0.3048  0.0264 -0.3164
  743TIP3    H123720   4.274   0.089   6.208  1.3197 -0.8758 -1.3722
  743TIP3    H223721   4.222   0.012   6.089 -1.8861  1.2560 -1.4618
  744TIP3   OH223722   1.432   0.980  27.897  0.5721  0.0010  0.3331
  744TIP3    H123723   1.526   0.999  27.888 -0.0258  2.2896 -2.0421
  744TIP3    H223724   1.405   1.033  27.972  0.9485  0.2684  0.2853
  745TIP3   OH223725   2.164   3.695   0.975  0.5543 -0.5785  0.1002
  745TIP3    H123726   2.130   3.736   1.054 -0.3537 -0.1565 -0.4782
  745TIP3    H223727   2.100   3.627   0.954  1.1927 -1.2013  0.1505
  746TIP3   OH223728   3.918   1.073  31.827  0.0977 -0.2779  0.0254
  746TIP3    H123729   3.904   0.993  31.877  1.3868 -0.2571  0.4483
  746TIP3    H223730   4.009   1.097  31.843 -0.0385  0.8575 -0.7074
  747TIP3   OH223731   2.050   3.165  39.185  0.3848 -0.1066  0.6747
  747TIP3    H123732   2.075   3.084  39.230 -0.5197  0.2453  1.8665
  747TIP3    H223733   1.958   3.152  39.162  0.9357 -0.4750 -1.6022
  748TIP3   OH223734   2.807   4.142   8.191 -0.2039  0.0032 -0.2153
  748TIP3    H123735   2.755   4.074   8.234 -0.9537  0.4730 -0.3698
  748TIP3    H223736   2.881   4.157   8.251  0.7098 -1.8616 -0.7859
  749TIP3   OH223737   0.176   2.528   0.718  0.1807 -0.0691 -0.1267
  749TIP3    H123738   0.204   2.616   0.692  2.3412 -0.0375  1.9539
  749TIP3    H223739   0.178   2.477   0.637  1.0455  1.2956 -1.0000
  750TIP3   OH223740   2.596   3.142  31.148 -0.0953 -0.0271  0.4560
  750TIP3    H123741   2.617   3.049  31.139  1.8878  0.4100 -0.0402
  750TIP3    H223742   2.681   3.185  31.156 -0.9309  1.8211 -0.0213
  751TIP3   OH223743   0.676   1.345  34.829 -0.3428 -0.3209 -0.0620
  751TIP3    H123744   0.678   1.436  34.801 -0.4762  0.6385  2.6906
  751TIP3    H223745   0.584   1.320  34.824 -0.3191 -0.2677 -0.7346
  752TIP3   OH223746   1.654   1.178  18.044  0.2988  0.0712  0.0026
  752TIP3    H123747   1.728   1.139  17.998  0.1807 -1.2532  0.8624
  752TIP3    H223748   1.693   1.245  18.100  0.8213 -0.4134  0.2350
  753TIP3   OH223749   2.925   4.195   4.319  0.3346  0.2533  0.4149
  753TIP3    H123750   2.943   4.170   4.410 -0.2875  1.0712  0.7797
  753TIP3    H223751   2.840   4.156   4.300  0.3272  0.3303  0.2873
  754TIP3   OH223752   0.037   2.805   2.877  0.1168  0.0240  0.0061
  754TIP3    H123753   0.036   2.711   2.897 -1.2620 -0.0427 -0.2433
  754TIP3    H223754   0.027   2.847   2.963 -0.0091 -0.0822  0.0445
  755TIP3   OH223755   0.751   3.395  34.321  0.1656  0.1334 -0.0573
  755TIP3    H123756   0.789   3.318  34.364 -0.7111 -0.3198 -0.0754
  755TIP3    H223757   0.771   3.468  34.379  0.1860 -0.2603  0.4371
  756TIP3   OH223758   3.695   4.122  30.488  0.3160 -0.2391 -0.1513
  756TIP3    H123759   3.725   4.203  30.449  0.8434  0.4190  1.5382
  756TIP3    H223760   3.756   4.105  30.559  1.6760 -3.4132 -1.8619
  757TIP3   OH223761   3.889   2.025  30.622 -0.4355  0.3401  0.8560
  757TIP3    H123762   3.858   1.942  30.659  3.4871 -1.8030 -0.1075
  757TIP3    H223763   3.949   2.060  30.688  0.9347  0.3152 -0.3271
  758TIP3   OH223764   1.976   1.468   3.644  0.5358 -0.1558 -0.3820
  758TIP3    H123765   1.930   1.542   3.683  0.3775 -0.2855 -0.3169
  758TIP3    H223766   1.916   1.436   3.576 -1.1837 -2.5658  2.0247
  759TIP3   OH223767   1.146   3.877  34.815 -0.2315 -0.1654  0.0408
  759TIP3    H123768   1.057   3.901  34.838  0.5277  2.9063  0.2044
  759TIP3    H223769   1.159   3.908  34.726  0.1322 -2.4199 -0.7750
  760TIP3   OH223770   2.236   2.218  34.900 -0.1495 -0.6587  0.3117
  760TIP3    H123771   2.256   2.248  34.989  2.5169 -0.0737 -0.3792
  760TIP3    H223772   2.167   2.277  34.870  1.0207  1.1498  0.9855
  761TIP3   OH223773   3.739   3.654   2.633  0.3456 -0.7123  0.6914
  761TIP3    H123774   3.724   3.678   2.724 -3.1818  1.1064 -0.1880
  761TIP3    H223775   3.659   3.609   2.607  0.2877  0.7759 -2.0469
  762TIP3   OH223776   2.014   3.216  32.607 -0.0603 -0.6678 -0.4405
  762TIP3    H123777   2.091   3.199  32.662 -0.1629 -1.1958 -0.4575
  762TIP3    H223778   1.983   3.130  32.581  0.4260 -0.4130 -1.9536
  763TIP3   OH223779   2.234   1.379  31.647 -0.8567  0.0008 -0.0009
  763TIP3    H123780   2.183   1.436  31.705 -1.8464  1.2850 -2.0328
  763TIP3    H223781   2.220   1.291  31.681 -2.0457  0.6267  1.2266
  764TIP3   OH223782   0.615   0.280   5.287  0.1198  0.1847 -0.0459
  764TIP3    H123783   0.657   0.243   5.209  0.2113 -0.3909  0.2686
  764TIP3    H223784   0.632   0.216   5.356 -0.5698  0.3394  0.2799
  765TIP3   OH223785   3.179   1.875   6.797  0.2131 -0.1695  0.4025
  765TIP3    H123786   3.090   1.847   6.817 -1.2710  0.7202 -3.8667
  765TIP3    H223787   3.230   1.794   6.792 -0.6497 -0.8035  1.6217
  766TIP3   OH223788   3.376   2.966  28.416  0.2160  0.3660  0.2386
  766TIP3    H123789   3.429   2.904  28.365 -0.6284  0.7440 -1.1757
  766TIP3    H223790   3.359   3.038  28.355 -1.8585  0.2826  0.6591
  767TIP3   OH223791   3.475   4.199   9.254  0.1386 -0.4602 -0.4960
  767TIP3    H123792   3.469   4.238   9.167 -0.6879  0.3137 -0.1077
  767TIP3    H223793   3.529   4.260   9.304  0.7154 -0.9667 -0.4999
  768TIP3   OH223794   1.386   1.697  34.410  0.2442 -0.6427 -0.6878
  768TIP3    H123795   1.385   1.627  34.476  1.2859 -0.1817 -0.1553
  768TIP3    H223796   1.409   1.776  34.458  0.9432 -0.2771 -1.5774
  769TIP3   OH223797   0.598   2.702   9.706  0.3804  0.2030  0.6804
  769TIP3    H123798   0.650   2.676   9.629  1.0668  0.6759  0.9741
  769TIP3    H223799   0.657   2.758   9.757 -0.4373  0.7952  1.0006
  770TIP3   OH223800   2.516   4.382   8.446 -0.2794 -0.6832  0.0310
  770TIP3    H123801   2.523   4.472   8.416  2.1223 -0.3549  1.3383
  770TIP3    H223802   2.500   4.331   8.367 -1.7147  0.8601 -0.7222
  771TIP3   OH223803   2.838   0.137   3.592  0.3949 -0.1861 -0.0498
  771TIP3    H123804   2.767   0.201   3.605 -0.0558 -0.2824 -1.7596
  771TIP3    H223805   2.891   0.144   3.671 -1.8186 -0.5022  1.5596
  772TIP3   OH223806   0.810   0.462  26.993 -0.0203  0.3555 -0.5744
  772TIP3    H123807   0.839   0.375  26.966 -0.4565 -0.3838  1.2374
  772TIP3    H223808   0.784   0.505  26.911  0.9717 -0.8982 -1.5892
  773TIP3   OH223809   0.604   2.764  37.171  0.1921 -0.7818  0.5757
  773TIP3    H123810   0.673   2.829  37.187 -0.8425  1.0141 -1.7238
  773TIP3    H223811   0.541   2.779  37.241 -0.2250  1.0844 -0.1241
  774TIP3   OH223812   1.431   3.147  33.154 -0.1381 -0.2350  0.7383
  774TIP3    H123813   1.396   3.059  33.142 -0.7152 -0.0827  1.2659
  774TIP3    H223814   1.524   3.140  33.130 -0.0780 -1.0828  1.1919
  775TIP3   OH223815   2.163   1.682   2.937 -0.2370 -0.3374 -0.1343
  775TIP3    H123816   2.219   1.636   3.000  0.6714  0.0846 -0.6145
  775TIP3    H223817   2.137   1.615   2.875  0.7306 -0.3091 -0.5889
  776TIP3   OH223818   0.802   3.413  10.006 -0.2301  0.3977 -0.4523
  776TIP3    H123819   0.893   3.417  10.036  0.0484 -1.8654 -0.7781
  776TIP3    H223820   0.760   3.490  10.045  1.7434  1.3534 -0.0751
  777TIP3   OH223821   1.559   3.052  29.130  0.3846 -0.5497 -0.0342
  777TIP3    H123822   1.533   3.078  29.219 -0.8806  1.4447 -0.9165
  777TIP3    H223823   1.651   3.029  29.139  0.7780  1.2758  1.5265
  778TIP3   OH223824   3.922   0.773   1.127 -0.2927 -0.0919 -0.3022
  778TIP3    H123825   3.997   0.714   1.134  0.4227  0.8438  0.3124
  778TIP3    H223826   3.927   0.807   1.038 -1.2874 -1.6670 -0.9886
  779TIP3   OH223827   0.845   2.947   0.353  0.0510 -0.4580 -0.2178
  779TIP3    H123828   0.775   2.892   0.319  1.2199 -1.2760 -1.3972
  779TIP3    H223829   0.887   2.985   0.276 -0.0653  1.3117  0.5224
  780TIP3   OH223830   4.143   0.533   3.026  0.3114  0.4631 -0.5129
  780TIP3    H123831   4.135   0.625   3.003 -1.3937  0.3261 -0.6001
  780TIP3    H223832   4.093   0.487   2.959  0.6346 -0.4798 -0.1272
  781TIP3   OH223833   1.323   1.599   7.316 -0.0441  0.0250  0.2591
  781TIP3    H123834   1.360   1.626   7.400 -0.7827  0.3221  0.4974
  781TIP3    H223835   1.361   1.659   7.252  0.2186  0.0478  0.4381
  782TIP3   OH223836   2.877   0.836   8.940 -0.0625 -0.5200  0.5926
  782TIP3    H123837   2.919   0.899   8.998  0.7623 -0.8102  0.3283
  782TIP3    H223838   2.787   0.868   8.930 -0.2858 -0.5845  2.1813
  783TIP3   OH223839   4.184   1.552   7.486 -0.2308  0.9058  0.0965
  783TIP3    H123840   4.164   1.641   7.456  0.4275  0.9180 -0.3421
  783TIP3    H223841   4.162   1.496   7.412  1.7459  0.9692 -0.6147
  784TIP3   OH223842   3.474   0.397  34.537  0.4346 -0.0651  0.0985
  784TIP3    H123843   3.474   0.418  34.444  0.3123 -1.2723 -0.1980
  784TIP3    H223844   3.521   0.469  34.579  0.7323  0.3460 -0.9232
  785TIP3   OH223845   0.744   2.383   5.531  0.3519 -0.3758  0.2198
  785TIP3    H123846   0.693   2.302   5.535 -0.6897  0.0747 -2.0535
  785TIP3    H223847   0.811   2.373   5.599 -0.7636 -2.3990  1.1174
  786TIP3   OH223848   3.512   4.009   0.413  0.0214  0.0111  0.4917
  786TIP3    H123849   3.597   3.967   0.405 -0.3176 -0.8378  1.1790
  786TIP3    H223850   3.494   4.009   0.507 -0.2297  1.2311  0.4638
  787TIP3   OH223851   1.164   0.507  13.206  0.1910  0.3326 -1.1977
  787TIP3    H123852   1.238   0.459  13.243 -0.2246  0.7145  0.1958
  787TIP3    H223853   1.086   0.463  13.240 -0.2003  1.8022 -0.0527
  788TIP3   OH223854   2.365   1.892   5.426  0.7145  0.5993  0.0205
  788TIP3    H123855   2.450   1.916   5.461  0.0949  0.8174  1.4470
  788TIP3    H223856   2.322   1.845   5.497  1.1599 -3.2651 -2.0236
  789TIP3   OH223857   0.911   3.969  33.412 -0.5900  0.1836  0.3562
  789TIP3    H123858   0.829   3.949  33.458 -0.3734  0.2526  0.7856
  789TIP3    H223859   0.931   4.060  33.437 -0.3892  0.1693  0.2522
  790TIP3   OH223860   3.787   0.901   4.485 -0.4942 -0.1377  0.4354
  790TIP3    H123861   3.817   0.822   4.439 -1.5961 -0.5278  0.3499
  790TIP3    H223862   3.765   0.870   4.573 -0.7091  0.1198  0.4732
  791TIP3   OH223863   3.484   2.305  40.034  0.3669  0.3101  0.0622
  791TIP3    H123864   3.440   2.220  40.031  1.0416 -0.0319 -0.5016
  791TIP3    H223865   3.425   2.364  39.988  0.0058  0.0945  0.2448
  792TIP3   OH223866   2.142   1.987   1.864  0.3610  0.0867 -0.2288
  792TIP3    H123867   2.176   2.012   1.950  0.7151  0.3783 -0.4481
  792TIP3    H223868   2.058   2.031   1.858  0.7011  0.7361 -0.3575
  793TIP3   OH223869   3.690   3.074   5.149  0.6166  0.1461  0.8122
  793TIP3    H123870   3.690   3.155   5.099  0.7074  0.4421  1.2839
  793TIP3    H223871   3.757   3.020   5.108  0.5865  0.3267  0.5252
  794TIP3   OH223872   3.400   3.904  32.822  0.3808 -0.0917  0.0157
  794TIP3    H123873   3.330   3.970  32.822 -0.0925 -0.5814  0.4678
  794TIP3    H223874   3.453   3.925  32.745  1.8513  2.4924  1.5905
  795TIP3   OH223875   1.255   1.550   5.701 -0.1948 -0.4916  0.1727
  795TIP3    H123876   1.251   1.606   5.779  0.7633  1.0352 -0.8320
  795TIP3    H223877   1.184   1.487   5.714 -1.5075  1.1019  1.2452
  796TIP3   OH223878   0.943   4.287  36.964 -0.5253 -0.3410 -0.3769
  796TIP3    H123879   1.004   4.307  36.892 -0.0669  1.3435  0.4322
  796TIP3    H223880   0.991   4.313  37.043 -2.4653  1.5638  0.2560
  797TIP3   OH223881   4.017   1.808  29.240 -0.1740 -0.0029  0.4095
  797TIP3    H123882   4.086   1.858  29.285 -1.0874 -0.0788  1.9946
  797TIP3    H223883   4.036   1.717  29.262 -1.1027  0.0185  1.4070
  798TIP3   OH223884   4.361   2.266  10.300  0.2046 -0.1404 -0.2008
  798TIP3    H123885   4.373   2.231  10.388 -0.2414 -0.4156 -0.2502
  798TIP3    H223886   4.396   2.198  10.242 -1.6743 -1.0220 -0.3575
  799TIP3   OH223887   0.087   2.585  12.916  0.3057 -0.1431 -0.4629
  799TIP3    H123888   0.048   2.626  12.839  2.2386 -0.5943 -1.7353
  799TIP3    H223889   0.054   2.637  12.990 -0.5774  1.1035 -1.6828
  800TIP3   OH223890   4.211   0.137  26.157 -0.4867 -0.3714  0.0736
  800TIP3    H123891   4.264   0.116  26.234  1.7300 -0.5100 -1.3879
  800TIP3    H223892   4.209   0.056  26.107 -0.4361  0.1836 -0.8335
  801TIP3   OH223893   1.507   2.953  34.869 -0.4170 -0.4650  0.0414
  801TIP3    H123894   1.515   3.045  34.842  0.7973 -0.5977 -0.0875
  801TIP3    H223895   1.436   2.954  34.934 -0.5069  0.5401 -0.0460
  802TIP3   OH223896   2.104   4.381  35.520  0.0660 -0.1373 -0.0325
  802TIP3    H123897   2.071   4.470  35.517  1.4441  0.3973 -0.1260
  802TIP3    H223898   2.107   4.359  35.614  0.1304  0.0801  0.0161
  803TIP3   OH223899   3.295   4.082   6.071  0.1654  0.4806  0.3657
  803TIP3    H123900   3.347   4.077   6.151 -0.8002  1.5560  1.0894
  803TIP3    H223901   3.347   4.137   6.012  0.8106 -0.1974  0.2879
  804TIP3   OH223902   2.790   2.740  39.948  0.2650 -0.3910 -0.0138
  804TIP3    H123903   2.802   2.663  40.004  1.8111 -0.3490 -0.2257
  804TIP3    H223904   2.702   2.771  39.967 -0.7724 -2.7823 -0.6473
  805TIP3   OH223905   4.014   0.830  38.280  0.5747  0.0810  0.0066
  805TIP3    H123906   4.032   0.877  38.361 -0.5697  1.8898 -0.7342
  805TIP3    H223907   3.957   0.758  38.307  0.2513  0.6258  0.8191
  806TIP3   OH223908   2.459   3.276  34.311  0.2659 -0.4153 -0.1162
  806TIP3    H123909   2.474   3.367  34.337  0.0328 -0.4430  0.1142
  806TIP3    H223910   2.542   3.232  34.330  0.3080 -0.2979 -0.0226
  807TIP3   OH223911   1.222   2.790  36.253 -0.5631  0.5536 -0.0119
  807TIP3    H123912   1.265   2.803  36.338 -1.1923  1.6893  0.1608
  807TIP3    H223913   1.163   2.717  36.267  0.1020  0.0429  0.2149
  808TIP3   OH223914   4.187   0.223  12.608 -0.0291  0.3618  0.1724
  808TIP3    H123915   4.251   0.270  12.661  0.8602 -1.9395  1.2941
  808TIP3    H223916   4.115   0.205  12.668  0.0413 -0.4335  0.0314
  809TIP3   OH223917   0.886   2.776  40.946 -0.2093 -0.5687  0.2841
  809TIP3    H123918   0.939   2.852  40.969  0.3202 -1.1707  1.1371
  809TIP3    H223919   0.798   2.797  40.977 -0.5645  0.5202 -1.3171
  810TIP3   OH223920   3.716   0.553  34.396  0.1762 -0.0826 -0.1444
  810TIP3    H123921   3.659   0.511  34.332  0.3767 -0.0175 -0.3669
  810TIP3    H223922   3.703   0.647  34.382  1.9662 -0.0154 -1.7053
  811TIP3   OH223923   4.389   0.874  12.264  0.2396  0.0681 -0.5883
  811TIP3    H123924   4.377   0.945  12.201 -0.3313  0.0549 -0.4985
  811TIP3    H223925   4.480   0.882  12.292  0.0591  1.0698 -0.2193
  812TIP3   OH223926   4.274   4.393  37.288 -0.0195  0.5989  0.0090
  812TIP3    H123927   4.253   4.408  37.380 -1.1310 -0.6610 -0.0110
  812TIP3    H223928   4.232   4.466  37.242  1.5863  1.9378  0.5671
  813TIP3   OH223929   3.829   1.770   4.166 -0.5354  0.3142 -0.0322
  813TIP3    H123930   3.762   1.818   4.216  0.3832  1.3489  0.2521
  813TIP3    H223931   3.829   1.812   4.080  0.6006  1.1890  0.3647
  814TIP3   OH223932   2.161   0.933  17.944 -0.1368  0.5713 -0.1417
  814TIP3    H123933   2.175   0.845  17.979  0.3078  0.4823 -0.5402
  814TIP3    H223934   2.241   0.953  17.895 -0.8467  0.5862 -1.3284
  815TIP3   OH223935   2.981   2.200  34.818  0.3378  0.2262  0.0683
  815TIP3    H123936   2.987   2.185  34.724  5.0079  2.9103 -0.3672
  815TIP3    H223937   2.959   2.292  34.827  1.3967  0.3782  1.5079
  816TIP3   OH223938   4.274   3.466  33.011 -0.5028  0.1966  0.1804
  816TIP3    H123939   4.352   3.429  32.969 -0.4723 -0.3517  0.7059
  816TIP3    H223940   4.212   3.477  32.940  0.0090  0.5139 -0.2247
  817TIP3   OH223941   3.001   0.567  29.190 -0.0310  0.3082  0.1044
  817TIP3    H123942   2.942   0.627  29.237  0.7082  0.7264  0.5147
  817TIP3    H223943   3.089   0.593  29.218  0.2772 -1.6728  1.1530
  818TIP3   OH223944   2.500   2.260  33.966 -0.2907  0.2719 -0.5967
  818TIP3    H123945   2.450   2.181  33.947 -1.2490  0.4459  1.0696
  818TIP3    H223946   2.441   2.315  34.017  0.9592  1.3115 -0.2158
  819TIP3   OH223947   3.117   1.721   1.156  0.3080 -0.4318 -0.5811
  819TIP3    H123948   3.068   1.736   1.075 -0.9186 -0.5416  0.1173
  819TIP3    H223949   3.050   1.715   1.224  1.3670  0.9947  0.6590
  820TIP3   OH223950   0.669   3.008  12.122 -0.0420 -0.5020 -0.2231
  820TIP3    H123951   0.666   2.990  12.028  0.2592  1.1917 -0.5913
  820TIP3    H223952   0.740   3.071  12.132 -0.0552 -0.6779  1.1514
  821TIP3   OH223953   3.979   3.410  34.119 -0.1378 -0.6007 -0.0831
  821TIP3    H123954   3.952   3.407  34.028  0.3988  0.8500 -0.3050
  821TIP3    H223955   3.957   3.323  34.153 -2.1160 -0.5459 -1.0655
  822TIP3   OH223956   1.381   3.083   0.416  0.0607 -0.0920 -0.4993
  822TIP3    H123957   1.393   3.104   0.323 -0.7502  2.0980 -0.1727
  822TIP3    H223958   1.287   3.093   0.430  0.3361  0.8184  0.8067
  823TIP3   OH223959   2.844   3.508   3.036  0.3429 -0.0701  0.4062
  823TIP3    H123960   2.768   3.454   3.056 -0.4550  0.1673 -1.7198
  823TIP3    H223961   2.911   3.445   3.010  1.0346 -0.2989  2.5206
  824TIP3   OH223962   1.450   2.585  15.511  0.4866 -0.6097 -0.6148
  824TIP3    H123963   1.385   2.653  15.495 -0.1101 -0.7475  1.0139
  824TIP3    H223964   1.522   2.605  15.451 -1.0073 -0.4234 -2.4385
  825TIP3   OH223965   1.853   0.339   8.977 -0.1036 -0.2321 -0.1187
  825TIP3    H123966   1.901   0.422   8.978  1.1332 -0.9249 -0.2136
  825TIP3    H223967   1.829   0.323   9.068  0.7758 -0.3938  0.0886
  826TIP3   OH223968   3.542   1.831  25.279 -0.3101 -0.7231  0.0489
  826TIP3    H123969   3.544   1.924  25.302 -0.0990 -0.3420 -1.4251
  826TIP3    H223970   3.534   1.786  25.364 -4.0941  0.7199  0.6629
  827TIP3   OH223971   1.334   2.428   1.101  0.2950  0.2713 -0.1767
  827TIP3    H123972   1.286   2.427   1.183 -1.7835 -1.9260 -1.2934
  827TIP3    H223973   1.300   2.504   1.053  0.9586  1.1002  0.6256
  828TIP3   OH223974   2.308   3.858  37.457  0.6397  0.1310  0.8427
  828TIP3    H123975   2.316   3.913  37.380 -0.7840  0.6237  1.0076
  828TIP3    H223976   2.348   3.775  37.433  0.4779  0.3825 -0.3206
  829TIP3   OH223977   0.832   2.134  36.099  0.3644 -0.2546  0.2928
  829TIP3    H123978   0.809   2.145  36.007 -1.9710 -0.4272  0.7852
  829TIP3    H223979   0.923   2.161  36.105 -0.1982  2.3973 -1.5673
  830TIP3   OH223980   3.652   2.521   7.464  0.5143 -0.0255  0.4396
  830TIP3    H123981   3.677   2.532   7.556  0.5466 -0.8376  0.5372
  830TIP3    H223982   3.564   2.557   7.459  0.7526  0.5957  0.6484
  831TIP3   OH223983   0.906   3.527  38.055 -0.7315  0.2655  0.0314
  831TIP3    H123984   0.814   3.533  38.080 -0.8419  0.9021 -0.4837
  831TIP3    H223985   0.925   3.613  38.016  0.0728  0.1299  0.1208
  832TIP3   OH223986   3.306   2.564  32.721 -0.3712  0.2976  0.2638
  832TIP3    H123987   3.345   2.649  32.699  1.3878 -0.3258  0.8863
  832TIP3    H223988   3.344   2.503  32.657 -1.9627  0.0191 -0.4671
  833TIP3   OH223989   0.245   3.377  25.580 -0.3850  0.1704 -0.1576
  833TIP3    H123990   0.307   3.445  25.554 -0.0060 -0.3880 -0.7400
  833TIP3    H223991   0.185   3.370  25.505  0.8896 -1.6610 -1.0934
  834TIP3   OH223992   1.714   2.959  33.842 -0.5550  0.1127  0.8048
  834TIP3    H123993   1.703   2.958  33.937 -1.1922 -2.0452  0.7493
  834TIP3    H223994   1.769   2.883  33.824  0.6913  1.2585 -0.4751
  835TIP3   OH223995   2.413   0.633   1.053  0.6515  0.5443  0.2575
  835TIP3    H123996   2.412   0.729   1.056  0.1902  0.5379  0.3634
  835TIP3    H223997   2.368   0.605   1.133  0.8000  0.2382  0.2366
  836TIP3   OH223998   1.085   1.732  38.881  0.3007 -0.5524 -0.6231
  836TIP3    H123999   0.995   1.752  38.857  0.5056  0.6873 -0.4586
  836TIP3    H224000   1.078   1.669  38.953 -0.4986  0.6340  0.3860
  837TIP3   OH224001   1.823   0.126   0.517  0.5448  0.3896  0.3191
  837TIP3    H124002   1.861   0.055   0.569  0.1839  0.0732  0.1605
  837TIP3    H224003   1.786   0.187   0.581 -0.3667 -0.2603  0.4404
  838TIP3   OH224004   2.359   2.498  27.836 -0.8093 -0.1937 -0.0502
  838TIP3    H124005   2.292   2.429  27.830 -3.0122  1.7963  0.0299
  838TIP3    H224006   2.312   2.578  27.811  1.3532  1.4447  0.9002
  839TIP3   OH224007   2.453   0.549   0.592  0.2904  0.1930  0.2103
  839TIP3    H124008   2.468   0.516   0.681  1.4230 -0.2297 -0.1176
  839TIP3    H224009   2.540   0.550   0.552  0.2671  3.0785  0.0099
  840TIP3   OH224010   0.079   0.483  11.476 -0.5081  0.0253  0.0152
  840TIP3    H124011   0.142   0.434  11.423  0.3984  0.9128  0.2374
  840TIP3    H224012   0.043   0.418  11.536 -1.4974 -0.9798 -1.6032
  841TIP3   OH224013   2.769   1.277  31.734 -0.5062  0.4475 -0.1173
  841TIP3    H124014   2.825   1.355  31.733 -2.6599  2.1403  1.0394
  841TIP3    H224015   2.793   1.230  31.813 -0.2502  0.7802  0.0027
  842TIP3   OH224016   2.954   3.281  11.350 -0.1506  0.3688  0.2432
  842TIP3    H124017   2.882   3.220  11.361  1.5861 -1.9624 -0.5190
  842TIP3    H224018   2.951   3.306  11.258  0.7412 -0.7891 -0.1253
  843TIP3   OH224019   1.501   3.755  13.479 -0.9473 -0.0675 -0.2163
  843TIP3    H124020   1.562   3.774  13.407 -0.6180  2.2854  0.5720
  843TIP3    H224021   1.553   3.768  13.558 -2.5608  2.9965  0.5173
  844TIP3   OH224022   0.759   3.514  16.374  0.7188 -0.3246  0.3403
  844TIP3    H124023   0.697   3.442  16.358 -0.1753  0.0907  1.7473
  844TIP3    H224024   0.713   3.592  16.345 -0.0135  0.1498  2.5697
  845TIP3   OH224025   0.559   2.586  40.730  0.4351  0.0712  0.1206
  845TIP3    H124026   0.470   2.610  40.704  0.4446  0.8464  0.7667
  845TIP3    H224027   0.610   2.665  40.714  0.7317  0.0775  1.0308
  846TIP3   OH224028   0.560   4.265   7.209  0.1584 -0.1745 -0.5955
  846TIP3    H124029   0.524   4.349   7.178  1.3557  0.5307 -0.1577
  846TIP3    H224030   0.622   4.239   7.141  0.4187 -0.2675 -0.3253
  847TIP3   OH224031   3.490   1.925  40.129  0.4718 -0.3484  0.5857
  847TIP3    H124032   3.440   1.997  40.091 -0.4422 -0.0714  2.2095
  847TIP3    H224033   3.512   1.869  40.055  0.8205  1.3457 -0.6605
  848TIP3   OH224034   2.033   1.579  40.768 -0.3108 -0.0893  0.2492
  848TIP3    H124035   2.089   1.656  40.782  0.7551 -0.6279 -0.8716
  848TIP3    H224036   2.056   1.519  40.839 -1.2871  0.6711  1.2437
  849TIP3   OH224037   2.879   2.501  12.039  0.0077 -0.5104 -0.5534
  849TIP3    H124038   2.886   2.433  12.106 -0.4285 -0.5666 -0.5642
  849TIP3    H224039   2.826   2.569  12.080 -2.0671 -1.4356 -1.5446
  850TIP3   OH224040   4.313   0.857  21.798 -0.1479 -0.1285 -0.2322
  850TIP3    H124041   4.249   0.840  21.729 -0.6874  2.0597 -0.3480
  850TIP3    H224042   4.393   0.881  21.752  0.0338 -0.4941 -0.1030
  851TIP3   OH224043   1.411   1.671  36.755 -0.0566 -0.2104  0.5340
  851TIP3    H124044   1.383   1.603  36.815  1.1280 -0.4562  0.8334
  851TIP3    H224045   1.415   1.628  36.670  2.2965 -1.0342  0.9723
  852TIP3   OH224046   1.463   2.842  33.675  0.5127 -0.8475 -0.1178
  852TIP3    H124047   1.421   2.859  33.759  1.1859 -2.8124  0.6789
  852TIP3    H224048   1.528   2.912  33.666  0.2189 -0.4421  0.8354
  853TIP3   OH224049   0.826   3.605  36.038  0.1457  0.4778 -0.1162
  853TIP3    H124050   0.913   3.619  36.075 -0.2793 -0.9877  1.5355
  853TIP3    H224051   0.822   3.512  36.020 -1.0929  0.5313 -0.1685
  854TIP3   OH224052   4.121   0.797  40.531  0.0788 -0.5042  0.5060
  854TIP3    H124053   4.161   0.870  40.577  1.1707 -0.1474 -0.9251
  854TIP3    H224054   4.129   0.723  40.592 -2.1227  0.7438  2.4666
  855TIP3   OH224055   4.302   0.412  39.472  0.1246 -0.7798 -0.0236
  855TIP3    H124056   4.225   0.462  39.501 -0.2411 -0.9534 -0.6796
  855TIP3    H224057   4.298   0.414  39.377  1.4601 -0.0125 -0.0905
  856TIP3   OH224058   2.481   3.117  31.962 -0.4257 -0.0070 -0.1713
  856TIP3    H124059   2.510   3.209  31.968  0.1746 -0.2755  1.4919
  856TIP3    H224060   2.496   3.094  31.870  0.9914  1.0568 -0.2446
  857TIP3   OH224061   3.811   1.618  32.199  0.3177  0.0631 -0.3056
  857TIP3    H124062   3.814   1.572  32.283  0.5904  0.8109  0.0994
  857TIP3    H224063   3.804   1.548  32.134  2.1349 -0.6325  0.2048
  858TIP3   OH224064   3.822   0.145  30.017  0.1093 -0.0585 -0.4456
  858TIP3    H124065   3.805   0.145  29.923  0.0654  0.2917 -0.4386
  858TIP3    H224066   3.735   0.151  30.057  0.0663 -1.0535 -0.3635
  859TIP3   OH224067   3.918   2.569  32.208 -0.5308 -0.7169  0.0294
  859TIP3    H124068   3.829   2.554  32.175 -1.2247  2.7895 -0.0796
  859TIP3    H224069   3.908   2.640  32.271  2.2405  0.1015 -0.3423
  860TIP3   OH224070   2.982   2.517   2.330 -0.0446  0.0305 -0.1467
  860TIP3    H124071   2.888   2.522   2.344 -0.1365 -0.3080 -0.6182
  860TIP3    H224072   2.994   2.440   2.274  0.5266 -0.0326  0.0522
  861TIP3   OH224073   1.095   0.890   2.993 -0.3027  0.1403  0.3575
  861TIP3    H124074   1.177   0.847   3.018 -0.5810 -1.5995 -1.4544
  861TIP3    H224075   1.123   0.967   2.943  0.2526 -0.3379 -0.0893
  862TIP3   OH224076   0.908   3.396  30.659 -0.1250  0.3204 -0.1604
  862TIP3    H124077   0.964   3.452  30.606  0.4433 -2.0255 -2.1898
  862TIP3    H224078   0.966   3.328  30.693 -1.1380 -0.2206  0.5546
  863TIP3   OH224079   1.926   1.993  40.606  0.3423  0.5177 -0.1736
  863TIP3    H124080   2.008   1.986  40.558  1.3307 -0.1081  1.5250
  863TIP3    H224081   1.914   2.087  40.621  2.6112  0.5228  2.4825
  864TIP3   OH224082   0.060   2.660   0.292 -0.0704 -0.2161  0.0082
  864TIP3    H124083  -0.031   2.689   0.284 -0.0945 -0.6082 -1.2691
  864TIP3    H224084   0.090   2.699   0.374 -1.6422 -0.7961  0.9051
  865TIP3   OH224085   2.324   2.394   7.164 -0.7816  0.2412  0.3989
  865TIP3    H124086   2.329   2.302   7.188 -1.8646  0.3420  1.0827
  865TIP3    H224087   2.411   2.429   7.186 -1.1198 -0.0838  2.5275
  866TIP3   OH224088   1.853   1.418  18.480  0.0670 -0.0247 -0.4101
  866TIP3    H124089   1.859   1.473  18.558 -0.2075 -0.1206 -0.3226
  866TIP3    H224090   1.843   1.480  18.408  1.0005  0.0973 -0.4476
  867TIP3   OH224091   2.084   3.905  37.903  0.3447 -0.7897 -0.0927
  867TIP3    H124092   2.096   3.851  37.981 -1.0202 -1.8240 -0.5452
  867TIP3    H224093   2.162   3.887  37.850  1.6083  0.4218  1.2470
  868TIP3   OH224094   0.256   3.933  10.234 -0.7129 -0.4623  0.2966
  868TIP3    H124095   0.315   4.006  10.250 -0.0047 -1.2651  1.5393
  868TIP3    H224096   0.169   3.972  10.226 -0.3708  0.4802  1.0935
  869TIP3   OH224097   2.378   2.255  37.368 -0.1235  0.2011  0.1742
  869TIP3    H124098   2.341   2.179  37.414  0.1846 -0.1977 -0.2299
  869TIP3    H224099   2.337   2.331  37.410  1.3076 -0.0565  2.1838
  870TIP3   OH224100   1.522   0.004  27.067 -0.3727  0.3593 -0.1402
  870TIP3    H124101   1.502  -0.073  27.014 -1.0634  0.3183  0.1699
  870TIP3    H224102   1.503   0.078  27.009 -2.0167  0.3381  0.3134
  871TIP3   OH224103   2.151   3.741   7.620 -0.4812 -0.5322 -0.1593
  871TIP3    H124104   2.078   3.797   7.594 -0.0087 -0.4027 -1.2778
  871TIP3    H224105   2.110   3.662   7.656 -1.2546 -1.4110 -2.7576
  872TIP3   OH224106   3.106   3.707   6.110 -0.6211  0.0942  0.3304
  872TIP3    H124107   3.071   3.788   6.075  1.7063  1.3228  0.6172
  872TIP3    H224108   3.115   3.722   6.204  1.1608  0.1077  0.1963
  873TIP3   OH224109   0.620   1.069   0.405  0.7050 -0.3294  0.2663
  873TIP3    H124110   0.667   1.117   0.473 -0.8369  0.9369  0.4911
  873TIP3    H224111   0.689   1.032   0.350  2.0298 -2.1570  2.9559
  874TIP3   OH224112   3.334   2.275   1.486  0.2272  0.1506  0.0114
  874TIP3    H124113   3.332   2.181   1.504  1.5841 -0.1369 -1.1692
  874TIP3    H224114   3.427   2.295   1.472 -0.0178  1.7107  0.4527
  875TIP3   OH224115   2.005   2.807  38.557  0.3187  0.2797  0.5852
  875TIP3    H124116   2.005   2.732  38.497  2.7466  0.1124  0.6735
  875TIP3    H224117   2.036   2.771  38.640  1.0176  1.2776  0.7698
  876TIP3   OH224118   1.158   4.140  12.554 -0.3378  0.3428 -0.3969
  876TIP3    H124119   1.107   4.174  12.481 -2.4551  0.0451  0.8606
  876TIP3    H224120   1.209   4.215  12.586 -1.9966  1.3736 -0.0746
  877TIP3   OH224121   3.731   0.429   8.953  0.4227  0.3435 -0.1510
  877TIP3    H124122   3.736   0.398   8.863  1.4410  0.1168 -0.0277
  877TIP3    H224123   3.774   0.515   8.951  0.3218  0.4001  0.0901
  878TIP3   OH224124   0.515   2.431   4.973  0.5700 -0.6595 -0.1098
  878TIP3    H124125   0.505   2.493   4.901 -1.1084 -0.9046 -0.1327
  878TIP3    H224126   0.604   2.446   5.006  0.2367  1.7326 -0.1140
  879TIP3   OH224127   3.124   1.739   7.379  0.0179  0.4059 -0.6351
  879TIP3    H124128   3.105   1.803   7.448 -0.5747 -0.2620 -0.1689
  879TIP3    H224129   3.219   1.732   7.379 -0.0031 -0.0747  0.5715
  880TIP3   OH224130   4.149   3.411   7.161  0.6130  0.2010 -0.1058
  880TIP3    H124131   4.220   3.386   7.221  0.0944  0.7404  0.7557
  880TIP3    H224132   4.077   3.435   7.218 -0.2366 -0.2227 -0.9741
  881TIP3   OH224133   3.265   3.807  38.240 -0.3788  0.4302  0.2567
  881TIP3    H124134   3.241   3.884  38.291  1.4543  2.6580 -1.9641
  881TIP3    H224135   3.355   3.788  38.267  0.3515  1.1925 -1.4379
  882TIP3   OH224136   0.986   4.025   8.231 -0.4522 -0.2246  0.4792
  882TIP3    H124137   0.970   4.077   8.310  0.5854  1.4148 -0.3353
  882TIP3    H224138   0.938   4.072   8.162 -0.4898 -1.0392 -0.0585
  883TIP3   OH224139   2.456   2.028   3.029  0.3396  0.6466  0.4325
  883TIP3    H124140   2.492   1.940   3.021  1.3583  0.6167  3.9136
  883TIP3    H224141   2.511   2.081   2.971 -0.5439 -0.9633 -2.0287
  884TIP3   OH224142   3.794   1.631   5.828  0.0720  0.0175 -0.0040
  884TIP3    H124143   3.887   1.653   5.830 -0.0909  0.7803 -0.5002
  884TIP3    H224144   3.768   1.627   5.920  0.3834  0.7333  0.1224
  885TIP3   OH224145   1.889   0.405   1.694  0.1681  0.4418  0.4156
  885TIP3    H124146   1.822   0.379   1.630  0.0661  1.4753  0.0954
  885TIP3    H224147   1.855   0.486   1.732 -0.1841 -0.5565  2.3988
  886TIP3   OH224148   3.679   1.915  40.689 -0.3161 -0.0076 -0.2626
  886TIP3    H124149   3.693   1.956  40.774 -0.4600 -1.2012  0.3415
  886TIP3    H224150   3.701   1.984  40.626 -1.6128  1.3706  0.7304
  887TIP3   OH224151   1.332   1.534  39.132 -0.1835 -0.4808 -0.7580
  887TIP3    H124152   1.248   1.553  39.174  0.4665  0.7623  0.0441
  887TIP3    H224153   1.308   1.496  39.048 -1.5431 -0.8847 -0.2265
  888TIP3   OH224154   1.970   1.513   7.478 -0.4591  0.2019  0.3544
  888TIP3    H124155   1.981   1.430   7.525  1.4275  0.0381 -0.2964
  888TIP3    H224156   1.994   1.580   7.543 -0.3399  0.1389  0.3752
  889TIP3   OH224157   2.969   1.664  40.443 -0.4811  0.0965  0.4709
  889TIP3    H124158   2.918   1.730  40.397  0.7671 -0.2915 -1.5933
  889TIP3    H224159   3.054   1.706  40.459  0.0416 -0.7064 -0.1146
  890TIP3   OH224160   3.859   1.097  30.828  0.2827  0.3414  0.0457
  890TIP3    H124161   3.905   1.178  30.847 -0.9932  0.8050  1.3800
  890TIP3    H224162   3.926   1.029  30.830  1.1311  1.1786  0.3753
  891TIP3   OH224163   0.837   2.708   2.685  0.0436  0.6368 -0.0939
  891TIP3    H124164   0.888   2.643   2.637  1.7440  2.0415 -0.2715
  891TIP3    H224165   0.807   2.662   2.764  0.4828 -0.5807 -0.6195
  892TIP3   OH224166   4.330   1.593  33.434 -0.5027 -0.3867  0.5750
  892TIP3    H124167   4.345   1.619  33.525  1.1963 -1.0743  0.5263
  892TIP3    H224168   4.389   1.648  33.383 -0.5401 -0.8644  0.0018
  893TIP3   OH224169   2.310   3.732  30.760 -0.2584  0.3609 -0.1001
  893TIP3    H124170   2.316   3.719  30.855  3.7791 -1.9910 -0.4458
  893TIP3    H224171   2.274   3.650  30.727  0.5914  0.2079 -0.6911
  894TIP3   OH224172   1.721   0.771  26.885  0.2981  0.8486  0.2261
  894TIP3    H124173   1.711   0.761  26.979  0.5120  2.4128  0.4525
  894TIP3    H224174   1.650   0.831  26.860 -0.4165 -0.3671 -0.8097
  895TIP3   OH224175   3.855   0.476  41.510 -0.6837  0.0352 -0.2819
  895TIP3    H124176   3.915   0.412  41.473 -1.7686 -1.4608  0.4577
  895TIP3    H224177   3.893   0.499  41.594  0.4573  1.5153 -1.1478
  896TIP3   OH224178   4.395   1.041  32.095  0.2661 -0.0333 -0.0547
  896TIP3    H124179   4.381   1.135  32.090  1.0437  0.0345 -1.2769
  896TIP3    H224180   4.487   1.032  32.119  0.1298 -0.4808  0.3067
  897TIP3   OH224181   0.859   3.165  12.951  0.6389 -0.0062  0.2983
  897TIP3    H124182   0.897   3.089  12.996  0.3974  0.7743  1.9008
  897TIP3    H224183   0.917   3.237  12.974  0.2483  0.5095 -0.3168
  898TIP3   OH224184   4.130   3.781  32.897 -0.1198  0.0410 -0.5606
  898TIP3    H124185   4.073   3.814  32.827 -1.4439 -1.4818 -0.2715
  898TIP3    H224186   4.080   3.709  32.936  0.9013  0.3576  1.4729
  899TIP3   OH224187   1.746   2.542   1.621 -0.1400 -0.1851  0.1096
  899TIP3    H124188   1.795   2.606   1.673 -0.5125 -1.1720  1.7822
  899TIP3    H224189   1.686   2.594   1.569 -1.1404  0.8427  2.1633
  900TIP3   OH224190   1.842   0.311  28.082 -0.0176 -0.0964  0.3482
  900TIP3    H124191   1.837   0.215  28.082 -0.7482 -0.0683  0.1007
  900TIP3    H224192   1.864   0.334  28.172 -1.2550 -0.4487  0.7627
  901TIP3   OH224193   1.486   4.132   8.834 -0.4494  0.2722 -0.3124
  901TIP3    H124194   1.524   4.058   8.881  1.4280  1.0434 -0.5242
  901TIP3    H224195   1.462   4.195   8.903 -1.4715 -0.2471 -0.1740
  902TIP3   OH224196   3.002   0.355   5.351  0.1631 -0.2776  0.1458
  902TIP3    H124197   2.960   0.271   5.334 -1.5567  0.7477 -1.0682
  902TIP3    H224198   3.061   0.338   5.424 -0.2117 -2.4921  0.0088
  903TIP3   OH224199   2.262   1.077  12.733 -0.6477 -0.1391  0.0476
  903TIP3    H124200   2.194   1.128  12.776  1.3819  2.2725  0.5941
  903TIP3    H224201   2.311   1.036  12.804 -0.0394  0.1419 -0.2049
  904TIP3   OH224202   1.984   1.472   8.994 -0.0486 -0.5480  0.2284
  904TIP3    H124203   2.039   1.515   9.059  0.0338  0.2734 -0.3613
  904TIP3    H224204   1.982   1.533   8.920 -1.1967 -0.8791 -0.0311
  905TIP3   OH224205   2.941   0.003  27.408  0.1439 -0.2467 -0.4531
  905TIP3    H124206   3.023  -0.043  27.427  0.1005 -0.0048  0.3350
  905TIP3    H224207   2.924   0.056  27.486 -1.2720 -1.0459 -0.1836
  906TIP3   OH224208   2.901   3.726   3.203  0.1303  0.5016 -0.0330
  906TIP3    H124209   2.894   3.656   3.138  3.4122 -0.3697  0.3691
  906TIP3    H224210   2.943   3.798   3.156  0.4287  0.7000  0.5211
  907TIP3   OH224211   2.400   1.701   2.729 -0.0300 -0.0232  0.1538
  907TIP3    H124212   2.389   1.606   2.736  0.5528 -0.1189 -0.1574
  907TIP3    H224213   2.433   1.728   2.814  1.4155 -0.3513 -0.2672
  908TIP3   OH224214   0.668   3.674   2.680  0.1748  0.1368  0.8041
  908TIP3    H124215   0.661   3.717   2.595  0.4430 -0.5825  0.4130
  908TIP3    H224216   0.737   3.608   2.668 -0.7093 -0.8840  1.1867
  909TIP3   OH224217   2.769   4.042  10.692  0.4608 -0.1471  0.6109
  909TIP3    H124218   2.836   4.084  10.746  0.3876  1.7332 -0.6466
  909TIP3    H224219   2.779   4.084  10.606 -2.1084 -0.0357  0.3092
  910TIP3   OH224220   1.502   2.189   9.508 -0.7220 -0.3560 -0.3404
  910TIP3    H124221   1.430   2.236   9.550 -0.8544 -0.2030 -0.7340
  910TIP3    H224222   1.516   2.112   9.563  0.0604  0.5714  0.7941
  911TIP3   OH224223   3.436   0.215   4.463 -0.7956 -0.2768 -0.1646
  911TIP3    H124224   3.402   0.301   4.488 -0.5498  0.1578 -1.2873
  911TIP3    H224225   3.358   0.165   4.436 -0.6954  0.4532 -1.9534
  912TIP3   OH224226   2.895   2.128  37.134 -0.1342 -0.1818 -0.0535
  912TIP3    H124227   2.919   2.068  37.205  1.8544 -1.4054 -1.6764
  912TIP3    H224228   2.830   2.079  37.083 -0.8350  0.3196  0.3362
  913TIP3   OH224229   0.605   1.471   6.233  0.4046  0.5809 -0.5610
  913TIP3    H124230   0.611   1.383   6.269  1.6282  1.1083  0.6442
  913TIP3    H224231   0.529   1.469   6.175  0.3655 -1.2275 -0.4988
  914TIP3   OH224232   0.001   3.350   7.255 -0.1742 -0.0744  0.2224
  914TIP3    H124233   0.086   3.321   7.286  0.7747  2.9482  0.8281
  914TIP3    H224234  -0.043   3.383   7.333 -0.8185  0.8244 -0.4935
  915TIP3   OH224235   1.616   1.929   6.492 -0.0934 -0.5111  0.2820
  915TIP3    H124236   1.639   1.837   6.504 -0.6487 -0.9809 -1.8753
  915TIP3    H224237   1.578   1.933   6.404  0.6044  1.9179  0.0267
  916TIP3   OH224238   4.169   1.829  27.787  0.4456 -0.6231  0.3174
  916TIP3    H124239   4.179   1.758  27.851 -0.0639 -0.5250  0.5046
  916TIP3    H224240   4.131   1.901  27.836  1.2269 -0.1146  0.1918
  917TIP3   OH224241   1.094   3.991   9.423  0.5554  0.1600  0.5130
  917TIP3    H124242   1.092   3.953   9.511  0.3777  0.0474  0.4592
  917TIP3    H224243   1.076   4.084   9.437 -0.0576  0.0426  0.5371
  918TIP3   OH224244   1.883   3.077   9.271 -1.0122  0.3930 -0.2069
  918TIP3    H124245   1.895   2.982   9.268  3.7922  0.8115 -3.0288
  918TIP3    H224246   1.810   3.094   9.212 -1.0804 -1.4627 -0.7091
  919TIP3   OH224247   0.902   2.095   8.002 -1.1992  0.3674 -0.0320
  919TIP3    H124248   0.989   2.136   8.007 -1.5637  1.3567 -1.2534
  919TIP3    H224249   0.920   2.001   7.994 -0.1487  0.6958 -2.1718
  920TIP3   OH224250   0.265   2.690   3.334  0.2021 -0.2555  0.1885
  920TIP3    H124251   0.253   2.669   3.241  0.4677 -0.9130  0.2940
  920TIP3    H224252   0.248   2.784   3.340 -0.7756 -0.3805 -0.3671
  921TIP3   OH224253   4.259   2.577   5.723  0.0579  0.3900  0.3370
  921TIP3    H124254   4.183   2.616   5.680 -2.8017  0.6128  4.8920
  921TIP3    H224255   4.317   2.651   5.741 -0.0960  0.7350 -0.5380
  922TIP3   OH224256   2.486   1.117  33.580 -0.6155  0.0358 -0.0828
  922TIP3    H124257   2.421   1.070  33.528  1.0157 -0.2648 -1.9807
  922TIP3    H224258   2.510   1.056  33.650 -0.8727 -0.6929 -0.6172
  923TIP3   OH224259   0.240   2.719  40.263 -0.1004  0.0428  0.7460
  923TIP3    H124260   0.228   2.627  40.288 -0.1381  0.0756  0.8487
  923TIP3    H224261   0.328   2.722  40.225 -1.0092 -0.5619 -1.6030
  924TIP3   OH224262   1.922   3.429  28.604  0.3424  0.2490  0.6131
  924TIP3    H124263   2.008   3.467  28.582  1.1437 -0.5895  2.1274
  924TIP3    H224264   1.894   3.386  28.523  2.9436 -2.3176  0.9039
  925TIP3   OH224265   0.173   2.932   6.357 -0.1231  0.1107 -0.2188
  925TIP3    H124266   0.148   2.849   6.397  1.5693  0.4692  1.7302
  925TIP3    H224267   0.170   2.995   6.429 -2.0423  1.9606 -1.7774
  926TIP3   OH224268   2.645   0.814  27.838 -0.0342  0.1844 -0.1109
  926TIP3    H124269   2.554   0.843  27.829 -1.2851 -3.6758 -1.8019
  926TIP3    H224270   2.649   0.774  27.925 -0.0831 -0.0758 -0.2281
  927TIP3   OH224271   2.407   3.620  29.104  0.2147  0.0407  0.0047
  927TIP3    H124272   2.381   3.666  29.183  0.8746  0.7200 -0.1574
  927TIP3    H224273   2.326   3.583  29.069 -0.1333  0.0439  0.7962
  928TIP3   OH224274   1.061   0.733  11.643  0.2925 -0.1124  0.0654
  928TIP3    H124275   1.153   0.708  11.640  0.2323 -0.7486  2.0616
  928TIP3    H224276   1.017   0.671  11.586  1.1042  0.3354 -1.0842
  929TIP3   OH224277   2.955   3.417  26.744  0.6981  0.1894  0.2896
  929TIP3    H124278   2.889   3.351  26.766  1.3630 -0.3651  0.6972
  929TIP3    H224279   2.906   3.493  26.714 -0.1056 -0.3150  0.3221
  930TIP3   OH224280   1.550   0.495  27.424  0.1094  0.2671  0.2710
  930TIP3    H124281   1.487   0.517  27.492  1.6995 -1.1571  2.3226
  930TIP3    H224282   1.621   0.558  27.436  1.5755 -1.5457  1.7310
  931TIP3   OH224283   4.228   4.072  40.126 -0.1681 -0.1345 -0.0987
  931TIP3    H124284   4.254   4.163  40.141 -1.9985  0.5586 -0.8805
  931TIP3    H224285   4.225   4.033  40.213 -0.3996  0.8580  0.3543
  932TIP3   OH224286   0.969   2.079   1.846  0.2628  0.0461  0.1187
  932TIP3    H124287   0.994   1.991   1.873  1.4093  0.1204 -0.6268
  932TIP3    H224288   1.047   2.132   1.862  0.3876  0.4437 -1.5853
  933TIP3   OH224289   1.142   1.729  28.283 -0.4769 -0.3170  0.7496
  933TIP3    H124290   1.143   1.634  28.292  0.0659 -0.2972  0.9623
  933TIP3    H224291   1.225   1.750  28.240 -0.2708  0.1167  1.3461
  934TIP3   OH224292   0.722   1.378   0.395 -0.7161 -0.1413 -0.9647
  934TIP3    H124293   0.673   1.360   0.315 -0.4874  0.3747 -1.2248
  934TIP3    H224294   0.800   1.425   0.365 -0.0908 -0.8875 -0.5536
  935TIP3   OH224295   2.532   0.198  39.044 -0.1824 -0.1994 -0.1400
  935TIP3    H124296   2.474   0.139  38.997 -1.1362 -1.0416  1.9598
  935TIP3    H224297   2.515   0.180  39.137  1.6257  1.3219  0.5609
  936TIP3   OH224298   2.764   3.673  32.225  0.0503  0.7611  0.0209
  936TIP3    H124299   2.794   3.751  32.271  1.7830  0.2206 -0.1375
  936TIP3    H224300   2.696   3.637  32.282  0.6282  1.3074  1.0835
  937TIP3   OH224301   1.347   3.427  38.845  0.2529 -0.0728  0.9811
  937TIP3    H124302   1.416   3.436  38.912  1.5845 -1.0793 -0.1966
  937TIP3    H224303   1.295   3.353  38.875  2.7116 -2.6123 -0.5431
  938TIP3   OH224304   0.414   3.101   7.006 -0.7831  0.2310  0.4482
  938TIP3    H124305   0.322   3.103   6.979 -0.4223 -1.6026 -1.1064
  938TIP3    H224306   0.460   3.155   6.941 -0.5841  0.0569  0.4436
  939TIP3   OH224307   0.169   1.373  24.221 -0.1697  0.0296  0.3295
  939TIP3    H124308   0.203   1.284  24.214 -0.7864 -0.1251 -1.2287
  939TIP3    H224309   0.188   1.412  24.136 -0.4367  1.1992  0.7937
  940TIP3   OH224310   0.594   2.138   3.866 -0.2994 -0.3351 -0.7917
  940TIP3    H124311   0.515   2.110   3.910 -0.8416  3.0706  0.7041
  940TIP3    H224312   0.662   2.077   3.896 -1.2148  0.1444  2.6419
  941TIP3   OH224313   1.708   2.791  41.462 -0.2035  0.0038  0.3425
  941TIP3    H124314   1.779   2.749  41.413 -1.8822 -0.8241 -1.5095
  941TIP3    H224315   1.716   2.884  41.440  0.4433 -0.0469  0.3456
  942TIP3   OH224316   0.598   2.042   8.174  0.1397  0.7449  0.1881
  942TIP3    H124317   0.591   1.957   8.217  1.8995 -0.0870 -1.0359
  942TIP3    H224318   0.666   2.088   8.223  0.2495  0.8447 -0.0569
  943TIP3   OH224319   0.116   3.641  27.523  0.3242 -0.1515 -0.5074
  943TIP3    H124320   0.196   3.595  27.549 -0.6846 -2.0073 -0.5181
  943TIP3    H224321   0.073   3.581  27.462 -2.8277 -0.9321  2.1579
  944TIP3   OH224322   1.204   2.063   1.570  0.9152  0.7408 -0.1989
  944TIP3    H124323   1.221   1.979   1.528  1.7226  1.4065 -1.2325
  944TIP3    H224324   1.110   2.062   1.588  1.1689 -1.0507  1.3186
  945TIP3   OH224325   2.958   4.277  11.617  0.1050 -0.2851  0.4655
  945TIP3    H124326   2.904   4.284  11.538 -3.0530 -2.1656  2.2521
  945TIP3    H224327   3.042   4.243  11.587  0.8315  3.5734 -2.5937
  946TIP3   OH224328   0.403   0.942  33.831  0.1173 -0.3086  0.2275
  946TIP3    H124329   0.461   0.925  33.905  0.5264 -1.0221 -0.2355
  946TIP3    H224330   0.321   0.898  33.854  0.7399 -1.8846 -0.3763
  947TIP3   OH224331   0.018   1.796   7.612  0.4794 -0.5384  0.1307
  947TIP3    H124332   0.081   1.728   7.586  0.3508 -0.4550 -0.4206
  947TIP3    H224333   0.068   1.877   7.611  0.5731 -0.5914  0.5457
  948TIP3   OH224334   2.602   0.477   9.607 -0.4899  0.0944  0.9399
  948TIP3    H124335   2.682   0.530   9.609 -0.9902  0.8201  1.8326
  948TIP3    H224336   2.619   0.413   9.537  0.8527  0.2562  1.0845
  949TIP3   OH224337   0.082   3.937  27.446  0.2941  0.3399 -0.1017
  949TIP3    H124338   0.073   3.851  27.487 -2.2147  0.7770  0.4153
  949TIP3    H224339  -0.008   3.967  27.433  0.9969  1.4365 -3.4594
  950TIP3   OH224340   4.296   0.435  35.505 -0.7326  0.6456 -0.6202
  950TIP3    H124341   4.223   0.449  35.565 -0.8772  0.2324 -0.6935
  950TIP3    H224342   4.317   0.342  35.514 -1.0323  0.4784 -1.5173
  951TIP3   OH224343   2.493   2.889  32.866  0.4616 -0.8517  0.6251
  951TIP3    H124344   2.460   2.964  32.817  0.3645 -1.2567  0.0576
  951TIP3    H224345   2.486   2.915  32.958 -0.7054 -0.6216  0.4897
  952TIP3   OH224346   3.253   4.122   8.808  0.3412 -0.1515 -0.5170
  952TIP3    H124347   3.233   4.216   8.807 -2.8507 -0.7106 -2.2332
  952TIP3    H224348   3.183   4.083   8.860  0.3863 -1.7682 -1.6077
  953TIP3   OH224349   3.911   1.436  10.499  0.1296  0.0402  0.5726
  953TIP3    H124350   3.945   1.347  10.504 -1.9014 -0.7698  0.4419
  953TIP3    H224351   3.926   1.461  10.407 -2.8740 -1.7254 -0.5319
  954TIP3   OH224352   0.350   2.469  31.335  0.6665  0.7293  0.0019
  954TIP3    H124353   0.389   2.393  31.292  0.6734 -1.1200  2.9408
  954TIP3    H224354   0.415   2.495  31.401 -0.8983  0.8273  1.5933
  955TIP3   OH224355   0.575   2.621  36.704  0.0140 -0.9452  0.1799
  955TIP3    H124356   0.611   2.621  36.615 -0.0333 -1.3299  0.1574
  955TIP3    H224357   0.536   2.708  36.714  1.5404 -0.2624  0.4458
  956TIP3   OH224358   4.310   3.277  34.170 -0.0892 -0.4265  0.5872
  956TIP3    H124359   4.294   3.267  34.076  1.2546  0.8979  0.1674
  956TIP3    H224360   4.310   3.187  34.204  2.4639 -1.2652 -1.2664
  957TIP3   OH224361   4.079   4.149  40.659 -0.7879 -0.1494  0.3763
  957TIP3    H124362   4.125   4.233  40.657 -0.3264 -0.3968  0.5858
  957TIP3    H224363   4.117   4.099  40.587  0.0992 -0.7846  1.2728
  958TIP3   OH224364   2.281   0.102   2.507 -0.6509  0.2519 -0.1496
  958TIP3    H124365   2.307   0.035   2.443 -3.4031 -0.7539 -0.3385
  958TIP3    H224366   2.301   0.185   2.464  2.2867 -0.3638 -0.1492
  959TIP3   OH224367   2.183   3.738  10.943 -0.1325  0.0501 -0.0459
  959TIP3    H124368   2.278   3.726  10.945 -0.2529 -1.2951 -1.1501
  959TIP3    H224369   2.166   3.786  10.862 -0.4769 -0.7751 -0.4788
  960TIP3   OH224370   2.688   3.620  13.186  0.0444 -0.0223 -0.0526
  960TIP3    H124371   2.758   3.558  13.163 -1.2540 -1.0498 -1.3804
  960TIP3    H224372   2.626   3.568  13.237 -0.3991  0.5273 -0.0316
  961TIP3   OH224373   4.037   1.091   2.021 -0.4848  0.1685  0.4776
  961TIP3    H124374   3.963   1.114   1.965  1.3923  0.1473 -2.2272
  961TIP3    H224375   4.016   1.004   2.054 -1.5429  0.0437 -0.4693
  962TIP3   OH224376   3.938   2.188  41.196 -0.1851  0.2375 -0.2007
  962TIP3    H124377   3.880   2.225  41.128 -0.4929 -2.6158 -1.6246
  962TIP3    H224378   4.024   2.224  41.176 -0.6909  1.3054 -0.5848
  963TIP3   OH224379   0.490   0.736  41.253 -0.2411  0.0846 -0.4305
  963TIP3    H124380   0.553   0.678  41.296  0.4802  0.9771 -0.2736
  963TIP3    H224381   0.500   0.718  41.160 -1.2962 -1.3250 -0.3235
  964TIP3   OH224382   3.724   0.479   8.038  0.6757  0.2864 -0.0169
  964TIP3    H124383   3.680   0.394   8.028  1.0385  0.0776  0.1500
  964TIP3    H224384   3.656   0.543   8.018  0.6207 -0.0611 -1.0140
  965TIP3   OH224385   1.774   4.051   2.226 -0.1851  0.6386  0.2060
  965TIP3    H124386   1.779   3.957   2.246  1.9578  0.5737 -0.4289
  965TIP3    H224387   1.751   4.092   2.310  1.2847 -0.2529  1.0760
  966TIP3   OH224388   1.368   1.660  35.535  0.2280 -0.1297  0.5696
  966TIP3    H124389   1.380   1.609  35.615  0.9225 -0.6451  0.1503
  966TIP3    H224390   1.349   1.749  35.566 -0.5555 -0.5349  1.3080
  967TIP3   OH224391   1.685   2.529  36.724  0.5147 -0.2372 -0.3425
  967TIP3    H124392   1.616   2.472  36.690  0.9815 -1.2281  0.3515
  967TIP3    H224393   1.755   2.524  36.659  0.4668 -0.2807 -0.3906
  968TIP3   OH224394   0.237   2.107  28.649 -0.0097  0.3615 -0.3554
  968TIP3    H124395   0.307   2.136  28.707  0.9645 -1.3788 -0.5902
  968TIP3    H224396   0.203   2.028  28.690  0.5488 -0.7916 -1.9697
  969TIP3   OH224397   3.224   0.070  32.130  0.1926  0.1302  0.0444
  969TIP3    H124398   3.179   0.146  32.166 -0.4379 -0.8854  1.4830
  969TIP3    H224399   3.316   0.082  32.156  0.3191  0.9732 -0.7645
  970TIP3   OH224400   0.575   0.864  34.375  0.1021  0.2917  0.1199
  970TIP3    H124401   0.542   0.789  34.324  1.4905  0.1927 -0.6913
  970TIP3    H224402   0.554   0.843  34.466 -3.0149  0.7506 -0.3716
  971TIP3   OH224403   0.410   3.435   1.943 -0.4477 -0.1866 -0.1102
  971TIP3    H124404   0.400   3.466   1.854 -2.2302  1.1626  0.4975
  971TIP3    H224405   0.384   3.509   1.998 -0.2397 -1.2549  1.5112
  972TIP3   OH224406   2.311   2.831   2.627 -0.4260  0.1465  0.3500
  972TIP3    H124407   2.370   2.901   2.654 -0.8608  0.8574 -0.4993
  972TIP3    H224408   2.355   2.790   2.552  0.4971 -1.4350  1.6942
  973TIP3   OH224409   0.956   1.704   2.654 -0.9146 -0.0993 -0.0625
  973TIP3    H124410   1.042   1.708   2.613  0.5671  1.4223  2.8484
  973TIP3    H224411   0.945   1.613   2.679  1.2006  0.0956  1.9017
  974TIP3   OH224412   2.339   4.081  40.302 -0.3048 -0.1201 -0.6644
  974TIP3    H124413   2.244   4.079  40.312 -0.3511  1.3022 -0.6201
  974TIP3    H224414   2.368   4.150  40.361  0.6514  0.1440 -1.4104
  975TIP3   OH224415   2.364   1.038  28.646  0.0083  0.3063  0.3223
  975TIP3    H124416   2.409   1.007  28.724  0.7093  1.1301  0.2537
  975TIP3    H224417   2.411   0.997  28.573  1.9729  2.6889  0.1426
  976TIP3   OH224418   1.685   0.757   9.516  0.3485  0.8973  0.2062
  976TIP3    H124419   1.737   0.826   9.474  0.3351  0.7989  0.0268
  976TIP3    H224420   1.597   0.794   9.520  0.5649  1.3387  1.1363
  977TIP3   OH224421   4.022   2.867  37.298 -0.3058  0.4540 -0.2194
  977TIP3    H124422   4.058   2.935  37.242 -0.3492  0.2866 -0.4509
  977TIP3    H224423   3.944   2.905  37.337 -1.5338 -0.1653 -1.9699
  978TIP3   OH224424   2.390   3.884  30.232  0.2372 -0.3421  0.1211
  978TIP3    H124425   2.355   3.946  30.296  0.2363  0.0868 -0.2883
  978TIP3    H224426   2.461   3.931  30.189  0.0708 -0.5292 -0.3719
  979TIP3   OH224427   1.938   0.169   4.972  0.0217  0.4956 -0.0141
  979TIP3    H124428   1.912   0.091   4.923  3.3865  0.1974 -1.5326
  979TIP3    H224429   1.929   0.241   4.910  2.1374  0.4587 -0.4047
  980TIP3   OH224430   3.422   3.357  34.817 -0.1312 -0.1087 -0.5148
  980TIP3    H124431   3.441   3.395  34.903  0.9094 -0.2289 -0.6780
  980TIP3    H224432   3.501   3.374  34.765 -0.3136 -1.0000 -1.1103
  981TIP3   OH224433   4.283   0.515  12.296  0.0492 -0.3684  0.5576
  981TIP3    H124434   4.311   0.573  12.225  0.7505 -1.2213  0.1148
  981TIP3    H224435   4.223   0.568  12.349 -0.0810  0.4397 -0.3833
  982TIP3   OH224436   0.315   4.306  26.441 -0.3614  0.2457 -0.1745
  982TIP3    H124437   0.274   4.230  26.400  0.3941  0.5137 -1.4885
  982TIP3    H224438   0.399   4.315  26.396  0.1314  1.0889  0.8583
  983TIP3   OH224439   0.170   3.365  11.462  0.4279 -0.1314  0.5551
  983TIP3    H124440   0.255   3.339  11.427  2.1661  2.6098  2.3058
  983TIP3    H224441   0.129   3.415  11.392 -0.2803 -2.2850 -0.6539
  984TIP3   OH224442   0.339   0.704   8.069  0.0209 -0.3713 -0.2742
  984TIP3    H124443   0.262   0.651   8.091  1.2287 -2.5730 -1.0332
  984TIP3    H224444   0.407   0.640   8.047  1.5879  1.5209 -1.2925
  985TIP3   OH224445   0.924   1.623  27.891 -0.9908 -0.0352  0.3465
  985TIP3    H124446   0.995   1.663  27.841  0.8780 -1.3735  1.8436
  985TIP3    H224447   0.844   1.655  27.847  0.4668  1.7711 -1.1804
  986TIP3   OH224448   1.164   3.075  12.931 -0.0488  0.0418  0.0669
  986TIP3    H124449   1.218   3.007  12.890 -2.0663 -2.0214  0.6142
  986TIP3    H224450   1.095   3.026  12.975 -1.0519  2.4610  1.3156
  987TIP3   OH224451   1.790   2.175  37.358 -0.1514  0.3330 -0.1557
  987TIP3    H124452   1.880   2.158  37.386 -0.3121 -0.3124 -0.0039
  987TIP3    H224453   1.739   2.169  37.439 -0.3039  0.9145 -0.2087
  988TIP3   OH224454   2.058   3.319   5.071 -0.4757 -0.1419 -0.0530
  988TIP3    H124455   2.088   3.343   4.983 -2.4926 -0.6591 -0.9434
  988TIP3    H224456   2.008   3.395   5.100 -0.3124 -0.2128  0.4243
  989TIP3   OH224457   0.599   0.760   4.452 -0.2001  0.0952  0.1883
  989TIP3    H124458   0.677   0.705   4.443 -0.3927 -0.0765 -0.4948
  989TIP3    H224459   0.532   0.701   4.487  0.3914  0.6250  2.3604
  990TIP3   OH224460   3.354   1.470  31.277  0.3972  0.0091 -0.2028
  990TIP3    H124461   3.263   1.475  31.248 -0.2429  2.8154  1.8137
  990TIP3    H224462   3.406   1.497  31.201 -0.3373 -2.1022 -1.5236
  991TIP3   OH224463   0.263   0.812  28.743  0.4878 -0.7522  0.3239
  991TIP3    H124464   0.242   0.895  28.784  1.5659 -0.1302 -0.3403
  991TIP3    H224465   0.356   0.797  28.763  0.5168 -1.4002 -0.2226
  992TIP3   OH224466   4.195   3.165  30.327  0.5346  0.1131 -0.1216
  992TIP3    H124467   4.157   3.245  30.290  1.7290  0.3081 -1.0069
  992TIP3    H224468   4.289   3.173  30.310  0.8856 -0.7285  1.2520
  993TIP3   OH224469   4.239   4.347  29.714 -0.0768  0.3524  0.0094
  993TIP3    H124470   4.175   4.391  29.770 -1.0725 -0.8358 -0.1616
  993TIP3    H224471   4.323   4.359  29.759 -0.9058 -0.9300  2.0018
  994TIP3   OH224472   3.077   1.083   4.596 -0.4529  0.5763 -0.1989
  994TIP3    H124473   3.168   1.091   4.624 -0.4594 -0.3653  0.1050
  994TIP3    H224474   3.027   1.118   4.670 -0.4383 -1.3065  0.7660
  995TIP3   OH224475   2.082   2.174  39.021  0.0563  0.3586 -0.5717
  995TIP3    H124476   2.177   2.174  39.011  0.2082 -0.6272  0.5978
  995TIP3    H224477   2.050   2.219  38.942  1.4671  0.5422 -1.0817
  996TIP3   OH224478   2.023   0.387   3.701 -0.2921  0.0901 -0.1373
  996TIP3    H124479   2.085   0.355   3.767  0.0508 -2.0664 -1.4093
  996TIP3    H224480   1.945   0.331   3.713 -0.6324  0.4008 -0.8423
  997TIP3   OH224481   0.502   0.249   9.173  0.3904  0.0419  0.0884
  997TIP3    H124482   0.593   0.254   9.144  0.6554  1.1180  1.0121
  997TIP3    H224483   0.503   0.289   9.260 -0.8204 -0.7194  0.4799
  998TIP3   OH224484   0.252   2.032  34.757 -0.2351 -0.2189  0.7610
  998TIP3    H124485   0.327   2.091  34.749  0.6045 -1.1906  1.0321
  998TIP3    H224486   0.287   1.957  34.806 -1.8098 -0.0100  2.2997
  999TIP3   OH224487   1.807   1.217  30.830 -0.5539 -0.3849 -0.8927
  999TIP3    H124488   1.878   1.275  30.801  0.4770 -0.3673  1.4465
  999TIP3    H224489   1.738   1.228  30.765  1.6829 -0.6497 -3.5009
 1000TIP3   OH224490   1.828   1.152  39.265  0.5748  0.5057  0.1003
 1000TIP3    H124491   1.836   1.243  39.295  2.2578  0.2936  0.3864
 1000TIP3    H224492   1.919   1.122  39.254  0.0467 -0.6342 -1.5610
 1001TIP3   OH224493   3.909   0.193  37.807 -0.3672  0.4361 -0.0040
 1001TIP3    H124494   3.879   0.251  37.877  2.4502  2.4141 -0.2633
 1001TIP3    H224495   3.931   0.111  37.853  0.3814  1.3171  1.2774
 1002TIP3   OH224496   2.274   3.288  18.391  0.0081  0.1469 -0.1294
 1002TIP3    H124497   2.337   3.310  18.322 -0.1355 -0.2241 -0.3813
 1002TIP3    H224498   2.306   3.205  18.427  0.3786  0.6049  0.6114
 1003TIP3   OH224499   3.286   4.073  30.882  0.1061 -0.4620  0.4365
 1003TIP3    H124500   3.321   3.988  30.857 -0.4903 -0.9530  1.2335
 1003TIP3    H224501   3.363   4.123  30.910  0.3006 -1.1621  1.1629
 1004TIP3   OH224502   4.217   1.170   3.958 -0.7246 -0.1333 -0.2388
 1004TIP3    H124503   4.247   1.085   3.991 -2.0182 -0.6834 -0.4157
 1004TIP3    H224504   4.241   1.170   3.866 -0.6996 -0.3097 -0.2331
 1005TIP3   OH224505   3.870   2.475  24.441 -0.0587 -0.0382  0.7033
 1005TIP3    H124506   3.873   2.470  24.536  1.2637 -0.6552  0.6466
 1005TIP3    H224507   3.951   2.433  24.412 -1.0875 -1.1255 -0.7339
 1006TIP3   OH224508   0.120   2.118   0.618  0.1353  0.0333  0.2300
 1006TIP3    H124509   0.117   2.047   0.681 -1.2488  0.4758  0.7041
 1006TIP3    H224510   0.067   2.188   0.657 -0.9786  0.2283 -1.5059
 1007TIP3   OH224511   4.221   2.234  29.311 -0.2444 -0.0818 -0.1131
 1007TIP3    H124512   4.201   2.227  29.218 -1.4140 -2.2625  0.2467
 1007TIP3    H224513   4.136   2.222  29.354  0.7215 -2.4037  1.2984
 1008TIP3   OH224514   1.276   0.254  18.410  0.2425  0.0232  0.1040
 1008TIP3    H124515   1.230   0.194  18.469  0.2356  0.6318  0.7249
 1008TIP3    H224516   1.240   0.233  18.324  1.3180 -1.9078  0.0496
 1009TIP3   OH224517   3.745   3.375  12.065 -0.5701  0.4274 -0.1217
 1009TIP3    H124518   3.728   3.434  11.992 -0.4302  1.0618  0.3475
 1009TIP3    H224519   3.758   3.433  12.140 -1.0438 -0.2253  0.4741
 1010TIP3   OH224520   0.686   3.062   6.616  0.7526  0.4045  0.0882
 1010TIP3    H124521   0.742   3.127   6.573 -0.0749  0.8182 -0.3922
 1010TIP3    H224522   0.728   2.978   6.597  0.4478  0.5766 -1.4867
 1011TIP3   OH224523   0.272   2.885  10.335  0.5130  0.1272 -0.2457
 1011TIP3    H124524   0.303   2.833  10.410 -0.5425 -0.2772 -0.0763
 1011TIP3    H224525   0.301   2.974  10.353  0.9801 -0.1216  0.2382
 1012TIP3   OH224526   1.523   1.337  36.271 -0.3071 -0.6800  0.5010
 1012TIP3    H124527   1.607   1.330  36.226  0.1085  0.1447  1.1198
 1012TIP3    H224528   1.517   1.259  36.325 -0.6207 -1.4737 -0.6438
 1013TIP3   OH224529   2.630   1.049  37.373 -0.3594 -0.1387 -0.2417
 1013TIP3    H124530   2.665   1.134  37.400  0.7435 -1.0375  1.3332
 1013TIP3    H224531   2.624   0.999  37.454 -1.7149 -1.3211 -1.0325
 1014TIP3   OH224532   1.436   2.032  26.824  0.0955  0.1014  0.0272
 1014TIP3    H124533   1.422   2.119  26.862 -0.4973 -0.9978  2.4641
 1014TIP3    H224534   1.348   1.993  26.821  0.2441 -0.2125 -1.7133
 1015TIP3   OH224535   2.522   0.138   2.899  0.1800 -0.4465  0.3288
 1015TIP3    H124536   2.610   0.155   2.933 -0.3258 -3.3816  3.6371
 1015TIP3    H224537   2.533   0.064   2.840  0.0225 -0.1513 -0.0777
 1016TIP3   OH224538   0.622   1.590  27.188  0.3838  0.6537  0.3232
 1016TIP3    H124539   0.694   1.643  27.223  0.7187  1.1218 -1.0435
 1016TIP3    H224540   0.586   1.546  27.265  1.0185  1.7508  1.2825
 1017TIP3   OH224541   0.931   1.817  14.063  0.1972 -0.2382  0.3305
 1017TIP3    H124542   0.913   1.752  14.131 -0.5365  0.0056  0.3795
 1017TIP3    H224543   0.929   1.901  14.109 -0.9520 -0.0169 -0.0969
 1018TIP3   OH224544   3.644   1.206   0.507 -0.1390  0.4370  0.3793
 1018TIP3    H124545   3.549   1.219   0.506 -0.2834 -0.5643 -0.0392
 1018TIP3    H224546   3.677   1.267   0.441 -0.4236  1.1697  0.8971
 1019TIP3   OH224547   0.395   3.118  22.259 -0.1230  0.5204  0.3288
 1019TIP3    H124548   0.460   3.073  22.206 -1.0995 -0.7789  0.1763
 1019TIP3    H224549   0.434   3.202  22.280  1.5350 -0.1718  0.1226
 1020TIP3   OH224550   4.213   3.932  11.218 -0.0126  0.7504 -0.0061
 1020TIP3    H124551   4.248   3.903  11.134 -0.0719  1.5340 -0.3006
 1020TIP3    H224552   4.241   3.864  11.280  1.3479  0.9448 -0.3747
 1021TIP3   OH224553   0.765   2.297  39.674  0.8138 -0.4628  0.2894
 1021TIP3    H124554   0.785   2.204  39.685  0.1050 -0.6276  0.2410
 1021TIP3    H224555   0.728   2.304  39.586 -0.7769 -0.4354  0.9266
 1022TIP3   OH224556   3.373   1.590  38.623  0.2253  0.6404 -0.2243
 1022TIP3    H124557   3.297   1.647  38.635 -0.0041 -0.1917  3.4837
 1022TIP3    H224558   3.448   1.648  38.634  0.0345  0.8036  0.2750
 1023TIP3   OH224559   0.397   1.645  35.005  0.0906 -0.0396  0.0584
 1023TIP3    H124560   0.470   1.675  35.060  0.6712  1.9231 -1.6433
 1023TIP3    H224561   0.369   1.563  35.045 -0.0609  1.6075  3.7020
 1024TIP3   OH224562   2.967   2.965  34.537  0.0705 -0.6163  0.3652
 1024TIP3    H124563   2.973   3.060  34.539 -0.2333 -0.5976  0.9315
 1024TIP3    H224564   2.987   2.941  34.447 -0.3199  0.0195  0.0983
 1025TIP3   OH224565   1.922   2.029  27.772 -0.0209 -0.0225  0.3833
 1025TIP3    H124566   1.982   1.956  27.787  2.9439  1.6873 -1.9491
 1025TIP3    H224567   1.959   2.101  27.824 -0.4594  0.8810 -0.5129
 1026TIP3   OH224568   0.837   0.348   5.615  0.4915  0.3959  0.0193
 1026TIP3    H124569   0.881   0.418   5.663  0.7394 -0.3312  0.8794
 1026TIP3    H224570   0.751   0.340   5.657  0.8099 -0.4225  0.5216
 1027TIP3   OH224571   2.405   4.333   5.921 -0.2110  0.0674  0.0968
 1027TIP3    H124572   2.430   4.425   5.933 -1.7791  0.7735 -1.5006
 1027TIP3    H224573   2.330   4.321   5.979 -0.6819  0.1195 -0.4987
 1028TIP3   OH224574   0.633   0.369   2.321  0.0739  0.4213 -0.2419
 1028TIP3    H124575   0.648   0.396   2.231 -1.9457  0.0560 -0.7509
 1028TIP3    H224576   0.575   0.437   2.357  0.4761  0.3122  0.6283
 1029TIP3   OH224577   0.525   2.754  13.019  0.3680 -0.6055 -0.2247
 1029TIP3    H124578   0.545   2.846  13.036 -1.0368 -0.0461 -1.4122
 1029TIP3    H224579   0.499   2.719  13.104  2.2619 -0.3080  0.5187
 1030TIP3   OH224580   0.271   2.791  29.601  0.4701 -0.5153  0.0308
 1030TIP3    H124581   0.224   2.717  29.563  1.8890 -1.2485 -0.3472
 1030TIP3    H224582   0.221   2.813  29.680 -0.1462 -1.6733 -0.0154
 1031TIP3   OH224583   3.158   2.564  27.752  0.1898 -0.2623  0.5570
 1031TIP3    H124584   3.252   2.554  27.762  0.2645  1.0245  1.4284
 1031TIP3    H224585   3.135   2.634  27.814 -1.0627  0.6495 -0.8735
 1032TIP3   OH224586   1.469   1.635   3.697 -0.2529  0.9235 -0.0941
 1032TIP3    H124587   1.470   1.619   3.603  1.6585  0.2097 -0.0098
 1032TIP3    H224588   1.381   1.668   3.716 -1.6045 -1.4187 -1.7159
 1033TIP3   OH224589   1.422   2.769   4.586  0.4452  0.4933  0.1686
 1033TIP3    H124590   1.448   2.703   4.521  0.0850  0.2568  0.2640
 1033TIP3    H224591   1.504   2.811   4.611  0.6238  0.3864 -0.2224
 1034TIP3   OH224592   0.709   3.140  36.258 -0.0042  0.1945  0.0530
 1034TIP3    H124593   0.769   3.169  36.190 -1.9874  0.9312 -1.4661
 1034TIP3    H224594   0.727   3.046  36.268  0.2500  0.0409 -1.5793
 1035TIP3   OH224595   3.657   3.637   3.477 -0.5131  0.1129  0.1519
 1035TIP3    H124596   3.747   3.641   3.507 -0.1873  1.1628 -0.8803
 1035TIP3    H224597   3.632   3.545   3.486  0.7332 -0.2272  0.2479
 1036TIP3   OH224598   0.945   3.123  38.844 -0.2137  0.2918  0.1844
 1036TIP3    H124599   0.882   3.083  38.903  0.4600  0.8014  1.2661
 1036TIP3    H224600   0.945   3.216  38.866  1.4149  0.2018  0.7081
 1037TIP3   OH224601   2.564   1.577  30.807  0.0606  0.2357  0.9288
 1037TIP3    H124602   2.534   1.585  30.897  1.0995  1.5766  1.1986
 1037TIP3    H224603   2.648   1.625  30.805  0.2279 -0.0545 -0.6564
 1038TIP3   OH224604   3.350   1.402   6.281  0.1649  0.3413 -0.2035
 1038TIP3    H124605   3.413   1.402   6.353 -0.9584 -1.3248  0.8533
 1038TIP3    H224606   3.276   1.452   6.314 -1.2570 -2.2137  0.7479
 1039TIP3   OH224607   0.656   0.189  32.239  0.0202 -0.0077 -0.2239
 1039TIP3    H124608   0.563   0.205  32.222 -0.3044 -0.9319  0.6567
 1039TIP3    H224609   0.685   0.266  32.287 -0.4110  0.0489 -0.0548
 1040TIP3   OH224610   1.432   4.388  35.645 -0.0469 -0.1346  0.1194
 1040TIP3    H124611   1.449   4.305  35.601 -1.7464  0.3446 -1.5689
 1040TIP3    H224612   1.338   4.386  35.665 -0.0718  1.2797  0.2523
 1041TIP3   OH224613   2.260   1.712  27.980 -0.4648 -0.3982 -0.3760
 1041TIP3    H124614   2.324   1.779  28.007  0.7158 -0.7441 -2.1641
 1041TIP3    H224615   2.264   1.646  28.049  0.5485 -0.0397 -0.0779
 1042TIP3   OH224616   3.782   0.751  28.413 -0.2971 -0.1211 -0.1746
 1042TIP3    H124617   3.764   0.825  28.471  2.4078 -1.7741  3.1448
 1042TIP3    H224618   3.811   0.791  28.331 -2.8570  2.3589 -0.0231
 1043TIP3   OH224619   3.071   0.060   7.065 -0.2639 -0.2551  0.3620
 1043TIP3    H124620   3.103   0.048   6.976  1.9769 -2.2643  1.3263
 1043TIP3    H224621   3.088   0.152   7.084  0.4303 -0.1133 -0.8405
 1044TIP3   OH224622   3.437   2.301  33.757 -0.0822 -0.2889 -0.0647
 1044TIP3    H124623   3.357   2.353  33.750  0.5206  0.7712  0.6743
 1044TIP3    H224624   3.424   2.247  33.835  1.1557  2.2018  2.0017
 1045TIP3   OH224625   4.042   3.674  30.639 -0.3943  0.6453  0.4477
 1045TIP3    H124626   3.998   3.592  30.618  0.3842  0.6665 -1.5600
 1045TIP3    H224627   4.133   3.659  30.613 -0.3475  2.2870 -0.4915
 1046TIP3   OH224628   1.312   3.719  41.335  0.0578 -0.2408  0.0599
 1046TIP3    H124629   1.234   3.668  41.314 -0.4503  0.6700 -0.3321
 1046TIP3    H224630   1.318   3.715  41.430 -0.4627 -0.3315  0.0921
 1047TIP3   OH224631   2.870   1.431  28.931 -0.4127 -0.2686 -0.0614
 1047TIP3    H124632   2.960   1.433  28.897 -0.3373 -2.2087 -0.0945
 1047TIP3    H224633   2.817   1.463  28.858  0.0197 -1.7671 -1.0975
 1048TIP3   OH224634   3.918   0.476  24.209 -0.0713  0.3069 -0.7862
 1048TIP3    H124635   4.007   0.492  24.240 -0.3593 -2.0165  1.6927
 1048TIP3    H224636   3.867   0.551  24.240  0.4563  0.0254  0.8595
 1049TIP3   OH224637   3.048   2.687   8.563  0.9552 -0.2820  0.4626
 1049TIP3    H124638   3.094   2.718   8.485  0.3911 -0.8098 -0.0995
 1049TIP3    H224639   2.967   2.739   8.565 -0.0268 -1.6758 -0.5217
 1050TIP3   OH224640   0.781   0.203   9.146  0.6553  0.1212 -0.1166
 1050TIP3    H124641   0.826   0.214   9.230  0.2241 -3.2210  0.6921
 1050TIP3    H224642   0.792   0.110   9.125  0.0166  0.6585 -3.3856
 1051TIP3   OH224643   3.401   3.472  28.459  0.2423  0.0801 -0.3634
 1051TIP3    H124644   3.469   3.536  28.438  1.7753 -1.0938  0.7644
 1051TIP3    H224645   3.366   3.445  28.375 -0.1023  2.0051 -0.8901
 1052TIP3   OH224646   2.364   0.974  17.779  0.5112 -0.1947  0.0298
 1052TIP3    H124647   2.408   1.032  17.717 -0.2021  0.0341 -0.2791
 1052TIP3    H224648   2.301   0.926  17.725  0.6442 -0.7912  0.3967
 1053TIP3   OH224649   4.253   2.515  30.951  0.2066  0.2515 -0.1531
 1053TIP3    H124650   4.257   2.607  30.923 -2.8956  0.0917 -1.5337
 1053TIP3    H224651   4.207   2.518  31.035  1.2628  0.0270  0.4443
 1054TIP3   OH224652   2.835   2.862   3.833  0.0834 -0.0780  0.4661
 1054TIP3    H124653   2.838   2.794   3.900  0.2643  0.7798  1.3363
 1054TIP3    H224654   2.889   2.827   3.762  0.9997 -0.4128  1.3079
 1055TIP3   OH224655   3.392   1.186  12.961  0.0551  0.1929 -0.1181
 1055TIP3    H124656   3.379   1.191  13.055 -3.8904 -0.6302 -0.4525
 1055TIP3    H224657   3.391   1.277  12.931  1.9432  0.4937  0.6081
 1056TIP3   OH224658   0.120   2.635   7.583 -0.6843 -0.0028  0.2280
 1056TIP3    H124659   0.044   2.576   7.580  1.1161 -2.4896 -0.6846
 1056TIP3    H224660   0.150   2.630   7.674 -0.0261 -1.3196 -0.0288
 1057TIP3   OH224661   0.180   2.309   9.012 -0.0360 -0.1033 -0.2379
 1057TIP3    H124662   0.196   2.222   8.975 -1.5775 -0.5012 -0.0515
 1057TIP3    H224663   0.265   2.353   9.009  0.9354 -1.8595  0.3074
 1058TIP3   OH224664   1.701   1.848   9.424 -0.0886  0.2919  0.2572
 1058TIP3    H124665   1.643   1.899   9.481  0.8592  1.3125  0.3367
 1058TIP3    H224666   1.702   1.761   9.464 -0.9657  0.4570  0.6807
 1059TIP3   OH224667   0.087   1.050   9.936 -0.1380 -0.2943  0.6093
 1059TIP3    H124668   0.059   1.081  10.022 -0.6518  2.0114 -0.3040
 1059TIP3    H224669   0.016   0.992   9.907 -1.8094  1.7621  0.3051
 1060TIP3   OH224670   4.155   3.815  30.866 -0.4431  0.2450 -0.5852
 1060TIP3    H124671   4.065   3.791  30.844 -0.0630 -3.1873  0.9784
 1060TIP3    H224672   4.209   3.770  30.801  0.2275  0.6712 -0.3344
 1061TIP3   OH224673   2.964   4.356  33.344 -0.1082  0.2193  0.1991
 1061TIP3    H124674   2.954   4.317  33.257  0.0357 -1.3138  0.8365
 1061TIP3    H224675   3.041   4.412  33.336  1.5070 -1.9175 -0.0173
 1062TIP3   OH224676   0.708   3.043  11.497  0.1156  0.2847 -0.5670
 1062TIP3    H124677   0.707   3.028  11.591  0.9125  0.8921 -0.4544
 1062TIP3    H224678   0.800   3.042  11.473  0.2391  3.5231 -0.7546
 1063TIP3   OH224679   1.817   3.578  16.258 -0.1575  0.6555  0.1384
 1063TIP3    H124680   1.894   3.634  16.266  0.7736 -0.4076 -0.8404
 1063TIP3    H224681   1.742   3.638  16.262  0.7043  1.6880  1.3037
 1064TIP3   OH224682   2.354   2.234  37.079  0.3468  0.3442 -0.2965
 1064TIP3    H124683   2.399   2.151  37.064  1.5443  0.9735 -0.3675
 1064TIP3    H224684   2.386   2.264  37.164  0.2052  0.8954 -0.4329
 1065TIP3   OH224685   4.150   3.670  28.416 -0.9514 -0.2413 -0.2007
 1065TIP3    H124686   4.138   3.746  28.473 -1.1330  0.5127 -1.2112
 1065TIP3    H224687   4.163   3.707  28.329  3.0299 -1.1589 -0.2090
 1066TIP3   OH224688   3.098   0.915  36.268  0.0497 -0.2559 -0.8078
 1066TIP3    H124689   3.128   0.943  36.354  0.3461 -3.2836  0.1984
 1066TIP3    H224690   3.004   0.905  36.277  0.2456 -1.9784 -0.3134
 1067TIP3   OH224691   1.368   1.961  40.833  0.0904 -0.5781  0.2949
 1067TIP3    H124692   1.443   1.925  40.786  0.6900 -1.4904  1.8547
 1067TIP3    H224693   1.302   1.977  40.766  1.5057 -0.2000 -1.0419
 1068TIP3   OH224694   3.391   2.039  12.158  0.2866 -0.5750 -0.3831
 1068TIP3    H124695   3.314   2.027  12.103  1.0946 -2.2718 -1.1997
 1068TIP3    H224696   3.357   2.036  12.248 -0.8471  0.8183 -0.7284
 1069TIP3   OH224697   3.713   2.082  35.960 -0.6655  0.3305 -0.3254
 1069TIP3    H124698   3.808   2.081  35.948 -0.8206 -0.5513 -1.6898
 1069TIP3    H224699   3.693   2.000  36.005 -0.6806  1.1207  1.1977
 1070TIP3   OH224700   1.106   0.237  31.915  0.0297  0.5333 -0.0276
 1070TIP3    H124701   1.071   0.148  31.916  1.1017  0.1022  0.9177
 1070TIP3    H224702   1.031   0.292  31.892 -0.3697 -0.7087 -1.9225
 1071TIP3   OH224703   3.968   3.005  11.535  0.0835 -0.0961 -0.2009
 1071TIP3    H124704   3.903   2.966  11.475 -0.5491  0.1140  0.3359
 1071TIP3    H224705   4.022   2.931  11.562 -0.4500 -0.4317 -0.0215
 1072TIP3   OH224706   1.779   3.806  16.538  0.9046 -0.3319 -0.1751
 1072TIP3    H124707   1.750   3.776  16.452 -2.1280 -0.1048  0.6529
 1072TIP3    H224708   1.851   3.748  16.560  0.7050 -1.4373 -2.2000
 1073TIP3   OH224709   1.469   3.873   6.060  0.5838  0.4471 -0.1112
 1073TIP3    H124710   1.547   3.860   6.006 -0.8478  2.8093 -3.0843
 1073TIP3    H224711   1.401   3.822   6.016 -0.4883  1.9341 -0.2587
 1074TIP3   OH224712   3.015   3.628  29.892 -0.3442 -0.7231 -0.2530
 1074TIP3    H124713   2.984   3.578  29.817  1.4199 -1.9823 -0.1983
 1074TIP3    H224714   3.004   3.568  29.966  1.3173 -0.8895 -0.1068
 1075TIP3   OH224715   1.983   3.661  38.674 -0.3879  0.4280  0.9524
 1075TIP3    H124716   1.988   3.749  38.711 -0.0916 -0.3934  3.0662
 1075TIP3    H224717   2.064   3.619  38.702  0.1922 -0.0777 -1.3408
 1076TIP3   OH224718   3.608   2.371   5.944  0.1300  0.0776  0.3787
 1076TIP3    H124719   3.590   2.459   5.976  0.1747  0.3258 -0.2575
 1076TIP3    H224720   3.524   2.325   5.951  0.0425  0.2517  0.4695
 1077TIP3   OH224721   4.364   2.497  24.322  0.7461 -0.4036  0.1630
 1077TIP3    H124722   4.387   2.423  24.266 -0.4317 -1.1150  0.5678
 1077TIP3    H224723   4.333   2.564  24.261  1.7688 -0.2446 -0.2044
 1078TIP3   OH224724   3.293   1.035  28.378  0.1516 -0.1248 -0.1500
 1078TIP3    H124725   3.206   1.025  28.337  0.0144  0.2454  0.0474
 1078TIP3    H224726   3.347   0.971  28.333 -0.3288 -0.6553  0.0138
 1079TIP3   OH224727   1.208   2.498  31.118 -0.1157 -0.1190  0.0415
 1079TIP3    H124728   1.282   2.504  31.179 -0.0779  1.4335 -0.1218
 1079TIP3    H224729   1.248   2.500  31.031 -0.3672  3.2068 -0.1254
 1080TIP3   OH224730   0.490   3.214  35.130  0.3949  0.3184  0.2253
 1080TIP3    H124731   0.551   3.144  35.154  0.5693 -0.4876 -2.2414
 1080TIP3    H224732   0.529   3.253  35.051 -2.1665 -0.1590 -1.3949
 1081TIP3   OH224733   0.851   1.507  38.128 -0.1730 -0.2506  0.0402
 1081TIP3    H124734   0.795   1.562  38.073  2.5320  0.7809 -1.9262
 1081TIP3    H224735   0.851   1.550  38.213 -1.6322  0.1871 -0.1519
 1082TIP3   OH224736   4.015   1.374   7.333 -0.1777 -0.5920  0.3886
 1082TIP3    H124737   3.942   1.391   7.273  0.1397 -1.6341 -0.3104
 1082TIP3    H224738   3.990   1.294   7.380  0.9913 -1.6214 -0.6690
 1083TIP3   OH224739   3.926   2.167  35.241  0.7847 -1.1466  0.0492
 1083TIP3    H124740   3.850   2.202  35.287  2.0052  0.5743  0.8422
 1083TIP3    H224741   3.977   2.123  35.309  1.1094 -1.2359 -0.2443
 1084TIP3   OH224742   4.088   2.211  26.765  0.4237  0.1583  0.1297
 1084TIP3    H124743   4.000   2.238  26.789  0.4183 -0.3907  0.7311
 1084TIP3    H224744   4.098   2.240  26.674 -0.1711  0.7094  0.2388
 1085TIP3   OH224745   1.908   1.760  37.228 -0.3620  0.2394 -0.2683
 1085TIP3    H124746   1.979   1.715  37.273 -1.7123  0.0483  1.7828
 1085TIP3    H224747   1.894   1.709  37.148  1.8906  0.4076 -0.8289
 1086TIP3   OH224748   1.856   3.482  34.550 -0.2661 -0.3698  0.2057
 1086TIP3    H124749   1.909   3.458  34.474 -0.1997  1.5424 -0.4105
 1086TIP3    H224750   1.906   3.550  34.594 -1.0653 -0.2991  1.0356
 1087TIP3   OH224751   2.151   0.246  40.091  0.2283  0.4751 -0.3489
 1087TIP3    H124752   2.075   0.209  40.047  0.6873 -1.1260  0.1303
 1087TIP3    H224753   2.205   0.282  40.020  1.1927 -2.4893 -1.2703
 1088TIP3   OH224754   1.499   0.799  15.555 -0.1702 -0.1160 -0.1304
 1088TIP3    H124755   1.563   0.734  15.584 -0.6354 -0.6205 -0.2145
 1088TIP3    H224756   1.543   0.883  15.568  0.9129 -0.4883 -1.1699
 1089TIP3   OH224757   3.094   0.464  38.253 -0.3364 -0.1605  0.0434
 1089TIP3    H124758   3.059   0.409  38.183  0.3490 -0.6200  0.0521
 1089TIP3    H224759   3.017   0.510  38.288 -1.1039 -1.9005  0.7410
 1090TIP3   OH224760   3.596   4.309  29.110  0.0330 -0.2401  0.2393
 1090TIP3    H124761   3.641   4.368  29.050  0.2924  1.4006  1.9647
 1090TIP3    H224762   3.656   4.299  29.184 -0.4344 -1.9104  0.4312
 1091TIP3   OH224763   1.980   1.024   0.933 -0.0730 -0.0883 -0.0205
 1091TIP3    H124764   1.947   0.940   0.903  1.1526 -0.0857 -1.5056
 1091TIP3    H224765   1.986   1.078   0.854 -1.1464  1.5336  0.9394
 1092TIP3   OH224766   2.699   2.233  35.604 -0.2032  0.0071 -0.1968
 1092TIP3    H124767   2.608   2.255  35.625  0.0327 -0.5025  1.5523
 1092TIP3    H224768   2.732   2.190  35.683  1.2533 -0.7836 -1.1905
 1093TIP3   OH224769   3.817   4.120  36.472  0.1325 -0.2359  0.2288
 1093TIP3    H124770   3.782   4.030  36.472 -2.1182  0.5458  1.5478
 1093TIP3    H224771   3.877   4.122  36.546  0.8303 -0.8530 -0.3048
 1094TIP3   OH224772   2.728   0.847  40.640 -0.1316 -0.2317 -0.0216
 1094TIP3    H124773   2.734   0.810  40.552 -2.3114  0.4520 -0.5311
 1094TIP3    H224774   2.652   0.804  40.679 -0.5289  1.0571  0.6981
 1095TIP3   OH224775   0.218   3.179  27.391  0.3697  0.5044  0.4169
 1095TIP3    H124776   0.266   3.261  27.404  1.6768 -0.5046  2.5659
 1095TIP3    H224777   0.273   3.129  27.332  0.9226  0.1982  1.1669
 1096TIP3   OH224778   0.956   3.370  35.363 -0.1009 -0.2933  0.1602
 1096TIP3    H124779   0.933   3.361  35.456 -0.1954  1.0946  0.2990
 1096TIP3    H224780   0.871   3.373  35.318 -0.3183  3.3108  0.5182
 1097TIP3   OH224781   4.166   4.084  39.273  0.0035  0.5256 -0.2288
 1097TIP3    H124782   4.135   4.134  39.197  1.7818  1.9603 -0.1037
 1097TIP3    H224783   4.087   4.054  39.317 -1.0960 -1.2539 -3.1740
 1098TIP3   OH224784   0.084   3.721   2.829  0.0617 -0.3983 -0.2416
 1098TIP3    H124785   0.175   3.692   2.817  0.1669 -0.2457  0.1802
 1098TIP3    H224786   0.088   3.816   2.820  0.1307 -0.2798  0.8555
 1099TIP3   OH224787   1.354   2.677   5.192 -0.0837  0.6590 -0.0197
 1099TIP3    H124788   1.432   2.630   5.222  0.0983  1.1507  0.2776
 1099TIP3    H224789   1.301   2.688   5.270 -0.9660 -0.6220 -0.4032
 1100TIP3   OH224790   3.753   0.987  28.588 -0.3515  0.0230 -0.0474
 1100TIP3    H124791   3.807   0.976  28.667 -2.4891  0.2689  1.5371
 1100TIP3    H224792   3.799   1.053  28.537  2.0075 -1.3744  0.0942
 1101TIP3   OH224793   4.294   4.101  36.981 -0.2394  0.3766  0.1584
 1101TIP3    H124794   4.329   4.112  36.893  0.6052  0.2122  0.4642
 1101TIP3    H224795   4.371   4.107  37.039 -0.8703  1.2661  0.9446
 1102TIP3   OH224796   3.004   0.340  40.798  0.8535  0.0181  0.4650
 1102TIP3    H124797   3.093   0.304  40.790  1.8164  2.4299 -0.6739
 1102TIP3    H224798   3.004   0.416  40.740 -2.1637 -0.2187  0.0005
 1103TIP3   OH224799   1.778   3.329  36.610 -0.0494  0.5673 -0.3704
 1103TIP3    H124800   1.702   3.349  36.556 -1.2167 -1.1998  0.5191
 1103TIP3    H224801   1.822   3.413  36.622 -1.8153  1.6312 -0.9745
 1104TIP3   OH224802   0.472   0.884  41.497 -0.3090  0.2856 -0.6049
 1104TIP3    H124803   0.475   0.814  41.432  0.4255  0.7592 -1.0896
 1104TIP3    H224804   0.555   0.931  41.485 -0.2532  0.4997  0.5334
 1105TIP3   OH224805   4.103   0.359  23.044  0.4522 -0.5103 -0.5466
 1105TIP3    H124806   4.059   0.419  23.104  0.3564 -0.3819 -0.7472
 1105TIP3    H224807   4.100   0.402  22.959  1.3772 -0.2921 -0.4774
 1106TIP3   OH224808   1.294   1.341  10.891  0.5781 -0.0865  0.1028
 1106TIP3    H124809   1.301   1.265  10.948  1.1969  0.2706  0.5241
 1106TIP3    H224810   1.242   1.312  10.817 -0.8515 -0.3712  1.1828
 1107TIP3   OH224811   2.723   1.654  12.709  0.2763 -0.1850 -0.0691
 1107TIP3    H124812   2.737   1.716  12.781  1.7908  0.1345 -0.5988
 1107TIP3    H224813   2.796   1.593  12.716  0.1369 -0.4737 -1.0067
 1108TIP3   OH224814   3.148   3.968  39.917  0.1288  0.6206  0.5731
 1108TIP3    H124815   3.149   4.062  39.933  1.0402  0.8993 -0.9085
 1108TIP3    H224816   3.170   3.929  40.001 -2.3107  1.6039  1.7579
 1109TIP3   OH224817   0.448   1.486   3.667 -0.1318 -0.7399 -0.1949
 1109TIP3    H124818   0.362   1.446   3.681  0.2581 -1.4913  0.1533
 1109TIP3    H224819   0.471   1.523   3.752 -0.3475 -0.0450 -0.4328
 1110TIP3   OH224820   1.075   2.301   0.529 -0.0325  0.6064  0.2578
 1110TIP3    H124821   1.151   2.259   0.570  0.8292  1.7137 -0.1552
 1110TIP3    H224822   1.105   2.325   0.441 -1.6534 -1.1320 -0.8226
 1111TIP3   OH224823   0.611   1.123  21.831 -0.1522 -0.2818 -0.2550
 1111TIP3    H124824   0.615   1.096  21.923 -0.2312  1.4104  0.2700
 1111TIP3    H224825   0.601   1.218  21.834 -0.4423 -0.2244 -2.0224
 1112TIP3   OH224826   0.472   2.443  34.176 -0.2504 -0.3216 -0.1689
 1112TIP3    H124827   0.422   2.362  34.176  0.5460 -0.8597 -1.7703
 1112TIP3    H224828   0.563   2.415  34.183 -0.0317  0.5172  0.4770
 1113TIP3   OH224829   0.176   2.679  39.936  0.2801 -0.2565  0.1670
 1113TIP3    H124830   0.186   2.767  39.900  1.5253 -0.4663 -0.0419
 1113TIP3    H224831   0.116   2.691  40.010 -1.6890  0.3010 -1.4323
 1114TIP3   OH224832   2.746   0.702  30.046 -0.5996 -0.4775  0.0576
 1114TIP3    H124833   2.776   0.792  30.029 -0.0831 -0.4700  0.9206
 1114TIP3    H224834   2.679   0.712  30.114 -1.4250 -0.6418 -0.7260
 1115TIP3   OH224835   0.242   1.936  11.518  0.3796  0.8318  0.0026
 1115TIP3    H124836   0.315   1.874  11.515 -0.1286  0.2403 -0.8386
 1115TIP3    H224837   0.177   1.893  11.573  0.1933  0.8107 -0.2347
 1116TIP3   OH224838   0.924   3.068   5.923 -0.3621  0.0438 -0.6574
 1116TIP3    H124839   0.938   2.974   5.922 -0.9210 -0.0504 -2.1856
 1116TIP3    H224840   0.979   3.101   5.851 -0.0558  0.9085 -0.0428
 1117TIP3   OH224841   1.889   1.706   3.462  0.1124 -0.3125  0.1277
 1117TIP3    H124842   1.972   1.663   3.442  0.8023 -0.1622  2.3634
 1117TIP3    H224843   1.834   1.688   3.386  2.2968 -0.0531 -1.6098
 1118TIP3   OH224844   3.634   0.540  38.932 -1.0597 -0.1977  0.0140
 1118TIP3    H124845   3.678   0.457  38.951  0.6118  0.7239  0.3677
 1118TIP3    H224846   3.598   0.527  38.844  2.6445 -0.0504 -1.7433
 1119TIP3   OH224847   2.860   3.789   0.562  0.2099  0.0552 -0.2721
 1119TIP3    H124848   2.892   3.771   0.650  1.0190 -0.1505 -0.5962
 1119TIP3    H224849   2.933   3.831   0.518 -0.2149  0.2310 -0.8250
 1120TIP3   OH224850   0.033   3.211  29.351 -0.1774  0.2846 -0.6772
 1120TIP3    H124851  -0.061   3.224  29.335 -0.5284 -0.3605  0.7006
 1120TIP3    H224852   0.072   3.207  29.263 -1.5325 -0.1263 -1.2890
 1121TIP3   OH224853   4.103   3.612  36.070  0.2573 -0.2895 -0.5164
 1121TIP3    H124854   4.194   3.611  36.040  0.5545  1.2784  0.2434
 1121TIP3    H224855   4.071   3.524  36.050  1.9981 -0.9532 -0.6071
 1122TIP3   OH224856   2.329   1.833  35.993  0.2932 -0.2631 -0.0114
 1122TIP3    H124857   2.390   1.808  36.063 -1.1611  0.6497  1.6803
 1122TIP3    H224858   2.355   1.923  35.970 -0.8989  0.4772  1.3630
 1123TIP3   OH224859   0.500   1.703  13.499 -0.6720  0.4095 -0.1626
 1123TIP3    H124860   0.426   1.643  13.501 -0.9700  0.7933  0.4772
 1123TIP3    H224861   0.573   1.652  13.534 -0.9444  0.4441  0.4599
 1124TIP3   OH224862   1.492   1.779   8.794  0.3614 -0.5614 -0.2403
 1124TIP3    H124863   1.477   1.848   8.859  0.0347 -1.4025  0.5933
 1124TIP3    H224864   1.445   1.703   8.828 -0.5142 -0.8073 -1.8713
 1125TIP3   OH224865   0.904   0.217  33.325 -0.1514  0.6940  0.3830
 1125TIP3    H124866   0.809   0.228  33.323 -0.5263 -1.8158  0.3890
 1125TIP3    H224867   0.931   0.256  33.409 -1.6877 -1.2929  1.9075
 1126TIP3   OH224868   0.295   1.078  12.115  0.4389 -0.5405 -0.4234
 1126TIP3    H124869   0.348   0.998  12.111 -0.6594 -1.4679  1.8481
 1126TIP3    H224870   0.340   1.135  12.177  0.3220 -0.0936 -0.7428
 1127TIP3   OH224871   3.453   2.132   9.901  0.1235  0.1660  0.0282
 1127TIP3    H124872   3.475   2.147   9.809 -0.6931  1.5049  0.0083
 1127TIP3    H224873   3.532   2.095   9.939  1.2902  1.7566 -0.7174
 1128TIP3   OH224874   0.185   2.380  35.253 -0.2532  0.1459 -0.7817
 1128TIP3    H124875   0.221   2.432  35.181 -1.1658  0.7370 -0.8316
 1128TIP3    H224876   0.189   2.290  35.221  0.9718  0.2097 -0.8593
 1129TIP3   OH224877   2.463   1.748  32.530 -0.5620  0.6112  0.5801
 1129TIP3    H124878   2.484   1.757  32.623  3.2305 -0.1954 -0.0466
 1129TIP3    H224879   2.502   1.825  32.489 -1.7315  0.6866 -0.4637
 1130TIP3   OH224880   1.464   2.556  10.877  0.2123  0.4807 -0.1010
 1130TIP3    H124881   1.370   2.535  10.875  0.5038 -1.2332  1.7210
 1130TIP3    H224882   1.497   2.524  10.793 -0.8756  1.6122 -1.0108
 1131TIP3   OH224883   4.156   0.998  29.724 -0.3494  0.1436 -0.5188
 1131TIP3    H124884   4.151   1.088  29.692 -0.7778  0.8663  1.4750
 1131TIP3    H224885   4.250   0.982  29.734 -0.2797  0.4368 -0.6757
 1132TIP3   OH224886   1.877   2.102  15.810  0.3995 -0.1007 -0.1859
 1132TIP3    H124887   1.917   2.043  15.746 -1.0659 -0.4609 -0.8037
 1132TIP3    H224888   1.799   2.055  15.839 -0.5471  1.3340 -0.3494
 1133TIP3   OH224889   3.530   0.178  12.221 -0.6545  0.1362 -0.3292
 1133TIP3    H124890   3.512   0.257  12.169 -0.0411  0.2274 -0.4036
 1133TIP3    H224891   3.562   0.211  12.305 -3.1110  0.0401  0.7280
 1134TIP3   OH224892   3.320   1.779   7.088  0.1438  0.3940 -0.2137
 1134TIP3    H124893   3.337   1.685   7.096 -2.5089 -0.1221  0.3451
 1134TIP3    H224894   3.407   1.819   7.087  1.3336 -1.9582  0.8409
 1135TIP3   OH224895   1.561   0.256  10.646 -0.1449 -0.2582 -0.4425
 1135TIP3    H124896   1.586   0.344  10.619 -0.3278 -0.4041 -1.0956
 1135TIP3    H224897   1.546   0.209  10.564  0.6283 -1.0951 -0.1122
 1136TIP3   OH224898   2.190   2.304   7.883 -0.2036  0.8267  0.4552
 1136TIP3    H124899   2.178   2.379   7.825 -1.6367  0.9425  0.8756
 1136TIP3    H224900   2.106   2.293   7.926 -0.4019 -1.7176 -0.4033
 1137TIP3   OH224901   3.241   1.472   4.248 -0.4742 -0.3442 -0.0367
 1137TIP3    H124902   3.258   1.515   4.332  0.3159 -0.6566 -0.0316
 1137TIP3    H224903   3.206   1.386   4.271  0.1903 -0.6140 -0.0142
 1138TIP3   OH224904   1.529   1.062   2.830  0.0199 -0.5944  0.2440
 1138TIP3    H124905   1.521   1.088   2.922  2.9580  0.5686  0.2727
 1138TIP3    H224906   1.542   0.968   2.833 -2.3561 -0.9921  0.7525
 1139TIP3   OH224907   0.610   0.376   8.884  0.0140  0.2663  0.2223
 1139TIP3    H124908   0.697   0.396   8.849  0.4108  0.0811  1.0585
 1139TIP3    H224909   0.562   0.459   8.880  0.4119  0.4993  0.2420
 1140TIP3   OH224910   2.868   0.502   8.948  0.8222 -0.2858  0.1467
 1140TIP3    H124911   2.817   0.473   9.024  0.0808 -0.7995 -0.5248
 1140TIP3    H224912   2.885   0.595   8.965 -0.7445  0.0213  0.1809
 1141TIP3   OH224913   1.416   1.000  32.964  0.3357 -0.0044  0.1676
 1141TIP3    H124914   1.495   0.998  32.910  1.7204  2.1047  1.9031
 1141TIP3    H224915   1.387   1.092  32.961 -1.2083 -0.4497  0.7022
 1142TIP3   OH224916   3.362   3.150   2.530  0.2815  0.0334  1.0108
 1142TIP3    H124917   3.329   3.091   2.462  0.1724 -0.4397  1.4681
 1142TIP3    H224918   3.343   3.238   2.497 -0.1409 -0.2031  0.6163
 1143TIP3   OH224919   3.229   3.833  12.911  0.5099  0.1413 -0.4249
 1143TIP3    H124920   3.269   3.753  12.876  0.8930  0.1665 -0.0571
 1143TIP3    H224921   3.269   3.844  12.997  0.3406  0.6472 -0.4075
 1144TIP3   OH224922   3.624   2.595  35.574 -0.1648 -0.0399 -0.0455
 1144TIP3    H124923   3.707   2.551  35.592  0.5562  1.8095  1.5431
 1144TIP3    H224924   3.648   2.669  35.518 -0.6660  0.7493  0.7710
 1145TIP3   OH224925   3.940   4.159  29.665  0.7375  0.6119 -0.4250
 1145TIP3    H124926   3.991   4.126  29.740  0.3347  0.9706  0.0150
 1145TIP3    H224927   3.919   4.249  29.689 -0.2891  0.4023 -0.5029
 1146TIP3   OH224928   3.742   2.572  12.449 -0.3291  0.1548  0.3130
 1146TIP3    H124929   3.760   2.541  12.537 -2.8797  0.3018  0.9849
 1146TIP3    H224930   3.772   2.663  12.449 -0.9644  0.3874  1.3191
 1147TIP3   OH224931   3.652   4.034   1.649 -0.2791 -0.0412 -0.1477
 1147TIP3    H124932   3.581   4.093   1.624 -0.7404 -0.5716 -0.1001
 1147TIP3    H224933   3.729   4.091   1.656 -0.7043  0.5422 -0.1570
 1148TIP3   OH224934   2.803   1.265  41.112  0.7087  0.0152  0.4317
 1148TIP3    H124935   2.873   1.207  41.083  1.6039  0.7225  1.1368
 1148TIP3    H224936   2.729   1.206  41.128  1.8866 -1.1210  2.1369
 1149TIP3   OH224937   1.004   2.499  15.607  0.8624 -0.0347  0.4549
 1149TIP3    H124938   1.025   2.406  15.615 -0.0347 -0.3761 -0.8837
 1149TIP3    H224939   0.927   2.511  15.663  0.3411 -0.3418 -0.1836
 1150TIP3   OH224940   0.186   2.774  24.378 -0.4539  0.0955 -0.2419
 1150TIP3    H124941   0.182   2.679  24.392  2.6336 -0.7218 -3.2388
 1150TIP3    H224942   0.236   2.807  24.452  1.2243 -1.2506 -0.7024
 1151TIP3   OH224943   2.835   1.472  41.292  0.1032 -0.6612 -0.3258
 1151TIP3    H124944   2.841   1.418  41.214  1.1373 -0.6059 -0.3043
 1151TIP3    H224945   2.911   1.530  41.287 -0.9551  0.7836 -0.3367
 1152TIP3   OH224946   1.766   3.732   6.501 -0.6511 -0.2875  0.2873
 1152TIP3    H124947   1.806   3.810   6.464  0.7641 -1.0043  0.2650
 1152TIP3    H224948   1.696   3.709   6.439  0.3495 -0.2871 -0.8687
 1153TIP3   OH224949   1.086   3.514  27.316 -0.2464  0.0213  0.7434
 1153TIP3    H124950   1.073   3.460  27.237 -2.5636 -0.7062  1.5361
 1153TIP3    H224951   1.006   3.566  27.322  0.8866  1.7604  1.4047
 1154TIP3   OH224952   2.240   3.320   6.163  0.2823  0.0889 -0.5593
 1154TIP3    H124953   2.285   3.277   6.090  0.6055 -1.6967  0.6291
 1154TIP3    H224954   2.164   3.263   6.180 -0.6445  1.3129 -0.4564
 1155TIP3   OH224955   0.140   3.202   2.418  0.5875  0.7169  0.3148
 1155TIP3    H124956   0.188   3.171   2.341  1.7177  1.8325  0.5289
 1155TIP3    H224957   0.104   3.287   2.390 -1.3755 -0.1070  0.1395
 1156TIP3   OH224958   0.925   0.628   9.761  0.1101  0.0417 -0.1858
 1156TIP3    H124959   0.998   0.674   9.719 -0.1009  2.0399  1.4935
 1156TIP3    H224960   0.964   0.586   9.838 -0.2558 -0.1042 -0.0775
 1157TIP3   OH224961   3.050   4.071  33.387 -0.3760 -0.5354 -0.5346
 1157TIP3    H124962   2.998   4.065  33.307  0.1495 -0.0466 -0.9125
 1157TIP3    H224963   3.010   4.142  33.437  0.7935  0.8406 -1.4798
 1158TIP3   OH224964   3.253   0.101  33.889 -0.0045 -0.1375 -0.5209
 1158TIP3    H124965   3.168   0.129  33.922  0.3930  0.1828  0.2502
 1158TIP3    H224966   3.251   0.006  33.896  1.2307 -0.0359  3.5278
 1159TIP3   OH224967   0.949   3.362  10.641 -0.7837 -0.0374 -0.2673
 1159TIP3    H124968   0.932   3.278  10.600  0.1913 -1.2008  1.5744
 1159TIP3    H224969   0.903   3.357  10.725  2.7655 -0.5991  1.8406
 1160TIP3   OH224970   1.631   2.132  38.781 -0.4126 -0.6743 -0.2201
 1160TIP3    H124971   1.627   2.132  38.877  0.9099 -0.6952 -0.1565
 1160TIP3    H224972   1.598   2.046  38.756 -1.3276 -0.4533  0.1786
 1161TIP3   OH224973   3.819   4.155   7.960  0.1338 -0.0201  0.0495
 1161TIP3    H124974   3.848   4.234   8.005 -1.9392  1.3007 -0.8134
 1161TIP3    H224975   3.873   4.085   7.997  2.4703  1.8411  0.3988
 1162TIP3   OH224976   1.736   0.297   0.733  0.4031  0.3473  0.2778
 1162TIP3    H124977   1.823   0.336   0.737  0.4024  0.5724 -1.2636
 1162TIP3    H224978   1.710   0.286   0.824  2.2388 -0.1727  0.7734
 1163TIP3   OH224979   0.126   2.696  30.141 -0.2659 -0.0667 -0.2879
 1163TIP3    H124980   0.157   2.785  30.157  0.0626 -0.4154  1.1929
 1163TIP3    H224981   0.162   2.673  30.055  0.3884  0.9032 -0.2895
 1164TIP3   OH224982   2.127   2.381   3.240 -0.2114 -0.1893  0.0670
 1164TIP3    H124983   2.176   2.307   3.204  0.4640  0.5223 -0.5140
 1164TIP3    H224984   2.132   2.449   3.173  1.1297  1.1926  1.4670
 1165TIP3   OH224985   2.023   2.124  35.836 -0.4464  0.8626  0.2568
 1165TIP3    H124986   1.944   2.177  35.830  0.0109  1.4189 -1.2310
 1165TIP3    H224987   2.082   2.176  35.890 -0.1522  1.7125 -0.8486
 1166TIP3   OH224988   1.974   4.081  32.246  0.3074 -0.1748 -0.2394
 1166TIP3    H124989   2.020   4.025  32.308  0.1349 -0.0984 -0.0430
 1166TIP3    H224990   1.883   4.080  32.275 -0.1606 -1.6687 -1.5855
 1167TIP3   OH224991   1.653   0.716  27.148  0.4649 -0.6839  0.2763
 1167TIP3    H124992   1.719   0.748  27.210  0.4258  1.5223 -0.7339
 1167TIP3    H224993   1.569   0.738  27.189  0.3876 -1.1408  0.3743
 1168TIP3   OH224994   3.961   2.363  36.550  0.0362  0.4668  0.5668
 1168TIP3    H124995   3.910   2.417  36.611  0.4911  0.1839  1.2059
 1168TIP3    H224996   4.011   2.305  36.606 -2.6855 -2.7907 -0.0702
 1169TIP3   OH224997   1.457   3.159   2.934  0.8158 -0.0970 -0.3822
 1169TIP3    H124998   1.439   3.109   2.854  0.3727  1.9731 -1.6547
 1169TIP3    H224999   1.542   3.200   2.917  0.6154  0.5339  0.1240
 1170TIP3   OH225000   4.371   0.003  39.221  0.7192 -0.6479  0.0865
 1170TIP3    H125001   4.285  -0.005  39.262  1.4025 -0.1168  1.6969
 1170TIP3    H225002   4.352   0.010  39.127 -0.9365 -1.2302  0.3388
 1171TIP3   OH225003   2.778   2.433  32.939  0.5892  0.2315 -0.3320
 1171TIP3    H125004   2.728   2.490  32.998  0.6525 -0.0450 -0.0101
 1171TIP3    H225005   2.834   2.382  32.997  0.1191 -0.5718 -0.5752
 1172TIP3   OH225006   1.750   2.219  35.833 -0.4926  0.3930  0.7155
 1172TIP3    H125007   1.780   2.134  35.802  0.2014  0.2200  1.8197
 1172TIP3    H225008   1.673   2.238  35.779 -1.1597 -1.3021  0.9949
 1173TIP3   OH225009   2.512   3.757  39.763  0.8449 -0.2986 -0.2210
 1173TIP3    H125010   2.526   3.759  39.858 -2.3527  1.9392  0.3727
 1173TIP3    H225011   2.451   3.685  39.749  2.0585 -1.2460 -0.7649
 1174TIP3   OH225012   1.812   1.494  40.081 -0.0915  0.7336 -0.1487
 1174TIP3    H125013   1.724   1.524  40.058  0.9973  3.2853 -1.4891
 1174TIP3    H225014   1.849   1.566  40.132 -0.2520 -2.2111  4.7831
 1175TIP3   OH225015   1.576   1.685  37.196  0.1948  0.0158 -0.0462
 1175TIP3    H125016   1.620   1.740  37.131  0.6611  0.9190  1.0005
 1175TIP3    H225017   1.585   1.733  37.278  0.3489 -1.4914  0.8529
 1176TIP3   OH225018   2.881   3.018  38.154 -0.4907  0.1481 -0.5995
 1176TIP3    H125019   2.930   2.935  38.156 -0.8620 -0.0600  0.9676
 1176TIP3    H225020   2.802   3.000  38.205  0.4926  2.1068  1.7680
 1177TIP3   OH225021   2.864   1.753  34.708  0.1338  0.1293  0.9282
 1177TIP3    H125022   2.947   1.779  34.668  0.0610  1.2481  1.4428
 1177TIP3    H225023   2.885   1.741  34.800  0.1458 -1.6838  0.7179
 1178TIP3   OH225024   4.240   1.442   2.589  0.1942 -0.3052  0.1825
 1178TIP3    H125025   4.284   1.488   2.517  0.0057  0.7159  0.6990
 1178TIP3    H225026   4.184   1.378   2.546 -0.6798  0.9801 -0.6391
 1179TIP3   OH225027   3.702   1.380  40.128  0.6628 -0.0039 -0.4640
 1179TIP3    H125028   3.718   1.379  40.033  2.4079  0.4457 -0.2022
 1179TIP3    H225029   3.774   1.432  40.164  1.1750 -1.8619  1.3344
 1180TIP3   OH225030   4.328   0.450   0.037  0.4324  0.6958  0.7303
 1180TIP3    H125031   4.287   0.492  -0.038 -0.0070  2.0094  1.6696
 1180TIP3    H225032   4.415   0.490   0.043  0.7233  0.1073  0.5361
 1181TIP3   OH225033   1.937   1.309  30.242  0.2791 -0.0858  0.4048
 1181TIP3    H125034   1.848   1.337  30.223  0.7392  0.9315 -0.3796
 1181TIP3    H225035   1.990   1.353  30.175  1.6337  1.1567  2.1931
 1182TIP3   OH225036   3.664   3.455  32.750  0.2202 -0.6291 -0.3293
 1182TIP3    H125037   3.698   3.406  32.825 -1.0576 -1.5220 -0.2952
 1182TIP3    H225038   3.585   3.497  32.783  1.1091  1.2192 -0.4614
 1183TIP3   OH225039   1.446   2.159  29.304 -0.3598  0.3551 -0.3845
 1183TIP3    H125040   1.511   2.173  29.235  2.6216  1.1665  2.3469
 1183TIP3    H225041   1.473   2.079  29.348 -2.7708 -0.6871 -0.6268
 1184TIP3   OH225042   3.909   3.593  23.197 -0.4543 -0.1108 -0.0814
 1184TIP3    H125043   3.926   3.567  23.107  3.4954  0.4765  0.3180
 1184TIP3    H225044   3.914   3.689  23.196  0.5573 -0.1293  0.8557
 1185TIP3   OH225045   2.620   1.832  31.303 -0.1712 -0.4371 -0.2134
 1185TIP3    H125046   2.700   1.883  31.310  2.5121 -4.2165 -0.2979
 1185TIP3    H225047   2.584   1.831  31.391  1.5626 -1.0166  0.5381
 1186TIP3   OH225048   0.511   2.516  12.268  0.0807 -0.2394  0.1069
 1186TIP3    H125049   0.536   2.586  12.207  1.7677 -0.3134  0.6510
 1186TIP3    H225050   0.428   2.545  12.306  1.2914  2.0695  1.1746
 1187TIP3   OH225051   2.448   0.095  29.377  0.0841  0.0690 -0.5575
 1187TIP3    H125052   2.492   0.037  29.314  1.7201 -0.0607  0.6476
 1187TIP3    H225053   2.516   0.155  29.406 -0.2378 -0.7073  2.0860
 1188TIP3   OH225054   2.031   4.071   7.003  0.3720  0.0411  0.4264
 1188TIP3    H125055   1.984   3.998   6.963 -0.4567  0.4455  0.6214
 1188TIP3    H225056   2.031   4.051   7.097  0.9409 -0.1449  0.3911
 1189TIP3   OH225057   0.063   1.985  28.444 -0.3939 -1.5214  0.4910
 1189TIP3    H125058   0.127   2.033  28.497 -0.5066 -0.9035  0.0800
 1189TIP3    H225059  -0.020   1.998  28.489 -1.1674  1.9020 -1.5269
 1190TIP3   OH225060   0.430   3.065  31.773  0.3678  0.2567 -0.2055
 1190TIP3    H125061   0.421   3.077  31.678 -1.1714 -0.5921 -0.1965
 1190TIP3    H225062   0.482   2.985  31.782  2.2847  1.4338 -0.2880
 1191TIP3   OH225063   4.379   2.122  38.886  0.1550  0.5969 -0.1675
 1191TIP3    H125064   4.303   2.106  38.829  0.6424 -0.0965 -0.6297
 1191TIP3    H225065   4.401   2.036  38.922  1.0341  0.7083 -0.4303
 1192TIP3   OH225066   3.739   2.489  13.279  0.0365 -0.2383  0.1310
 1192TIP3    H125067   3.654   2.444  13.273 -0.0222 -0.1573  0.3340
 1192TIP3    H225068   3.716   2.582  13.281  0.1548 -0.1994 -0.2288
 1193TIP3   OH225069   3.894   1.732  27.847 -0.4227  0.1955 -0.0259
 1193TIP3    H125070   3.987   1.713  27.846  0.2371  2.9764  0.6002
 1193TIP3    H225071   3.868   1.717  27.938 -0.6284 -0.6343 -0.2130
 1194TIP3   OH225072   0.820   3.364  15.275 -0.3109  0.1906 -0.0310
 1194TIP3    H125073   0.768   3.356  15.195 -0.3750  0.5405 -0.0247
 1194TIP3    H225074   0.832   3.458  15.287  0.5370  0.1127 -0.1676
 1195TIP3   OH225075   3.600   1.432  11.997 -0.3315 -0.1743  0.6039
 1195TIP3    H125076   3.545   1.479  11.934  0.0524 -0.4591  0.0473
 1195TIP3    H225077   3.678   1.407  11.948  0.2062  0.0359  1.3338
 1196TIP3   OH225078   3.780   3.779  10.358  0.5242 -0.2508  0.3704
 1196TIP3    H125079   3.719   3.824  10.416  0.8492  0.6501  0.0464
 1196TIP3    H225080   3.828   3.850  10.314 -0.9264 -0.7981 -2.3475
 1197TIP3   OH225081   0.385   1.762  34.530  0.2417  0.7553 -0.3629
 1197TIP3    H125082   0.303   1.811  34.523 -0.0436  0.1015 -1.9936
 1197TIP3    H225083   0.425   1.769  34.443  2.4855  1.9640  0.6591
 1198TIP3   OH225084   2.722   4.037   8.523  0.7886 -0.1615  0.0345
 1198TIP3    H125085   2.758   4.001   8.604  0.5346 -2.2405 -0.7084
 1198TIP3    H225086   2.767   3.989   8.454 -1.4756 -0.9604 -0.9725
 1199TIP3   OH225087   1.809   1.598  17.889  0.2210  0.3377  0.1998
 1199TIP3    H125088   1.723   1.586  17.929  0.3513 -1.0405  0.1283
 1199TIP3    H225089   1.858   1.652  17.951 -0.3235  0.1619  0.7944
 1200TIP3   OH225090   0.336   4.185  33.453  0.2215  0.1581  0.0556
 1200TIP3    H125091   0.245   4.186  33.483  0.7305 -0.1056  1.7072
 1200TIP3    H225092   0.330   4.166  33.359 -1.5053  2.1746 -0.3036
 1201TIP3   OH225093   1.511   3.351  36.023  0.2114  0.1175  0.4562
 1201TIP3    H125094   1.475   3.364  36.111 -1.8228 -2.5649  0.1378
 1201TIP3    H225095   1.603   3.330  36.037 -0.1078 -0.3779  1.9644
 1202TIP3   OH225096   0.616   3.870  27.465 -0.5681  0.0190  0.1039
 1202TIP3    H125097   0.545   3.821  27.423 -1.1067  1.1366 -0.3471
 1202TIP3    H225098   0.649   3.928  27.396  1.2020 -0.8748  0.1367
 1203TIP3   OH225099   1.661   3.280   6.760 -0.6952 -0.0241  0.1470
 1203TIP3    H125100   1.631   3.208   6.705 -0.2834 -0.3125  0.2945
 1203TIP3    H225101   1.675   3.353   6.699 -2.3961  0.3588  0.1668
 1204TIP3   OH225102   3.753   4.280  27.156  0.0179 -0.2435 -0.7659
 1204TIP3    H125103   3.670   4.238  27.178 -0.1185  0.2847 -0.2418
 1204TIP3    H225104   3.734   4.331  27.077 -0.2042  0.0335 -0.5322
 1205TIP3   OH225105   3.071   3.582  32.930  0.0456 -0.0775  0.3459
 1205TIP3    H125106   3.081   3.489  32.913 -0.5757  0.1091 -1.2167
 1205TIP3    H225107   2.976   3.598  32.924  0.2235  0.8027 -0.3608
 1206TIP3   OH225108   3.629   1.976   6.015 -0.2428 -0.3721 -0.1986
 1206TIP3    H125109   3.721   1.954   6.004 -0.0194  0.5336 -0.1670
 1206TIP3    H225110   3.591   1.968   5.928  0.2278  0.8731 -0.5349
 1207TIP3   OH225111   4.189   2.909  21.937  0.1254 -0.0755 -0.6961
 1207TIP3    H125112   4.158   2.997  21.959  1.2252  0.3764 -0.8896
 1207TIP3    H225113   4.280   2.921  21.909  0.7792 -1.4460  0.6444
 1208TIP3   OH225114   0.289   3.710  33.918 -0.3668  0.0741 -0.3143
 1208TIP3    H125115   0.359   3.668  33.968  0.1832  0.1256 -1.0258
 1208TIP3    H225116   0.235   3.637  33.887 -0.7384  0.0453  0.3816
 1209TIP3   OH225117   3.845   3.311   2.502 -0.7631 -0.0909 -0.0530
 1209TIP3    H125118   3.913   3.307   2.569  0.4320  0.8056 -1.1692
 1209TIP3    H225119   3.780   3.247   2.531  0.1401 -0.3852  1.4743
 1210TIP3   OH225120   0.927   0.253  37.558 -0.2683 -0.2874 -0.1316
 1210TIP3    H125121   0.852   0.218  37.607 -0.0807  1.1950  1.3345
 1210TIP3    H225122   0.888   0.292  37.480 -0.9761  0.0468  0.3711
 1211TIP3   OH225123   2.716   0.277   8.138  0.0930  0.1603  0.3670
 1211TIP3    H125124   2.694   0.292   8.046 -2.4472 -0.7402  0.7666
 1211TIP3    H225125   2.700   0.361   8.180  0.0295  0.2350  0.1959
 1212TIP3   OH225126   1.511   2.718  17.269  0.1861 -0.1464  0.1101
 1212TIP3    H125127   1.450   2.648  17.245  1.4819 -1.2681 -0.0776
 1212TIP3    H225128   1.596   2.674  17.275  0.8997  1.2652  0.8516
 1213TIP3   OH225129   1.556   1.507  39.978  0.1935  0.1423 -0.3200
 1213TIP3    H125130   1.519   1.473  39.897  1.6820 -2.3985 -0.0448
 1213TIP3    H225131   1.496   1.477  40.046  0.5062 -0.3536 -0.2530
 1214TIP3   OH225132   3.499   0.297   9.648 -0.3333  0.0253  0.0179
 1214TIP3    H125133   3.441   0.372   9.656 -1.4210 -0.8580  0.7645
 1214TIP3    H225134   3.567   0.325   9.586 -1.0119  1.4118 -0.1346
 1215TIP3   OH225135   4.109   0.805  39.489 -0.4275  0.6444  0.0629
 1215TIP3    H125136   4.081   0.777  39.402  0.0254  0.2167  0.0529
 1215TIP3    H225137   4.139   0.725  39.532  1.4096  1.1798 -0.1615
 1216TIP3   OH225138   4.383   2.215   7.337  0.1605 -0.1884 -0.6127
 1216TIP3    H125139   4.461   2.269   7.351 -1.4852  2.1078  0.2730
 1216TIP3    H225140   4.410   2.127   7.362  2.1468  0.7422  0.7945
 1217TIP3   OH225141   2.479   2.424   3.233  0.1540  0.1868 -0.2992
 1217TIP3    H125142   2.554   2.485   3.233  0.8763 -0.6497  1.0499
 1217TIP3    H225143   2.423   2.456   3.304  0.2851 -0.3915  0.0747
 1218TIP3   OH225144   2.038   4.108  28.600 -0.0866 -0.6246 -0.0531
 1218TIP3    H125145   2.040   4.096  28.695  0.1254  1.5390  0.2666
 1218TIP3    H225146   1.947   4.128  28.580  0.1676  0.6414 -0.0272
 1219TIP3   OH225147   1.620   0.608   7.164  0.1516 -0.1961  0.5554
 1219TIP3    H125148   1.539   0.560   7.147  0.6676 -1.4261  1.3779
 1219TIP3    H225149   1.639   0.654   7.083 -1.7231  0.6672  0.5620
 1220TIP3   OH225150   1.092   3.388  30.886  0.2954 -0.7344 -0.3044
 1220TIP3    H125151   1.058   3.448  30.953  1.1514 -1.3766  0.7360
 1220TIP3    H225152   1.143   3.444  30.827  1.3951 -0.4654  0.8588
 1221TIP3   OH225153   0.154   4.165  37.696 -0.2132  0.6020 -0.6900
 1221TIP3    H125154   0.130   4.213  37.617  0.7685  0.1627 -1.2730
 1221TIP3    H225155   0.217   4.099  37.666  0.7742  0.9262  0.5691
 1222TIP3   OH225156   1.054   3.713  38.546 -0.3136 -0.0177  0.6382
 1222TIP3    H125157   1.007   3.745  38.468 -0.7185  0.3718  1.0371
 1222TIP3    H225158   1.142   3.749  38.536 -0.4336  0.2423  0.4836
 1223TIP3   OH225159   3.041   4.396  40.278  0.4328 -0.7735  0.3467
 1223TIP3    H125160   3.001   4.366  40.196 -0.6421 -0.1561  0.6217
 1223TIP3    H225161   3.109   4.332  40.297 -0.6015 -2.0224 -0.0244
 1224TIP3   OH225162   1.382   3.203  16.350 -0.2358  0.0931 -0.2361
 1224TIP3    H125163   1.306   3.146  16.338 -0.1827  0.0213 -0.2363
 1224TIP3    H225164   1.379   3.228  16.443 -0.7334  0.7757 -0.4357
 1225TIP3   OH225165   1.575   2.510   5.988  0.4707 -0.1824  0.3659
 1225TIP3    H125166   1.649   2.570   5.985  0.0316  0.3929  0.8073
 1225TIP3    H225167   1.532   2.529   6.071 -1.9512  1.6271 -1.1799
 1226TIP3   OH225168   0.825   4.348  35.295 -0.2651 -0.4444 -0.3249
 1226TIP3    H125169   0.853   4.258  35.278 -0.3882 -0.6731  0.5758
 1226TIP3    H225170   0.766   4.369  35.223 -1.6904 -1.7623  0.3896
 1227TIP3   OH225171   0.644   3.605  30.459 -0.0317  0.6496  0.5548
 1227TIP3    H125172   0.660   3.521  30.502 -1.6702  0.1728  0.3057
 1227TIP3    H225173   0.712   3.610  30.391  1.2739  0.4478  1.7801
 1228TIP3   OH225174   3.639   2.298   1.382  0.2526 -0.1524 -0.0577
 1228TIP3    H125175   3.671   2.376   1.336 -1.5190  0.9758  0.5079
 1228TIP3    H225176   3.598   2.245   1.313 -1.3325  0.9638 -0.0333
 1229TIP3   OH225177   1.605   2.168  38.183  0.0821 -0.3995  0.2800
 1229TIP3    H125178   1.647   2.242  38.228  1.0566 -0.7813  0.0241
 1229TIP3    H225179   1.536   2.140  38.243 -1.1339  1.4682 -0.1432
 1230TIP3   OH225180   3.356   3.836  30.096  0.0733 -0.3001 -0.2970
 1230TIP3    H125181   3.301   3.760  30.116 -1.0195  0.6564  0.4974
 1230TIP3    H225182   3.431   3.828  30.154  0.4877 -1.2888 -0.9369
 1231TIP3   OH225183   2.177   3.275  27.393  0.7140  0.2249  0.6813
 1231TIP3    H125184   2.197   3.243  27.481  1.7316 -1.2842 -0.0524
 1231TIP3    H225185   2.187   3.199  27.337  1.0932  1.3749 -0.8930
 1232TIP3   OH225186   0.119   1.990  29.298 -0.0089  0.0863 -0.2369
 1232TIP3    H125187   0.213   1.974  29.290  0.8410  3.3500  1.6219
 1232TIP3    H225188   0.097   2.041  29.220  0.2415  1.0258  0.2945
 1233TIP3   OH225189   0.498   4.052   3.393  0.9040 -0.2420 -0.3823
 1233TIP3    H125190   0.588   4.074   3.415  0.1466  0.5970  2.2633
 1233TIP3    H225191   0.458   4.135   3.367  0.5170 -0.2909  0.0286
 1234TIP3   OH225192   2.336   2.048  35.756 -0.6295  0.0966 -1.0425
 1234TIP3    H125193   2.343   2.081  35.846 -0.5712 -4.3502  0.8500
 1234TIP3    H225194   2.242   2.031  35.745 -0.4877 -0.5412 -1.3024
 1235TIP3   OH225195   3.093   3.066  10.425  0.3650  0.0956 -0.2781
 1235TIP3    H125196   3.140   3.141  10.460  0.9538 -0.2031 -0.4186
 1235TIP3    H225197   3.120   3.061  10.333 -0.1515  0.0846 -0.4332
 1236TIP3   OH225198   3.840   1.356   8.904 -0.0117  0.2722 -0.1783
 1236TIP3    H125199   3.806   1.392   8.822  0.8461  1.2322 -0.1259
 1236TIP3    H225200   3.780   1.387   8.971 -2.0639 -2.3514 -0.6121
 1237TIP3   OH225201   0.775   2.828  31.190 -0.0695  0.4660  0.3617
 1237TIP3    H125202   0.749   2.917  31.213  1.4067  0.8416  0.6819
 1237TIP3    H225203   0.706   2.772  31.227 -0.0008  1.3383  1.8872
 1238TIP3   OH225204   3.111   2.874  41.239  0.7451  0.1561  0.0602
 1238TIP3    H125205   3.081   2.906  41.154  0.2858 -3.0287 -1.1073
 1238TIP3    H225206   3.031   2.845  41.283  1.0676  1.0927  1.3330
 1239TIP3   OH225207   2.857   1.379  29.202 -0.2005 -0.1228  0.5746
 1239TIP3    H125208   2.917   1.447  29.233  0.1474 -0.5653  0.8655
 1239TIP3    H225209   2.846   1.399  29.109 -0.2955  0.4767  0.7048
 1240TIP3   OH225210   1.268   2.316   6.581  0.4585  0.1463  0.6361
 1240TIP3    H125211   1.220   2.398   6.593 -1.3489 -0.5912 -1.0011
 1240TIP3    H225212   1.227   2.254   6.642  0.9208  0.1068  0.9126
 1241TIP3   OH225213   1.305   0.809  35.241  0.1760 -0.0015  0.2183
 1241TIP3    H125214   1.291   0.764  35.325  1.2265 -2.0712 -0.6501
 1241TIP3    H225215   1.328   0.739  35.180  1.3304  1.6762 -1.3640
 1242TIP3   OH225216   1.404   0.509  36.370  0.1732 -0.3738  0.6714
 1242TIP3    H125217   1.480   0.553  36.408  0.4792  0.5542 -0.9407
 1242TIP3    H225218   1.412   0.418  36.400  1.6257 -0.1771  0.9442
 1243TIP3   OH225219   2.299   1.542   0.297 -0.0994 -0.4639  0.4131
 1243TIP3    H125220   2.303   1.633   0.269 -0.1819 -0.3763  0.6828
 1243TIP3    H225221   2.270   1.494   0.219 -0.7018 -0.1729  0.4548
 1244TIP3   OH225222   2.884   2.381  37.004 -0.1826 -0.1595  0.0342
 1244TIP3    H125223   2.795   2.403  36.975 -0.2530 -0.4008  0.0642
 1244TIP3    H225224   2.876   2.292  37.039 -0.0843  0.1039  0.7350
 1245TIP3   OH225225   1.808   1.015  33.255 -0.5329 -0.2002 -0.6015
 1245TIP3    H125226   1.826   1.000  33.348 -1.8536 -1.4543 -0.5123
 1245TIP3    H225227   1.789   1.109  33.250  0.3686  0.0491  0.2291
 1246TIP3   OH225228   4.202   3.680   5.320 -0.1035  0.2736 -0.0456
 1246TIP3    H125229   4.233   3.753   5.373 -0.1049  1.5575 -1.7145
 1246TIP3    H225230   4.106   3.689   5.320 -0.1168  0.1391 -0.0994
 1247TIP3   OH225231   0.070   0.255  29.628 -0.1735 -0.4271  0.6155
 1247TIP3    H125232   0.069   0.302  29.545 -2.3850 -0.8706  0.3366
 1247TIP3    H225233   0.038   0.320  29.692 -1.6465 -1.0178  0.5127
 1248TIP3   OH225234   2.259   3.398  29.311  0.2460  0.2013 -0.0073
 1248TIP3    H125235   2.286   3.321  29.260  1.0201  0.3892  0.1062
 1248TIP3    H225236   2.255   3.469  29.247 -1.8167 -0.1840 -0.3885
 1249TIP3   OH225237   2.974   0.677  37.633  0.6430 -0.4159 -0.2794
 1249TIP3    H125238   2.941   0.707  37.718  0.4850 -0.0381 -0.4699
 1249TIP3    H225239   2.956   0.583  37.632 -0.9015 -0.1486 -0.5823
 1250TIP3   OH225240   0.758   0.730  39.839  0.5062  0.5506 -0.3921
 1250TIP3    H125241   0.668   0.698  39.850  1.0274 -0.3106  1.8959
 1250TIP3    H225242   0.764   0.751  39.746 -1.2111 -2.0313 -1.2131
 1251TIP3   OH225243   3.368   1.886  28.304 -0.3486  0.2898  0.1345
 1251TIP3    H125244   3.386   1.980  28.297 -0.5627  0.3408  0.2678
 1251TIP3    H225245   3.312   1.878  28.381 -1.1673  0.1605 -0.4684
 1252TIP3   OH225246   1.752   2.029   1.478  0.3639 -0.6309  0.0448
 1252TIP3    H125247   1.744   2.111   1.527  1.5239 -0.9310  0.7774
 1252TIP3    H225248   1.813   1.976   1.530  1.0866 -1.2344 -1.3615
 1253TIP3   OH225249   4.020   2.681  23.794  1.0716  0.6626 -0.6253
 1253TIP3    H125250   4.012   2.586  23.808 -0.3295  0.6750 -1.1955
 1253TIP3    H225251   4.080   2.689  23.720  0.8682  0.1933 -0.8489
 1254TIP3   OH225252   3.814   0.529   4.045  0.6605 -0.3920  0.5648
 1254TIP3    H125253   3.750   0.462   4.068  0.0430  0.1238  0.3699
 1254TIP3    H225254   3.889   0.480   4.012 -0.1893 -0.9515 -0.5681
 1255TIP3   OH225255   2.117   0.070  36.685 -0.1667 -0.0863 -0.2278
 1255TIP3    H125256   2.048   0.070  36.619  1.1129 -2.5472 -1.7710
 1255TIP3    H225257   2.072   0.054  36.768 -1.6827  1.5736 -0.6786
 1256TIP3   OH225258   2.758   0.436   2.173 -0.2131 -0.5740  0.1625
 1256TIP3    H125259   2.796   0.449   2.085 -0.5562  0.1245  0.1112
 1256TIP3    H225260   2.815   0.371   2.214  0.3471 -0.4124 -0.3414
 1257TIP3   OH225261   3.207   2.086   3.789 -0.1416  0.3602 -0.0263
 1257TIP3    H125262   3.295   2.103   3.756 -0.1221  0.1911 -0.0651
 1257TIP3    H225263   3.178   2.169   3.825  0.8610 -0.0639  1.9452
 1258TIP3   OH225264   1.495   2.773   2.155  0.0171 -0.0702 -0.3616
 1258TIP3    H125265   1.408   2.734   2.169 -0.0292 -0.5087 -1.7472
 1258TIP3    H225266   1.487   2.861   2.190 -0.4441 -0.6709  1.1452
 1259TIP3   OH225267   0.174   2.180  31.132  0.0097  0.0340 -0.6820
 1259TIP3    H125268   0.170   2.159  31.225 -1.8980  1.2486 -0.4302
 1259TIP3    H225269   0.106   2.126  31.092  1.0759 -0.7685 -1.4599
 1260TIP3   OH225270   1.626   0.642  10.353 -0.2581 -0.2131 -0.0462
 1260TIP3    H125271   1.604   0.670  10.442 -1.7913 -1.1149 -0.1103
 1260TIP3    H225272   1.581   0.704  10.296  0.2907  0.0489 -0.1984
 1261TIP3   OH225273   3.846   3.228   6.263  0.3655  0.1014 -0.1054
 1261TIP3    H125274   3.890   3.144   6.274  1.4034  0.4428 -1.4318
 1261TIP3    H225275   3.903   3.292   6.305  0.5538  0.3852 -0.7745
 1262TIP3   OH225276   2.681   1.212  11.634  0.5871  0.4581 -0.4429
 1262TIP3    H125277   2.719   1.125  11.629 -2.2647 -0.8703 -1.2606
 1262TIP3    H225278   2.663   1.225  11.727 -1.1973 -0.9780 -0.5206
 1263TIP3   OH225279   2.102   2.770  34.464  0.8707 -0.0150  0.1441
 1263TIP3    H125280   2.079   2.754  34.373  1.7138  0.0712 -0.0905
 1263TIP3    H225281   2.094   2.865  34.475 -1.1539 -0.2093  0.7141
 1264TIP3   OH225282   3.975   4.082  26.152 -0.8400 -0.0542  0.0048
 1264TIP3    H125283   3.915   4.013  26.123  1.1264 -2.1318  0.5627
 1264TIP3    H225284   4.030   4.099  26.075 -0.7130  0.1773  0.1457
 1265TIP3   OH225285   2.878   3.718  28.732  0.2306 -0.5617 -0.0491
 1265TIP3    H125286   2.931   3.717  28.812 -1.9860  2.0308  1.6176
 1265TIP3    H225287   2.809   3.653  28.747 -0.3768  0.1559  0.3326
 1266TIP3   OH225288   1.461   0.196  12.573  0.0673 -0.4481  0.0566
 1266TIP3    H125289   1.528   0.171  12.636 -0.9286 -1.4057  0.7534
 1266TIP3    H225290   1.470   0.292  12.567  0.4787 -0.3857  1.2973
 1267TIP3   OH225291   1.005   1.976  28.922  0.6371 -0.0348  0.6541
 1267TIP3    H125292   0.947   1.959  28.996  1.1703 -1.8065  0.7168
 1267TIP3    H225293   0.972   1.920  28.852  0.4936  1.1876 -0.2780
 1268TIP3   OH225294   3.652   2.851   6.817  0.4257  0.2962  0.1880
 1268TIP3    H125295   3.584   2.814   6.873  1.8289 -0.8300  1.2218
 1268TIP3    H225296   3.713   2.779   6.801  0.8260  0.9680 -1.6271
 1269TIP3   OH225297   0.219   4.015   0.324 -0.4575  0.1186  0.1128
 1269TIP3    H125298   0.299   4.063   0.346 -0.0016 -1.0993  1.2249
 1269TIP3    H225299   0.207   4.030   0.231 -0.2783  2.2915  0.3945
 1270TIP3   OH225300   0.726   0.227  15.485 -0.1583  0.4850 -0.0818
 1270TIP3    H125301   0.709   0.138  15.518 -0.0111  0.1480 -0.8970
 1270TIP3    H225302   0.649   0.277  15.511 -0.8296 -0.1904 -0.7113
 1271TIP3   OH225303   3.831   1.009   1.595 -0.6167  0.1190  0.4320
 1271TIP3    H125304   3.797   0.974   1.678  2.2979  0.0463  1.7195
 1271TIP3    H225305   3.916   0.966   1.584 -0.1865  1.3791 -1.7765
 1272TIP3   OH225306   4.134   2.229  36.694 -0.4335  0.5775 -0.2714
 1272TIP3    H125307   4.218   2.184  36.691 -0.4189  0.5896 -0.0849
 1272TIP3    H225308   4.105   2.219  36.785  0.7867  3.1137  0.4857
 1273TIP3   OH225309   1.401   0.432   5.393  0.5465  0.2036 -0.3733
 1273TIP3    H125310   1.472   0.371   5.414  0.8744  0.0193 -1.8819
 1273TIP3    H225311   1.418   0.508   5.448  1.0372 -0.4229  0.3799
 1274TIP3   OH225312   3.483   1.321   2.451  0.1127  0.1590 -0.2011
 1274TIP3    H125313   3.415   1.313   2.384 -0.3473 -1.0014  0.3576
 1274TIP3    H225314   3.538   1.244   2.439  1.2974  1.0452 -0.5886
 1275TIP3   OH225315   0.024   3.282  36.634  0.5465 -0.7788 -0.4266
 1275TIP3    H125316   0.114   3.275  36.603 -0.1167  1.1859 -3.2309
 1275TIP3    H225317   0.017   3.370  36.669 -0.1305 -1.1391  0.3740
 1276TIP3   OH225318   4.362   0.259  33.820 -0.0374  0.0093 -0.3116
 1276TIP3    H125319   4.292   0.251  33.885 -0.5678 -0.7618 -0.9590
 1276TIP3    H225320   4.439   0.223  33.864 -0.3173 -0.2232  0.0005
 1277TIP3   OH225321   1.146   2.950   7.545 -0.1189  0.3651  0.8152
 1277TIP3    H125322   1.067   2.959   7.600 -0.6248 -0.0799  0.1799
 1277TIP3    H225323   1.114   2.959   7.455  0.6921  0.9960  0.5819
 1278TIP3   OH225324   0.841   1.895  11.263 -0.0722  0.4740  0.1969
 1278TIP3    H125325   0.926   1.931  11.236  0.2165  0.3123  0.8860
 1278TIP3    H225326   0.791   1.890  11.181  0.4497  0.9146 -0.1603
 1279TIP3   OH225327   0.028   0.227  37.608  0.1924 -0.0592 -0.6293
 1279TIP3    H125328   0.047   0.252  37.699 -0.5574  0.5115 -0.6145
 1279TIP3    H225329   0.102   0.173  37.582  0.8155  0.4357  0.0646
 1280TIP3   OH225330   3.815   2.724  21.465  0.6340  0.0286 -0.4475
 1280TIP3    H125331   3.772   2.758  21.544 -1.1601  0.8813 -1.7296
 1280TIP3    H225332   3.848   2.638  21.492  0.4984  0.4863  1.3644
 1281TIP3   OH225333   4.266   3.149   6.874  0.1100 -0.3048  0.4969
 1281TIP3    H125334   4.181   3.187   6.851  1.1460  1.5473 -0.4669
 1281TIP3    H225335   4.250   3.054   6.873 -2.4685 -0.0088  2.6074
 1282TIP3   OH225336   2.673   1.809   0.158  0.3589  0.3206  0.3512
 1282TIP3    H125337   2.698   1.748   0.227 -1.4458 -1.0089 -0.0893
 1282TIP3    H225338   2.669   1.894   0.201 -0.0485 -0.3718  1.7391
 1283TIP3   OH225339   1.824   0.115   2.571  0.3844  0.3009  0.7872
 1283TIP3    H125340   1.808   0.205   2.601 -1.7102 -0.2563  1.4704
 1283TIP3    H225341   1.766   0.104   2.496  1.8410  0.0101 -0.3468
 1284TIP3   OH225342   2.552   1.764  12.923 -0.8030 -0.5452  0.1050
 1284TIP3    H125343   2.507   1.748  12.841  0.5458 -1.5974 -0.4703
 1284TIP3    H225344   2.582   1.855  12.917  0.0683 -0.8821 -0.9879
 1285TIP3   OH225345   2.991   3.249  28.996 -0.1710 -0.1294  0.1155
 1285TIP3    H125346   2.928   3.223  28.929  0.8526 -0.2517 -0.8163
 1285TIP3    H225347   3.065   3.190  28.984  2.3208  3.0987 -2.2103
 1286TIP3   OH225348   3.694   4.379   0.824 -0.5030 -0.4782 -0.0976
 1286TIP3    H125349   3.662   4.446   0.764 -0.9569  0.0028  0.6665
 1286TIP3    H225350   3.632   4.380   0.897  0.5203 -0.4385  0.7993
 1287TIP3   OH225351   1.759   2.004  11.161 -0.3345  0.7569  0.0148
 1287TIP3    H125352   1.705   2.066  11.113  0.2174  1.8916  0.8139
 1287TIP3    H225353   1.815   1.963  11.095 -1.6793  0.0554 -0.7223
 1288TIP3   OH225354   2.044   2.376  34.822 -0.5791 -0.3085  0.1433
 1288TIP3    H125355   2.067   2.441  34.756  1.6286 -1.0257  0.1130
 1288TIP3    H225356   2.010   2.427  34.895 -1.9654  0.5850 -1.0704
 1289TIP3   OH225357   1.187   0.024   0.611  0.2369  0.1542  0.3012
 1289TIP3    H125358   1.276   0.040   0.640  0.4728  1.4416 -0.9881
 1289TIP3    H225359   1.163   0.103   0.562 -1.3384 -0.4697 -0.0035
 1290TIP3   OH225360   0.574   4.305  32.146  0.2911  0.8420 -0.4737
 1290TIP3    H125361   0.487   4.338  32.171 -1.0447 -2.6974  0.1777
 1290TIP3    H225362   0.622   4.301  32.229 -1.5637 -3.8089  0.7025
 1291TIP3   OH225363   2.570   1.056   5.758 -0.4772 -0.5844  0.5614
 1291TIP3    H125364   2.638   1.048   5.691 -2.2708  0.9450 -1.5610
 1291TIP3    H225365   2.609   1.015   5.836  4.2954  3.0737  0.5956
 1292TIP3   OH225366   1.918   1.717   8.442  0.0062 -0.5830 -0.3423
 1292TIP3    H125367   1.840   1.762   8.474  0.3356 -0.5973  0.5024
 1292TIP3    H225368   1.897   1.695   8.351 -0.1919  1.2114 -0.7696
 1293TIP3   OH225369   0.972   3.470  34.553 -0.2823 -0.1428  0.8407
 1293TIP3    H125370   0.888   3.503  34.585 -0.4866  0.2439 -0.0749
 1293TIP3    H225371   1.037   3.529  34.592 -0.2413 -1.5793  3.1134
 1294TIP3   OH225372   2.213   1.463  33.312 -0.5615 -0.1501  0.0380
 1294TIP3    H125373   2.164   1.382  33.327  1.4513 -1.2132  1.3980
 1294TIP3    H225374   2.280   1.463  33.381  1.0889  1.4009 -1.4725
 1295TIP3   OH225375   2.188   0.351  31.326  0.4681 -0.3655  0.2056
 1295TIP3    H125376   2.207   0.260  31.304  0.7056  0.0517 -1.4002
 1295TIP3    H225377   2.141   0.385  31.250 -1.2153  0.3824  1.5169
 1296TIP3   OH225378   2.717   4.210  11.041 -0.5577  0.0774 -0.0611
 1296TIP3    H125379   2.693   4.297  11.072  0.1081 -0.4152  1.9906
 1296TIP3    H225380   2.648   4.153  11.076  0.2487 -0.5063  0.6207
 1297TIP3   OH225381   2.830   3.589  28.452  0.1833 -0.0912 -0.3341
 1297TIP3    H125382   2.749   3.630  28.421  0.4175  1.2896  0.7679
 1297TIP3    H225383   2.800   3.515  28.505 -0.3242 -0.0208 -0.5151
 1298TIP3   OH225384   3.957   3.087   6.586  0.4827 -0.1027 -0.6268
 1298TIP3    H125385   3.888   3.071   6.520  1.4431  0.3534 -1.7832
 1298TIP3    H225386   3.918   3.058   6.668 -0.9096 -0.3392 -1.3293
 1299TIP3   OH225387   0.684   0.254  13.847 -0.2918  0.7063 -0.0440
 1299TIP3    H125388   0.704   0.328  13.790  0.4800 -0.8525 -1.9110
 1299TIP3    H225389   0.758   0.249  13.907  0.5796  0.3590 -1.1208
 1300TIP3   OH225390   0.522   4.359  12.927 -0.5496 -0.5481 -0.8566
 1300TIP3    H125391   0.470   4.317  12.996 -1.6206  0.4130 -1.0471
 1300TIP3    H225392   0.613   4.346  12.954 -0.9340 -0.7915  0.3771
 1301TIP3   OH225393   0.911   1.579   1.476  0.2930 -0.3721 -0.6468
 1301TIP3    H125394   0.874   1.661   1.510 -0.1184 -0.2446 -1.3580
 1301TIP3    H225395   0.951   1.537   1.551 -2.3690 -1.1002  0.4756
 1302TIP3   OH225396   3.751   2.093  36.449 -0.3750  0.5221  0.1398
 1302TIP3    H125397   3.720   2.123  36.364 -0.1500  0.7911  0.1537
 1302TIP3    H225398   3.845   2.078  36.437 -0.6206 -1.0093 -0.1113
 1303TIP3   OH225399   4.247   0.695  12.893  0.4280 -0.3477  0.6681
 1303TIP3    H125400   4.177   0.648  12.847  0.4382 -0.8488  1.1578
 1303TIP3    H225401   4.210   0.716  12.979  0.2578  0.9572  0.3032
 1304TIP3   OH225402   3.668   3.929  11.232  0.0074 -0.2454 -0.2351
 1304TIP3    H125403   3.716   3.850  11.257 -1.0619 -0.3321  1.7418
 1304TIP3    H225404   3.719   4.000  11.269 -0.6678 -0.2587  0.7752
 1305TIP3   OH225405   4.405   1.839  39.246  0.0662 -0.4425  0.9214
 1305TIP3    H125406   4.344   1.768  39.265 -1.4402  1.1662  2.4223
 1305TIP3    H225407   4.471   1.833  39.315  0.2012 -0.6643  0.7735
 1306TIP3   OH225408   1.398   2.498  37.206 -0.5844 -0.0175  0.5428
 1306TIP3    H125409   1.485   2.516  37.240 -0.4738  0.3731  0.0562
 1306TIP3    H225410   1.396   2.403  37.196  0.0784  0.0377 -0.2134
 1307TIP3   OH225411   0.960   1.139  22.310 -0.0309  0.0142  0.3205
 1307TIP3    H125412   0.905   1.062  22.304 -0.2201  0.1323  0.5199
 1307TIP3    H225413   0.969   1.170  22.219  1.5831 -1.3025 -0.0084
 1308TIP3   OH225414   1.337   3.899  27.953  0.0131  0.4786 -0.0654
 1308TIP3    H125415   1.290   3.883  28.035  1.5922 -2.4657  0.4196
 1308TIP3    H225416   1.395   3.972  27.973 -0.4679  0.5835  1.0508
 1309TIP3   OH225417   1.400   1.659  41.181  0.5492  0.0912 -0.4225
 1309TIP3    H125418   1.420   1.737  41.233 -0.3798 -0.4812  0.8239
 1309TIP3    H225419   1.323   1.682  41.130  1.3555  0.5921 -1.4450
 1310TIP3   OH225420   1.810   0.694  34.901  0.0240 -0.3267  0.9504
 1310TIP3    H125421   1.804   0.789  34.888 -1.3231 -0.6640 -1.5076
 1310TIP3    H225422   1.896   0.671  34.864  0.6430 -0.0478  2.1364
 1311TIP3   OH225423   0.021   0.984   6.145  0.7354  0.3041  0.1944
 1311TIP3    H125424  -0.044   1.049   6.170 -0.6266 -1.1082  0.4800
 1311TIP3    H225425   0.089   0.991   6.211 -1.5078 -1.5247  2.9086
 1312TIP3   OH225426   0.400   1.917   1.113  0.0407 -0.2045 -0.1735
 1312TIP3    H125427   0.485   1.891   1.078  0.4081 -0.3235  0.7986
 1312TIP3    H225428   0.353   1.835   1.126  0.3338 -0.2364  0.6960
 1313TIP3   OH225429   3.222   1.589  13.380  0.3109  0.4804  0.2594
 1313TIP3    H125430   3.309   1.618  13.406  0.0557  0.8176  0.7572
 1313TIP3    H225431   3.202   1.515  13.437 -0.1138  1.0081  0.8051
 1314TIP3   OH225432   0.235   4.116  32.396 -0.3076 -0.7993 -0.3828
 1314TIP3    H125433   0.234   4.163  32.312  0.5333 -0.6838 -0.3335
 1314TIP3    H225434   0.144   4.123  32.428 -0.1274  1.2100 -0.1564
 1315TIP3   OH225435   3.718   3.106  23.469  0.5353 -0.4205  0.3072
 1315TIP3    H125436   3.781   3.176  23.451  0.3044  0.4876  2.7007
 1315TIP3    H225437   3.650   3.148  23.522 -0.7277 -1.9917 -0.0003
 1316TIP3   OH225438   2.582   1.793  29.141  0.3960  0.2484 -0.1194
 1316TIP3    H125439   2.578   1.700  29.120  0.6753  0.2709 -0.2757
 1316TIP3    H225440   2.535   1.801  29.224  3.2642 -0.5435  1.6895
 1317TIP3   OH225441   3.998   2.984  35.880 -0.8681  0.0719 -0.1691
 1317TIP3    H125442   3.908   3.016  35.881 -1.1089 -0.5070 -1.8508
 1317TIP3    H225443   4.030   3.003  35.792  0.8876  0.8428  0.5908
 1318TIP3   OH225444   1.354   1.096  11.016  0.3295  0.1512  0.3979
 1318TIP3    H125445   1.264   1.066  11.005  0.2886 -0.5353  2.1734
 1318TIP3    H225446   1.375   1.075  11.107  2.0118  1.0487  0.2636
 1319TIP3   OH225447   3.017   2.768  39.528  0.2179  0.2661  0.0153
 1319TIP3    H125448   3.053   2.839  39.474  1.3646 -0.5317 -0.3030
 1319TIP3    H225449   3.041   2.688  39.482  0.7778 -0.4130  1.4427
 1320TIP3   OH225450   3.640   3.953   2.268 -0.3204  0.6403  0.0224
 1320TIP3    H125451   3.611   3.862   2.258  1.8921 -0.0193 -0.9425
 1320TIP3    H225452   3.635   3.990   2.180  1.8343  0.4213 -0.2448
 1321TIP3   OH225453   1.665   0.751  29.158  0.2097  0.3437 -0.0845
 1321TIP3    H125454   1.744   0.804  29.153 -0.5391  1.3937 -1.9252
 1321TIP3    H225455   1.695   0.661  29.143  1.1957  0.5341  0.6536
 1322TIP3   OH225456   2.976   4.235  12.351 -0.2650  0.2434 -0.0532
 1322TIP3    H125457   2.982   4.258  12.258  1.0707  1.2613  0.2504
 1322TIP3    H225458   2.976   4.319  12.397 -2.4248 -0.1880  0.8489
 1323TIP3   OH225459   1.964   0.305  14.544  0.4420 -0.2576  0.4321
 1323TIP3    H125460   1.915   0.251  14.607 -0.2863  0.2720  0.3262
 1323TIP3    H225461   2.006   0.372  14.598 -0.2986  0.2830  0.3481
 1324TIP3   OH225462   2.331   1.019  33.383 -0.4748 -0.2190  0.0328
 1324TIP3    H125463   2.291   0.932  33.384 -1.8479  0.3781  1.7051
 1324TIP3    H225464   2.335   1.042  33.290  0.0550 -2.1087 -0.4501
 1325TIP3   OH225465   4.180   1.492  28.754  0.2496 -0.0699 -0.0817
 1325TIP3    H125466   4.174   1.542  28.672 -2.2230  0.1074  0.1391
 1325TIP3    H225467   4.220   1.553  28.815  1.0495  0.2028 -0.8538
 1326TIP3   OH225468   1.537   2.697   3.385  0.5222 -0.1700 -0.3915
 1326TIP3    H125469   1.604   2.649   3.336 -1.0283 -2.2770 -0.5680
 1326TIP3    H225470   1.508   2.636   3.453 -0.3603  1.1658  0.4949
 1327TIP3   OH225471   3.909   2.518  36.861 -0.2831 -0.6950  0.4232
 1327TIP3    H125472   3.864   2.471  36.932 -0.3398 -0.0406  0.8318
 1327TIP3    H225473   4.002   2.504  36.878 -0.2848 -0.1707  0.8927
 1328TIP3   OH225474   1.727   0.408  10.448 -0.3499 -0.0728 -0.3185
 1328TIP3    H125475   1.695   0.385  10.361 -0.8270  0.1797 -0.2156
 1328TIP3    H225476   1.714   0.502  10.454 -3.0790 -0.4229  1.0794
 1329TIP3   OH225477   1.678   2.671   5.538 -0.2729 -0.0740 -0.1948
 1329TIP3    H125478   1.694   2.693   5.630  0.4364 -1.5604  0.0737
 1329TIP3    H225479   1.686   2.576   5.535  3.1974  0.1159 -2.3815
 1330TIP3   OH225480   4.288   3.226   6.157 -0.3429  0.0693  0.0319
 1330TIP3    H125481   4.309   3.258   6.069 -0.9277 -1.1101 -0.5549
 1330TIP3    H225482   4.283   3.131   6.147  0.1494 -0.1204  1.4757
 1331TIP3   OH225483   2.640   0.838   1.643  0.6935  0.1924 -0.8115
 1331TIP3    H125484   2.609   0.892   1.716 -0.6702  1.4784 -2.2522
 1331TIP3    H225485   2.563   0.827   1.588  1.7194 -0.6076 -2.1288
 1332TIP3   OH225486   2.932   0.260   3.359  0.4086 -0.3213  0.0869
 1332TIP3    H125487   2.899   0.221   3.440  1.7846 -0.0989  0.7813
 1332TIP3    H225488   3.000   0.199   3.329  1.1602  0.4875  0.0916
 1333TIP3   OH225489   1.349   4.297  27.849  0.0243 -0.1382 -0.1199
 1333TIP3    H125490   1.427   4.262  27.892  2.2968  1.9218 -2.2880
 1333TIP3    H225491   1.292   4.220  27.836  1.7511 -1.7451  1.3060
 1334TIP3   OH225492   0.090   2.673  40.640  0.1383 -0.2522 -0.5412
 1334TIP3    H125493   0.073   2.608  40.708  0.6494 -0.1686 -0.3285
 1334TIP3    H225494   0.182   2.660  40.616  0.8606  1.6850  0.9354
 1335TIP3   OH225495   2.698   0.653  31.644 -0.3918  0.2130 -0.5206
 1335TIP3    H125496   2.738   0.740  31.647 -0.7249  0.3571 -0.1968
 1335TIP3    H225497   2.607   0.667  31.669 -0.1678 -0.3909  0.6997
 1336TIP3   OH225498   0.999   2.109   7.616  1.0056  0.1039  0.4046
 1336TIP3    H125499   0.941   2.050   7.663  1.6710 -1.3012 -0.4803
 1336TIP3    H225500   0.961   2.196   7.630 -0.8304 -0.6692  0.5343
 1337TIP3   OH225501   3.829   2.324  31.594 -0.2265  0.5700 -0.4985
 1337TIP3    H125502   3.887   2.313  31.520 -0.7712  2.4185 -1.2668
 1337TIP3    H225503   3.747   2.283  31.567  0.0257 -0.0483 -0.3255
 1338TIP3   OH225504   2.349   3.830  31.274 -0.5308 -0.1229  0.0153
 1338TIP3    H125505   2.427   3.850  31.325  0.5369 -0.1242 -1.5411
 1338TIP3    H225506   2.296   3.774  31.331  0.7369 -0.3540  1.0033
 1339TIP3   OH225507   3.251   2.625  38.265  0.6026 -0.5193  0.3920
 1339TIP3    H125508   3.183   2.693  38.259  1.1285 -0.0731 -0.8882
 1339TIP3    H225509   3.207   2.545  38.237  1.0050  0.0982 -2.2269
 1340TIP3   OH225510   2.735   2.356  32.216  0.6839 -0.1449 -0.1494
 1340TIP3    H125511   2.669   2.344  32.148  0.8223 -1.0666 -0.1420
 1340TIP3    H225512   2.743   2.270  32.257  0.1416  0.5514  1.4756
 1341TIP3   OH225513   0.636   1.821  39.305  0.3138 -0.0126 -0.0292
 1341TIP3    H125514   0.720   1.859  39.280  0.5165 -0.7109 -0.4407
 1341TIP3    H225515   0.576   1.846  39.235  0.5896 -0.9292 -0.6116
 1342TIP3   OH225516   1.114   1.728  35.231 -0.3280 -0.0180  0.1946
 1342TIP3    H125517   1.100   1.732  35.325 -1.0472 -2.0962  0.2287
 1342TIP3    H225518   1.209   1.717  35.221 -0.5280 -3.4713  0.9539
 1343TIP3   OH225519   0.930   0.425   2.432  0.2432 -0.5176  0.0475
 1343TIP3    H125520   0.949   0.344   2.384 -0.5748 -0.2654 -0.7205
 1343TIP3    H225521   0.931   0.399   2.524 -5.1955 -2.6747 -0.1817
 1344TIP3   OH225522   3.915   3.005   4.976  0.1389 -0.6797  0.4244
 1344TIP3    H125523   3.960   2.951   4.911  1.2920 -1.8016  2.0981
 1344TIP3    H225524   3.928   3.095   4.945 -0.1855 -1.2201 -1.3968
 1345TIP3   OH225525   2.673   4.076  13.504 -0.5005  0.4497 -0.1394
 1345TIP3    H125526   2.620   4.020  13.448 -0.6269  0.4390 -0.0104
 1345TIP3    H225527   2.653   4.165  13.476 -0.9727  0.4698  0.2451
 1346TIP3   OH225528   2.539   0.676   7.943  0.2816  0.1035  0.5742
 1346TIP3    H125529   2.521   0.712   7.857  0.5996  0.6557  0.7303
 1346TIP3    H225530   2.479   0.722   8.002 -2.1833 -2.4544  0.2689
 1347TIP3   OH225531   0.216   3.769   0.125  0.2046  0.1550 -0.2611
 1347TIP3    H125532   0.146   3.710   0.154  0.7142 -0.3887 -0.1201
 1347TIP3    H225533   0.239   3.819   0.204 -1.0930  1.4608 -0.6718
 1348TIP3   OH225534   0.817   0.012  40.762 -0.1211 -0.3506  0.4614
 1348TIP3    H125535   0.752  -0.001  40.694  0.9319 -0.8094 -0.4967
 1348TIP3    H225536   0.779   0.077  40.821 -2.7005 -2.7274  1.6390
 1349TIP3   OH225537   0.382   2.525  10.258 -0.1235  0.3858 -0.5502
 1349TIP3    H125538   0.393   2.603  10.313 -1.2158  0.4393 -0.3763
 1349TIP3    H225539   0.383   2.558  10.168 -0.6609  0.6270 -0.4750
 1350TIP3   OH225540   0.606   0.741  10.053 -0.0128  0.1998  0.5944
 1350TIP3    H125541   0.540   0.778  10.112  0.6381  1.2286  0.7066
 1350TIP3    H225542   0.680   0.719  10.109  0.8313  1.6987  0.1489
 1351TIP3   OH225543   0.547   0.611  32.002  0.3126 -0.0086 -0.4359
 1351TIP3    H125544   0.525   0.689  31.952 -0.1715  0.2057  0.1040
 1351TIP3    H225545   0.469   0.556  31.996  1.3433 -1.3889 -2.5272
 1352TIP3   OH225546   1.433   4.319  11.281 -0.2142 -0.0875 -0.3498
 1352TIP3    H125547   1.457   4.248  11.341  0.3062 -0.4796 -1.0111
 1352TIP3    H225548   1.374   4.279  11.218  0.5723 -0.0965 -1.0973
 1353TIP3   OH225549   0.170   2.797   5.597 -0.3224  0.3945 -0.1076
 1353TIP3    H125550   0.156   2.886   5.630  0.9984  0.8386 -0.6793
 1353TIP3    H225551   0.195   2.746   5.675  3.7198  1.6342 -0.3398
 1354TIP3   OH225552   1.577   3.766   3.165  0.4946 -0.1072  0.4370
 1354TIP3    H125553   1.556   3.726   3.249 -0.3107  0.8769  0.7220
 1354TIP3    H225554   1.504   3.825   3.147  0.4950 -0.5404 -1.1197
 1355TIP3   OH225555   3.040   3.261  33.590  0.4617  0.5445  0.4202
 1355TIP3    H125556   3.130   3.238  33.568 -0.2270 -2.6603  0.3848
 1355TIP3    H225557   3.017   3.332  33.529  2.1646 -0.3316 -1.3472
 1356TIP3   OH225558   1.416   2.745  16.180  0.1183 -0.2628 -0.6468
 1356TIP3    H125559   1.510   2.752  16.166  0.2425  2.1806  0.7123
 1356TIP3    H225560   1.377   2.790  16.105  0.1267  0.0950 -0.4400
 1357TIP3   OH225561   0.685   4.152  27.669 -0.3523  0.9581  0.0864
 1357TIP3    H125562   0.738   4.188  27.741  0.5321  0.0309 -0.0631
 1357TIP3    H225563   0.688   4.057  27.683 -0.1533  0.7594 -1.1810
 1358TIP3   OH225564   0.437   1.038   2.017 -0.1111 -0.2960  0.1531
 1358TIP3    H125565   0.446   1.103   2.086  0.1752 -0.1181 -0.0525
 1358TIP3    H225566   0.501   0.970   2.039 -0.2472 -0.3958  0.2406
 1359TIP3   OH225567   0.565   2.131  39.336  0.2912  0.3382 -0.2374
 1359TIP3    H125568   0.618   2.138  39.256  0.3704  0.9938 -0.1320
 1359TIP3    H225569   0.485   2.088  39.307  0.1463  0.9416 -0.7724
 1360TIP3   OH225570   1.372   1.950  10.671  0.0672  0.4364  0.0256
 1360TIP3    H125571   1.355   1.945  10.765  0.0355 -0.5322 -0.0274
 1360TIP3    H225572   1.421   1.871  10.651 -2.0330 -0.6324 -1.1974
 1361TIP3   OH225573   1.471   3.569  35.854 -0.5637 -0.4994 -0.0490
 1361TIP3    H125574   1.488   3.477  35.872  1.5537  0.0238  0.8587
 1361TIP3    H225575   1.426   3.601  35.932  2.1796  0.0756  1.4161
 1362TIP3   OH225576   2.122   0.997  28.150  0.4297  0.3874  0.5073
 1362TIP3    H125577   2.212   0.987  28.183  0.0111 -1.2015  1.2659
 1362TIP3    H225578   2.067   0.960  28.219 -0.7952  1.0124 -0.1091
 1363TIP3   OH225579   2.050   2.782  32.981  0.2615 -0.5159 -0.3401
 1363TIP3    H125580   2.107   2.772  33.057  0.9650 -0.9983 -0.9136
 1363TIP3    H225581   2.111   2.792  32.907 -0.4057  0.4261 -0.7834
 1364TIP3   OH225582   0.219   1.886   7.146  0.0749  0.3049  0.1894
 1364TIP3    H125583   0.241   1.795   7.168 -0.1945  0.8007  2.7121
 1364TIP3    H225584   0.124   1.889   7.151  0.1388  0.9731  1.2711
 1365TIP3   OH225585   0.309   4.032  35.058  0.5522  0.5375 -0.2637
 1365TIP3    H125586   0.318   3.976  35.135  1.9916 -0.4461 -1.0869
 1365TIP3    H225587   0.346   4.116  35.085 -0.3582  0.6872  0.5651
 1366TIP3   OH225588   0.022   0.471  29.803  0.3538  0.5366  0.2439
 1366TIP3    H125589  -0.069   0.501  29.803 -0.1129 -0.7830  1.4727
 1366TIP3    H225590   0.028   0.412  29.878  2.8385  2.3188  1.6090
 1367TIP3   OH225591   1.959   1.719  40.523 -0.4873 -0.8262  0.0956
 1367TIP3    H125592   1.918   1.791  40.571 -0.9073 -0.8151 -0.2722
 1367TIP3    H225593   1.970   1.650  40.588 -1.5194 -0.9978  0.0954
 1368TIP3   OH225594   1.446   3.452  29.431  0.2917 -0.1872  0.1737
 1368TIP3    H125595   1.464   3.477  29.522  1.1424 -1.8146  0.5045
 1368TIP3    H225596   1.368   3.502  29.407 -0.4814 -0.3641  2.0914
 1369TIP3   OH225597   0.387   1.722  28.382  0.2386 -0.6717 -0.5583
 1369TIP3    H125598   0.351   1.706  28.470 -0.3984  1.5804 -0.3620
 1369TIP3    H225599   0.339   1.660  28.326 -1.0961 -0.4948  0.3327
 1370TIP3   OH225600   3.038   0.657  36.766 -0.2259 -0.2357 -0.5564
 1370TIP3    H125601   3.113   0.688  36.816 -1.7658  2.4980  0.2579
 1370TIP3    H225602   3.050   0.694  36.679 -0.7797  0.5589 -0.3095
 1371TIP3   OH225603   0.639   0.077  28.717 -0.2281 -0.0875 -0.1594
 1371TIP3    H125604   0.638   0.118  28.804  0.7136 -1.4838  0.5369
 1371TIP3    H225605   0.732   0.073  28.694 -0.4292 -0.3657 -0.9389
 1372TIP3   OH225606   1.632   1.612   4.681  0.6433 -0.0781 -0.0702
 1372TIP3    H125607   1.665   1.660   4.605  1.4213 -0.3292  0.0994
 1372TIP3    H225608   1.666   1.660   4.756  0.3269 -0.1408  0.1145
 1373TIP3   OH225609   3.856   0.718   8.553  0.8031  0.0880 -0.3499
 1373TIP3    H125610   3.950   0.704   8.545  0.7545  0.0755 -0.8841
 1373TIP3    H225611   3.821   0.705   8.465  0.2445 -0.3383 -0.0801
 1374TIP3   OH225612   0.505   0.218  13.039  0.1609 -0.1221 -0.0810
 1374TIP3    H125613   0.532   0.293  12.987  0.8485 -0.3658 -0.0810
 1374TIP3    H225614   0.518   0.142  12.982  3.8942 -0.7793  1.3515
 1375TIP3   OH225615   3.807   4.274  28.241 -0.1394 -0.2947 -0.5394
 1375TIP3    H125616   3.814   4.181  28.222 -1.7055 -0.2686 -1.4227
 1375TIP3    H225617   3.884   4.294  28.294  1.0299 -1.7507 -1.6176
 1376TIP3   OH225618   3.438   4.161  27.659 -0.3354  0.1234 -0.5527
 1376TIP3    H125619   3.404   4.112  27.584 -1.5332 -0.8927  0.5901
 1376TIP3    H225620   3.501   4.101  27.700 -0.6011  0.1651 -0.0690
 1377TIP3   OH225621   2.156   1.356   5.422 -0.5897 -0.3966  0.0286
 1377TIP3    H125622   2.085   1.390   5.476 -0.1108  0.4221  0.1662
 1377TIP3    H225623   2.114   1.330   5.340 -1.3760 -1.9649  0.8903
 1378TIP3   OH225624   3.249   4.070  39.648  0.0850 -0.2390  0.5592
 1378TIP3    H125625   3.157   4.085  39.625 -0.1231 -0.7808  1.0255
 1378TIP3    H225626   3.250   3.984  39.689  0.7380 -0.0670  0.9239
 1379TIP3   OH225627   0.568   3.409   7.634  0.5238  0.1530  0.8119
 1379TIP3    H125628   0.517   3.389   7.712 -0.6203 -0.9806 -0.1765
 1379TIP3    H225629   0.637   3.343   7.632 -0.9196 -1.4296 -0.3740
 1380TIP3   OH225630   0.432   2.170  11.228 -0.5246  0.1646  0.7194
 1380TIP3    H125631   0.527   2.176  11.243 -0.5222 -1.3321  1.5023
 1380TIP3    H225632   0.422   2.186  11.134  0.7666 -1.8112  0.1797
 1381TIP3   OH225633   0.539   3.647   1.183  0.8018  0.2203 -0.0427
 1381TIP3    H125634   0.518   3.609   1.098 -0.1580 -2.2678  1.1968
 1381TIP3    H225635   0.468   3.617   1.240  2.0626  0.7672  1.9010
 1382TIP3   OH225636   0.867   0.508  27.249 -0.0447 -0.0606 -0.2896
 1382TIP3    H125637   0.847   0.424  27.292  0.1067  0.5764  1.0803
 1382TIP3    H225638   0.840   0.495  27.158 -1.1913 -1.1883  0.1700
 1383TIP3   OH225639   3.322   4.344  31.656 -0.2031  1.0869  0.0340
 1383TIP3    H125640   3.315   4.424  31.604 -1.8817  0.2431 -1.1528
 1383TIP3    H225641   3.258   4.354  31.726 -2.0643 -0.0594 -1.4132
 1384TIP3   OH225642   2.739   0.981  39.555  0.2804 -0.5862 -0.1663
 1384TIP3    H125643   2.750   0.931  39.636 -1.8000 -0.5448  0.2082
 1384TIP3    H225644   2.706   0.918  39.491 -0.4115 -0.1294 -0.2719
 1385TIP3   OH225645   2.319   3.656   5.470 -0.3542  0.4170 -0.6388
 1385TIP3    H125646   2.349   3.585   5.526  1.4179  1.3774 -0.2716
 1385TIP3    H225647   2.292   3.614   5.389  1.2835 -0.6603 -0.6743
 1386TIP3   OH225648   0.525   1.289  31.201 -0.4973  0.8014 -0.0954
 1386TIP3    H125649   0.509   1.352  31.131 -1.0084 -0.0807 -0.7921
 1386TIP3    H225650   0.575   1.219  31.159  0.1313  0.7588  0.6867
 1387TIP3   OH225651   3.892   2.077  32.989 -0.5137 -0.9537 -0.6149
 1387TIP3    H125652   3.911   2.009  32.924  1.0711 -1.0613 -0.0885
 1387TIP3    H225653   3.797   2.076  32.997 -0.5481 -3.1087 -0.6278
 1388TIP3   OH225654   2.701   1.873   6.400  0.6388  0.2727 -0.2344
 1388TIP3    H125655   2.716   1.845   6.310 -0.6233 -0.0011 -0.3908
 1388TIP3    H225656   2.756   1.815   6.453  2.7820  1.6085 -0.8868
 1389TIP3   OH225657   3.101   2.806  32.084 -0.2402 -0.4420 -0.6755
 1389TIP3    H125658   3.131   2.882  32.035 -0.9148 -0.2949 -0.8633
 1389TIP3    H225659   3.009   2.823  32.102 -0.3526 -1.1319 -0.5598
 1390TIP3   OH225660   3.079   4.224  11.041 -0.2109 -0.1011  0.6121
 1390TIP3    H125661   3.090   4.184  11.128 -0.8257  1.4850  1.4628
 1390TIP3    H225662   3.161   4.271  11.027  0.1427 -0.8647  0.0191
 1391TIP3   OH225663   0.515   0.751  26.614 -0.7090  0.5088  0.2245
 1391TIP3    H125664   0.495   0.780  26.525  0.9226  0.0380 -0.3275
 1391TIP3    H225665   0.533   0.657  26.605 -1.2314  0.3034  1.1815
 1392TIP3   OH225666   0.829   0.216  15.212  0.8785 -0.8158 -0.0115
 1392TIP3    H125667   0.908   0.163  15.223  0.0469 -1.8899  0.9465
 1392TIP3    H225668   0.772   0.191  15.285 -0.5522 -0.4352 -0.9500
 1393TIP3   OH225669   4.177   1.258  36.135 -0.3965 -0.1920 -0.0981
 1393TIP3    H125670   4.138   1.330  36.185 -0.7641 -1.4393  1.4772
 1393TIP3    H225671   4.247   1.225  36.191  0.3836 -0.4970 -1.2094
 1394TIP3   OH225672   1.202   3.178  15.303 -0.8387 -0.7305 -0.0629
 1394TIP3    H125673   1.212   3.105  15.364  0.3346  0.4088  1.1782
 1394TIP3    H225674   1.137   3.235  15.343  0.2220  0.2176  0.3641
 1395TIP3   OH225675   2.108   3.822  34.250  0.0389 -0.1787 -0.3230
 1395TIP3    H125676   2.137   3.902  34.207  0.5069 -0.4912 -0.6083
 1395TIP3    H225677   2.184   3.793  34.301 -0.5958  0.3292  0.9472
 1396TIP3   OH225678   4.388   0.297   2.289 -0.3380 -0.1448  0.2886
 1396TIP3    H125679   4.469   0.346   2.273 -0.5451 -0.4148 -1.9411
 1396TIP3    H225680   4.395   0.220   2.233 -1.7518 -0.6541  0.7611
 1397TIP3   OH225681   0.065   0.423  29.441 -0.3552 -0.5060  0.1986
 1397TIP3    H125682   0.129   0.430  29.370 -0.0573 -2.1619  0.2481
 1397TIP3    H225683  -0.018   0.451  29.402  0.0120 -0.3553 -0.4880
 1398TIP3   OH225684   1.947   2.683  32.196  0.7436 -0.0206  0.1178
 1398TIP3    H125685   1.940   2.639  32.112 -0.3614 -0.6744  0.5306
 1398TIP3    H225686   2.036   2.663  32.226  1.8844  1.9352 -1.7819
 1399TIP3   OH225687   4.245   3.183  38.027 -0.1936  0.3511 -0.2515
 1399TIP3    H125688   4.229   3.230  37.945 -1.5428  1.1652  0.4552
 1399TIP3    H225689   4.309   3.238  38.073  0.3426  0.0421 -0.6043
 1400TIP3   OH225690   2.917   1.151  39.157  0.2119 -0.0768 -0.2340
 1400TIP3    H125691   3.008   1.176  39.141 -0.1701  1.0062 -0.8360
 1400TIP3    H225692   2.915   1.056  39.144  1.1305 -0.0205 -0.8752
 1401TIP3   OH225693   2.453   0.606  40.783 -0.7246  0.1893  0.0251
 1401TIP3    H125694   2.371   0.652  40.766 -0.8108  0.7091  1.6153
 1401TIP3    H225695   2.466   0.615  40.878  0.4276 -1.1359  0.0283
 1402TIP3   OH225696   1.111   4.288  11.612  0.7434  0.1547  0.0426
 1402TIP3    H125697   1.123   4.193  11.601  1.1564  0.2697 -0.5942
 1402TIP3    H225698   1.142   4.306  11.700  1.0328 -0.2470  0.0289
 1403TIP3   OH225699   1.225   1.034   4.899  0.5925 -0.0941  0.2804
 1403TIP3    H125700   1.300   1.091   4.882 -1.9462  2.9278 -2.0317
 1403TIP3    H225701   1.209   1.043   4.993  1.7667  1.0195  0.4054
 1404TIP3   OH225702   2.525   1.502   7.486 -0.1832  0.8740 -0.2286
 1404TIP3    H125703   2.470   1.560   7.538 -1.7270  0.0314 -0.8597
 1404TIP3    H225704   2.614   1.526   7.510 -0.8285  1.2182  1.9867
 1405TIP3   OH225705   2.383   2.415  33.540  0.3080  0.6432  0.6464
 1405TIP3    H125706   2.302   2.437  33.586 -0.1682  1.4005 -0.5125
 1405TIP3    H225707   2.445   2.484  33.566  0.2293  0.7162  0.6406
 1406TIP3   OH225708   3.005   1.016  38.852 -0.2848  0.1537 -0.0608
 1406TIP3    H125709   3.031   1.105  38.876  1.1745 -0.0290 -0.8665
 1406TIP3    H225710   2.915   1.025  38.820 -0.7075  1.0741  1.2952
 1407TIP3   OH225711   1.543   0.131  18.864  0.9740  0.7810  0.1818
 1407TIP3    H125712   1.515   0.221  18.845  0.6613  0.8888  1.0763
 1407TIP3    H225713   1.636   0.139  18.885  0.7447  1.0521  1.1586
 1408TIP3   OH225714   0.814   3.600   5.274 -0.3293  0.3935 -0.2173
 1408TIP3    H125715   0.879   3.671   5.274 -0.2862  0.3854 -1.7511
 1408TIP3    H225716   0.760   3.617   5.196 -0.9122 -0.7232 -0.0749
 1409TIP3   OH225717   0.824   4.230   0.728 -0.4127 -0.6451 -0.1124
 1409TIP3    H125718   0.785   4.144   0.709  0.2145 -1.3062  1.4231
 1409TIP3    H225719   0.873   4.217   0.809 -0.7091  1.2964  0.4435
 1410TIP3   OH225720   2.144   2.506  28.467 -0.2219  0.4767  0.0206
 1410TIP3    H125721   2.188   2.450  28.531 -0.2392 -0.3173 -0.6506
 1410TIP3    H225722   2.211   2.525  28.401 -0.4947  0.4052 -0.2830
 1411TIP3   OH225723   1.750   0.469   4.585 -0.5067 -0.5259  0.1830
 1411TIP3    H125724   1.735   0.459   4.491  0.5501  2.1052 -0.3319
 1411TIP3    H225725   1.689   0.538   4.612 -1.5836 -1.9883  1.7084
 1412TIP3   OH225726   4.091   2.092   2.962  0.7238 -0.0919  0.0345
 1412TIP3    H125727   4.164   2.030   2.962  0.2554 -0.7430  2.3863
 1412TIP3    H225728   4.089   2.127   2.873  1.5760 -2.7619 -1.1119
 1413TIP3   OH225729   1.987   1.818  36.648  0.3049 -0.0495 -0.3216
 1413TIP3    H125730   2.045   1.893  36.657  0.8446 -0.5541  0.5097
 1413TIP3    H225731   1.899   1.856  36.643  0.6810  0.7011 -1.3755
 1414TIP3   OH225732   3.804   2.445  30.209 -0.7800  0.1314  0.0270
 1414TIP3    H125733   3.824   2.367  30.261 -0.6264  0.1953  0.0636
 1414TIP3    H225734   3.887   2.492  30.204 -0.2301 -0.9197 -2.0602
 1415TIP3   OH225735   1.829   3.941  27.462  0.4168  0.6503  0.0089
 1415TIP3    H125736   1.844   3.849  27.439 -1.0187  0.1198  1.0608
 1415TIP3    H225737   1.737   3.957  27.442  0.3080  1.4625  1.0561
 1416TIP3   OH225738   3.545   3.413   8.009 -0.7801 -0.3598 -0.0132
 1416TIP3    H125739   3.545   3.461   8.092 -2.6154  1.6270 -1.0709
 1416TIP3    H225740   3.580   3.475   7.945  0.8613 -1.9514 -0.7283
 1417TIP3   OH225741   3.900   2.625  39.032  0.4873  0.2353 -0.3250
 1417TIP3    H125742   3.939   2.712  39.034 -0.9150  0.8940  0.0136
 1417TIP3    H225743   3.805   2.641  39.027  0.2570 -1.2482 -3.2197
 1418TIP3   OH225744   2.843   3.630   8.183  0.7066 -0.0241  0.2103
 1418TIP3    H125745   2.932   3.603   8.162  0.2272 -0.8704 -0.8014
 1418TIP3    H225746   2.791   3.550   8.179 -0.6714  0.8783 -2.3601
 1419TIP3   OH225747   2.890   3.735   1.578 -0.6629 -0.2740  0.9980
 1419TIP3    H125748   2.964   3.757   1.521 -0.1321 -2.2005  0.8592
 1419TIP3    H225749   2.897   3.795   1.652  1.0788 -0.4423  1.0058
 1420TIP3   OH225750   3.801   1.975   7.995  0.5755 -0.1933  0.1050
 1420TIP3    H125751   3.818   2.054   7.944  0.8338 -0.0795  0.3682
 1420TIP3    H225752   3.888   1.944   8.021  0.4592 -0.3980  0.2536
 1421TIP3   OH225753   1.441   0.394  13.513  0.1373  0.5306  0.2933
 1421TIP3    H125754   1.349   0.416  13.499  0.6751  2.3488 -0.7017
 1421TIP3    H225755   1.477   0.384  13.425  1.3385  1.9199  0.5928
 1422TIP3   OH225756   2.067   1.808  14.872  0.4151 -0.5368 -0.0655
 1422TIP3    H125757   2.027   1.886  14.911 -0.8914 -1.3381  0.2667
 1422TIP3    H225758   2.160   1.829  14.866  0.3879  0.2834  1.8621
 1423TIP3   OH225759   0.054   2.924   0.497 -0.5110 -0.1489 -0.1279
 1423TIP3    H125760   0.014   2.939   0.412 -1.6798  3.4434  0.8776
 1423TIP3    H225761  -0.011   2.873   0.546 -0.4928 -0.8808 -0.8413
 1424TIP3   OH225762   2.578   1.242  37.118 -0.8556  0.6485 -0.2362
 1424TIP3    H125763   2.613   1.314  37.171 -1.3054  0.7758 -0.1033
 1424TIP3    H225764   2.571   1.169  37.180  0.2227  0.2827 -0.5225
 1425TIP3   OH225765   3.314   3.244  40.634  0.1958 -0.4563  0.4858
 1425TIP3    H125766   3.373   3.184  40.589  1.3412 -0.3978  1.8345
 1425TIP3    H225767   3.361   3.328  40.634 -0.2474 -0.2022  0.8682
 1426TIP3   OH225768   3.563   2.497  30.058 -0.4184 -0.3201  0.1671
 1426TIP3    H125769   3.628   2.493  30.128  1.5296  0.4880 -1.5017
 1426TIP3    H225770   3.613   2.482  29.978 -2.7589 -2.4698 -1.0279
 1427TIP3   OH225771   1.462   1.326   9.832  0.5781  0.0752  0.8853
 1427TIP3    H125772   1.497   1.244   9.865  1.7451 -0.9056 -2.4647
 1427TIP3    H225773   1.538   1.383   9.822  0.3792  0.1149 -0.6050
 1428TIP3   OH225774   2.872   3.805  41.009  0.2705  0.7816  0.2345
 1428TIP3    H125775   2.912   3.890  40.990  1.8520  0.1823  0.7304
 1428TIP3    H225776   2.893   3.788  41.101  0.4592 -0.3789 -0.0032
 1429TIP3   OH225777   0.920   1.924   9.172  0.0316 -0.2213  0.4872
 1429TIP3    H125778   0.859   1.874   9.118  2.3787 -1.5619 -1.1099
 1429TIP3    H225779   0.958   1.859   9.231  0.7671  0.3332  0.6377
 1430TIP3   OH225780   2.438   1.125  13.533  0.3571 -0.1780  0.5847
 1430TIP3    H125781   2.477   1.063  13.596  0.0222  3.0061  4.3279
 1430TIP3    H225782   2.512   1.161  13.485  1.2643  0.4584  2.3711
 1431TIP3   OH225783   0.757   1.727   0.429  0.0949 -0.9172 -0.1672
 1431TIP3    H125784   0.779   1.678   0.508  2.0903 -1.6141 -1.0892
 1431TIP3    H225785   0.682   1.681   0.392  0.1098 -1.5061  0.5187
 1432TIP3   OH225786   3.551   3.625  36.776 -0.1196  0.3862  0.8220
 1432TIP3    H125787   3.482   3.677  36.817  0.1050  1.5622 -0.2193
 1432TIP3    H225788   3.549   3.650  36.684  0.8578 -0.5071  0.5287
 1433TIP3   OH225789   2.926   4.022   1.609 -0.3434 -0.2137 -0.6169
 1433TIP3    H125790   2.870   4.085   1.562  0.6818  1.0955 -0.1373
 1433TIP3    H225791   3.015   4.043   1.580  0.2427  0.1081  1.3045
 1434TIP3   OH225792   0.993   3.174  34.188  0.2110  1.0953  0.2133
 1434TIP3    H125793   0.979   3.268  34.185 -3.4617  0.7193  0.0292
 1434TIP3    H225794   0.956   3.142  34.105 -0.1059 -0.6020  0.9664
 1435TIP3   OH225795   3.640   1.982  28.452 -0.4344  0.0795  0.9595
 1435TIP3    H125796   3.578   2.049  28.427  0.0873 -0.4948 -2.3588
 1435TIP3    H225797   3.687   2.019  28.526 -1.9387  2.2223  0.9306
 1436TIP3   OH225798   0.011   0.473  26.104 -0.0253  0.0369  0.0717
 1436TIP3    H125799   0.018   0.521  26.022  0.1486 -1.0412 -0.5610
 1436TIP3    H225800   0.083   0.505  26.158  0.5761 -0.1005 -0.6461
 1437TIP3   OH225801   3.592   0.159  11.001 -0.1589  1.0158 -0.0601
 1437TIP3    H125802   3.621   0.126  10.916 -1.3312  0.3527 -0.2202
 1437TIP3    H225803   3.663   0.137  11.060 -0.8905 -2.0047 -0.1251
 1438TIP3   OH225804   4.320   0.110  26.413  0.2554 -0.1140  0.0915
 1438TIP3    H125805   4.354   0.031  26.456 -0.8220 -0.2274  0.7848
 1438TIP3    H225806   4.340   0.180  26.475  2.3424  0.4056 -1.0783
 1439TIP3   OH225807   4.016   2.226   1.505 -0.1291  0.3992  0.6313
 1439TIP3    H125808   4.102   2.208   1.542 -0.3232  0.0174  0.9045
 1439TIP3    H225809   4.003   2.157   1.440  0.1567  0.9914 -0.0658
 1440TIP3   OH225810   2.092   2.123  30.353  0.3180 -0.1832  0.4661
 1440TIP3    H125811   2.130   2.091  30.435  1.4941 -0.3763 -0.1393
 1440TIP3    H225812   2.166   2.130  30.293 -0.5017  0.1209 -0.5357
 1441TIP3   OH225813   2.100   3.443  36.636  0.0005 -0.2482 -0.5024
 1441TIP3    H125814   2.035   3.508  36.662  1.8657  1.8065 -0.5809
 1441TIP3    H225815   2.076   3.419  36.547 -0.7495  0.3328 -0.4677
 1442TIP3   OH225816   1.403   3.195  28.514  0.0619  0.3748 -0.0706
 1442TIP3    H125817   1.466   3.168  28.447  1.3842  1.8713  0.4914
 1442TIP3    H225818   1.409   3.291  28.515 -2.9307  0.6782 -0.6358
 1443TIP3   OH225819   2.394   4.390  30.629 -0.2623 -0.2281  0.4149
 1443TIP3    H125820   2.485   4.370  30.650 -0.1821  0.0248  0.3135
 1443TIP3    H225821   2.396   4.416  30.537 -0.7669 -2.3246 -0.2404
 1444TIP3   OH225822   1.351   0.911   7.345 -0.3984  0.6042  0.2530
 1444TIP3    H125823   1.323   0.998   7.318  1.5321  0.8381 -1.2788
 1444TIP3    H225824   1.421   0.889   7.284  1.1609 -0.8005  2.3960
 1445TIP3   OH225825   3.382   0.735  36.377 -0.2147  0.0286  0.1131
 1445TIP3    H125826   3.318   0.703  36.313 -0.5363  0.9129 -0.0240
 1445TIP3    H225827   3.431   0.802  36.330 -0.3955  0.6262  0.7551
 1446TIP3   OH225828   0.439   0.740   9.649 -0.1468 -0.1196 -0.0195
 1446TIP3    H125829   0.447   0.652   9.687 -1.0293 -0.5005 -0.6779
 1446TIP3    H225830   0.522   0.783   9.670  0.2107 -1.0394  0.4980
 1447TIP3   OH225831   1.849   0.170  12.216 -0.2448 -0.3146  0.4960
 1447TIP3    H125832   1.758   0.195  12.226  0.1426  1.4424 -0.0037
 1447TIP3    H225833   1.858   0.148  12.124 -0.0664 -0.0386  0.4466
 1448TIP3   OH225834   2.082   3.603  18.456 -0.0977 -0.0238  0.7629
 1448TIP3    H125835   2.072   3.564  18.369 -1.7576 -0.8712  1.3063
 1448TIP3    H225836   2.149   3.549  18.498  2.3569  1.6973 -0.6561
 1449TIP3   OH225837   0.305   4.334   8.583  0.3007  0.7175 -0.0947
 1449TIP3    H125838   0.238   4.267   8.571 -0.5162  1.4135  0.4379
 1449TIP3    H225839   0.384   4.297   8.542 -0.0507 -0.6636  0.4155
 1450TIP3   OH225840   2.376   2.103   6.812  0.0521 -0.2450  0.2377
 1450TIP3    H125841   2.425   2.177   6.849 -1.9520 -0.0735  2.8329
 1450TIP3    H225842   2.338   2.138   6.731  1.9375  0.4201 -0.4187
 1451TIP3   OH225843   0.672   0.716  27.484  0.0137 -0.3537 -0.2862
 1451TIP3    H125844   0.671   0.802  27.442  0.7607 -0.3428 -0.2947
 1451TIP3    H225845   0.764   0.695  27.493 -0.1580 -0.9634  0.1200
 1452TIP3   OH225846   0.923   1.802  28.116 -0.4570  0.0714 -0.6195
 1452TIP3    H125847   0.995   1.792  28.178 -1.2595 -1.0002  0.1812
 1452TIP3    H225848   0.948   1.746  28.042 -0.3464 -0.0955 -0.4588
 1453TIP3   OH225849   0.174   0.850  26.609  0.0780 -0.0746 -0.4241
 1453TIP3    H125850   0.191   0.757  26.623 -0.2437  0.1264  1.5210
 1453TIP3    H225851   0.146   0.856  26.518  1.6294 -1.6432 -1.0569
 1454TIP3   OH225852   1.884   2.916  36.095 -0.0511  0.0092 -0.2195
 1454TIP3    H125853   1.952   2.984  36.096  0.2785 -0.1822 -2.7145
 1454TIP3    H225854   1.805   2.962  36.068 -0.1265 -0.3782 -0.6567
 1455TIP3   OH225855   2.829   3.441  27.892  0.3256 -0.1680  0.3616
 1455TIP3    H125856   2.829   3.464  27.984 -1.1361 -1.0272  0.6135
 1455TIP3    H225857   2.780   3.358  27.888 -1.2720  0.7798 -1.3596
 1456TIP3   OH225858   4.322   4.186  11.553 -0.2666 -0.0042  0.9143
 1456TIP3    H125859   4.238   4.204  11.510  0.1115  3.3771  1.4013
 1456TIP3    H225860   4.388   4.215  11.489  0.5663 -1.5872  0.9952
 1457TIP3   OH225861   4.382   3.058   9.185  0.4482  0.3856 -0.1352
 1457TIP3    H125862   4.413   3.091   9.100  0.3062 -2.0024 -1.1909
 1457TIP3    H225863   4.287   3.058   9.177  0.4159 -2.3641 -1.1607
 1458TIP3   OH225864   4.162   2.750  40.855  0.2763  0.4877 -0.2054
 1458TIP3    H125865   4.210   2.668  40.844  0.8613  0.5164  1.8163
 1458TIP3    H225866   4.155   2.785  40.766  1.1645 -1.0895 -0.9510
 1459TIP3   OH225867   1.460   0.589   2.256  0.3016 -0.0573  0.5415
 1459TIP3    H125868   1.375   0.585   2.212  1.9324  1.5199 -3.2888
 1459TIP3    H225869   1.497   0.672   2.226  4.4909 -2.1546 -0.8361
 1460TIP3   OH225870   3.867   0.936  11.905  0.2851  0.4299 -0.2188
 1460TIP3    H125871   3.772   0.927  11.901  0.2996 -0.0940  0.4289
 1460TIP3    H225872   3.900   0.878  11.836  0.2055 -1.1525  1.0195
 1461TIP3   OH225873   3.289   3.546   1.338  0.0016  0.9363  0.0447
 1461TIP3    H125874   3.248   3.631   1.356  0.5869  1.1874  0.1877
 1461TIP3    H225875   3.217   3.492   1.305 -0.2685  1.6333 -0.5215
 1462TIP3   OH225876   0.292   4.087  29.472 -0.1515 -0.2846 -0.3395
 1462TIP3    H125877   0.273   3.997  29.445  2.1817 -0.4473 -1.6639
 1462TIP3    H225878   0.229   4.140  29.424  0.3004 -1.0157 -1.7923
 1463TIP3   OH225879   0.643   1.546  38.920  0.4736 -0.0366 -0.0202
 1463TIP3    H125880   0.703   1.484  38.962 -0.5976 -1.3253 -0.3272
 1463TIP3    H225881   0.562   1.540  38.971  0.7320  2.1030  0.7445
 1464TIP3   OH225882   4.216   3.909   7.547  0.3156 -0.1541  0.1873
 1464TIP3    H125883   4.140   3.951   7.507  0.3698 -0.9893 -0.8261
 1464TIP3    H225884   4.188   3.891   7.637 -0.6524 -0.3525 -0.1380
 1465TIP3   OH225885   1.561   0.769   0.271  0.0936 -0.2832  0.1424
 1465TIP3    H125886   1.496   0.834   0.247 -0.4585 -0.8902 -0.0376
 1465TIP3    H225887   1.541   0.693   0.216  0.6293 -0.6632  0.4567
 1466TIP3   OH225888   0.257   2.268  36.719 -0.0424 -0.0955 -0.1083
 1466TIP3    H125889   0.295   2.181  36.706 -1.3259 -0.7528  0.3630
 1466TIP3    H225890   0.205   2.259  36.798 -1.5941  0.6102 -1.0108
 1467TIP3   OH225891   0.888   4.188  13.376  0.1108 -0.1473 -0.6863
 1467TIP3    H125892   0.900   4.150  13.463  0.3598  0.1804 -0.5786
 1467TIP3    H225893   0.928   4.124  13.317 -1.3911 -1.1168 -0.7152
 1468TIP3   OH225894   1.414   1.818  14.950 -0.3688  0.1069  0.7308
 1468TIP3    H125895   1.432   1.839  15.042 -1.9577  0.0513  1.0799
 1468TIP3    H225896   1.339   1.873  14.927 -0.9048 -0.9242 -0.0917
 1469TIP3   OH225897   1.678   4.287   2.637  0.7792  0.7056 -0.5100
 1469TIP3    H125898   1.704   4.250   2.722  0.7510  1.2798 -0.2448
 1469TIP3    H225899   1.740   4.358   2.622  2.8715 -1.3839 -2.5255
 1470TIP3   OH225900   1.993   1.940   0.595  1.2835 -0.0759  0.0756
 1470TIP3    H125901   2.065   1.953   0.533  1.3295 -1.5144 -0.1933
 1470TIP3    H225902   2.022   1.867   0.650 -0.4695 -1.5206 -0.8157
 1471TIP3   OH225903   1.331   4.160  14.614 -0.3198  0.6395 -0.2301
 1471TIP3    H125904   1.302   4.078  14.576  0.1439  0.1552  0.4395
 1471TIP3    H225905   1.313   4.226  14.546 -1.3521  0.1042 -0.4913
 1472TIP3   OH225906   1.066   1.104   8.561 -0.2896 -0.2209  0.1350
 1472TIP3    H125907   1.137   1.074   8.505 -0.1832 -1.2022  0.7665
 1472TIP3    H225908   1.068   1.200   8.554  2.9325  0.0391  2.2524
 1473TIP3   OH225909   0.532   0.172   7.883 -0.2450  0.5386 -0.4006
 1473TIP3    H125910   0.516   0.104   7.948 -2.2312  0.7986 -0.5661
 1473TIP3    H225911   0.486   0.143   7.805  0.7383  1.0318 -1.2000
 1474TIP3   OH225912   3.850   1.515   7.474  0.7081  0.7021 -0.6458
 1474TIP3    H125913   3.822   1.430   7.509 -1.5773  1.5943 -0.1426
 1474TIP3    H225914   3.926   1.494   7.419  0.2810 -1.6364 -0.4554
 1475TIP3   OH225915   0.572   0.853   3.361 -0.0554  0.1798  0.0171
 1475TIP3    H125916   0.583   0.885   3.271  0.5525 -0.3637 -0.1141
 1475TIP3    H225917   0.522   0.921   3.405  0.4647  0.9007 -0.4818
 1476TIP3   OH225918   0.214   4.111  10.673 -0.5140  0.3942  0.1073
 1476TIP3    H125919   0.135   4.156  10.702 -0.8566 -0.0113 -0.1735
 1476TIP3    H225920   0.195   4.086  10.583 -0.2431 -0.1035  0.1856
 1477TIP3   OH225921   2.713   1.711   6.825 -0.5302  0.0245 -0.4325
 1477TIP3    H125922   2.647   1.768   6.865  0.2602  0.1074  0.8025
 1477TIP3    H225923   2.686   1.705   6.733 -1.2605  1.4789 -0.3499
 1478TIP3   OH225924   2.492   1.197  31.822 -0.3642  0.1996  0.4691
 1478TIP3    H125925   2.485   1.179  31.916 -0.3028  0.8912  0.6127
 1478TIP3    H225926   2.580   1.167  31.799 -0.0583  0.7875  0.8201
 1479TIP3   OH225927   2.479   2.651  28.794  0.2048 -0.4091  0.6400
 1479TIP3    H125928   2.477   2.733  28.844  1.4799 -0.7994  1.3623
 1479TIP3    H225929   2.545   2.597  28.838 -0.3159 -1.6748 -0.0735
 1480TIP3   OH225930   3.038   2.749  31.274  0.2202  0.4250  0.1460
 1480TIP3    H125931   3.128   2.731  31.245  0.7828  1.9944  0.7601
 1480TIP3    H225932   3.048   2.821  31.337 -1.6169  1.8235 -1.0455
 1481TIP3   OH225933   1.144   2.310   9.435 -0.2083  0.6196 -0.3131
 1481TIP3    H125934   1.096   2.290   9.354  0.3115 -1.7379 -0.0910
 1481TIP3    H225935   1.098   2.261   9.503  0.5932  0.9331  0.4671
 1482TIP3   OH225936   2.174   1.168   5.618  0.1097  0.3788  0.1651
 1482TIP3    H125937   2.241   1.099   5.619 -0.1233  0.1490  0.1681
 1482TIP3    H225938   2.213   1.239   5.567  0.2017  0.0943 -0.1644
 1483TIP3   OH225939   2.233   2.662   8.652 -0.1798 -0.6498  0.1562
 1483TIP3    H125940   2.170   2.704   8.593  0.1333  0.3340  0.5105
 1483TIP3    H225941   2.302   2.628   8.594  0.4024  0.7902 -0.0185
 1484TIP3   OH225942   0.032   3.979  35.298 -0.2859 -0.6370 -0.2856
 1484TIP3    H125943  -0.017   4.004  35.220 -1.1169 -1.9917 -0.2408
 1484TIP3    H225944   0.091   3.910  35.269 -0.0888 -0.6514  0.1398
 1485TIP3   OH225945   1.009   3.405  36.453  0.2394  0.2725  0.3135
 1485TIP3    H125946   0.917   3.381  36.468  0.4117 -0.4601  0.2398
 1485TIP3    H225947   1.013   3.498  36.475 -0.4001  0.1821  0.8606
 1486TIP3   OH225948   3.396   2.486   4.588  0.6838  0.3457  0.2987
 1486TIP3    H125949   3.345   2.558   4.626  0.2158 -0.4458  1.2043
 1486TIP3    H225950   3.477   2.484   4.639  2.0826  2.1270 -1.6544
 1487TIP3   OH225951   0.859   0.813   9.001 -0.2414  0.2077  0.5927
 1487TIP3    H125952   0.928   0.839   8.939 -1.1604 -0.2685 -0.6787
 1487TIP3    H225953   0.849   0.888   9.059  2.6441 -0.3895  2.0362
 1488TIP3   OH225954   2.307   3.543  13.005  0.4501  0.6688 -0.6315
 1488TIP3    H125955   2.264   3.570  13.087  1.1668  0.7031 -0.2589
 1488TIP3    H225956   2.237   3.503  12.954 -0.3427  1.9825 -0.6292
 1489TIP3   OH225957   1.811   1.380  39.803  1.1833 -0.6808  0.0680
 1489TIP3    H125958   1.766   1.296  39.793  1.0886 -0.7417  0.8762
 1489TIP3    H225959   1.852   1.375  39.889  0.4236  0.4322  0.5292
 1490TIP3   OH225960   3.952   2.264   5.107  0.1107 -0.2886  0.3808
 1490TIP3    H125961   3.940   2.179   5.150 -1.9241  0.3001  1.0755
 1490TIP3    H225962   3.930   2.247   5.015 -0.2537 -0.5279  0.5090
 1491TIP3   OH225963   1.842   4.044  34.671  0.5498  0.7183 -0.1237
 1491TIP3    H125964   1.825   4.126  34.717 -0.4673  1.2379 -1.3727
 1491TIP3    H225965   1.852   4.070  34.580  0.5371 -0.5135 -0.4871
 1492TIP3   OH225966   1.566   3.368  33.600  0.1899 -0.2775 -0.3473
 1492TIP3    H125967   1.570   3.419  33.520  2.0099 -1.2171 -0.8961
 1492TIP3    H225968   1.641   3.396  33.651 -1.1132  0.5355  1.2394
 1493TIP3   OH225969   4.285   0.924  41.549 -0.0234 -0.5097  0.1262
 1493TIP3    H125970   4.342   0.996  41.577  0.2207 -0.3041 -0.8869
 1493TIP3    H225971   4.213   0.966  41.502 -0.9123 -0.7889  1.1901
 1494TIP3   OH225972   2.564   3.557  34.186  0.2301 -0.1698 -0.4442
 1494TIP3    H125973   2.637   3.616  34.202 -1.7830  2.2786  0.4867
 1494TIP3    H225974   2.601   3.485  34.135  3.1418  1.1377 -0.3598
 1495TIP3   OH225975   3.511   4.244   9.685 -0.0150  0.2708 -0.6189
 1495TIP3    H125976   3.487   4.157   9.652  0.3880  0.1749 -0.6655
 1495TIP3    H225977   3.511   4.235   9.780 -1.6777  0.6784 -0.5477
 1496TIP3   OH225978   4.357   1.678  25.665  0.4355 -0.3688 -0.4190
 1496TIP3    H125979   4.317   1.592  25.677 -0.7999  0.4328  1.9869
 1496TIP3    H225980   4.448   1.659  25.645  0.1474 -2.2375 -0.1672
 1497TIP3   OH225981   3.228   1.737  11.984  0.7950 -1.3457  0.0069
 1497TIP3    H125982   3.196   1.817  12.024  3.4598 -0.4011  0.4291
 1497TIP3    H225983   3.229   1.673  12.056  1.4641 -0.9067  0.3892
 1498TIP3   OH225984   0.432   0.494  37.500 -0.1115 -0.6732  0.5269
 1498TIP3    H125985   0.466   0.456  37.581 -0.2969 -2.3593 -0.1383
 1498TIP3    H225986   0.337   0.494  37.512 -0.0784  0.7943  1.0049
 1499TIP3   OH225987   4.137   1.455  25.709 -0.2963 -0.0065 -0.1320
 1499TIP3    H125988   4.049   1.488  25.728 -1.0747 -1.1809 -1.4913
 1499TIP3    H225989   4.148   1.382  25.770 -0.5465 -0.2936 -0.4287
 1500TIP3   OH225990   2.580   2.276  39.383  0.6330 -0.1302  0.1160
 1500TIP3    H125991   2.573   2.366  39.414 -1.6703 -0.8191  1.8838
 1500TIP3    H225992   2.666   2.272  39.341  0.1723  3.2760 -1.5016
 1501TIP3   OH225993   2.365   3.764  11.474 -0.5699 -0.9782 -0.0129
 1501TIP3    H125994   2.415   3.705  11.417  2.4228  1.5554 -0.2584
 1501TIP3    H225995   2.341   3.710  11.549 -0.1514 -3.1038 -1.3183
 1502TIP3   OH225996   1.635   4.071  39.350  0.0862 -0.1043 -0.1372
 1502TIP3    H125997   1.594   4.102  39.269  0.8197  3.1442  0.5777
 1502TIP3    H225998   1.716   4.028  39.321  0.1309  0.6331 -1.1693
 1503TIP3   OH225999   1.491   0.291  40.689  0.4348  0.1389  0.5475
 1503TIP3    H126000   1.534   0.376  40.675  0.1155  0.1803 -0.2004
 1503TIP3    H226001   1.507   0.272  40.782 -0.4768  1.5856  1.0529
 1504TIP3   OH226002   4.126   4.152   1.339  0.5821  0.0937  0.3438
 1504TIP3    H126003   4.139   4.057   1.332 -0.1886 -0.1244  1.6462
 1504TIP3    H226004   4.202   4.183   1.388 -0.4375 -0.2599  2.2446
 1505TIP3   OH226005   1.535   2.572   0.063 -0.1851 -0.0609 -0.5599
 1505TIP3    H126006   1.614   2.563   0.009 -1.0227 -0.3794 -1.7813
 1505TIP3    H226007   1.501   2.483   0.071  0.3811 -0.1477  1.2516
 1506TIP3   OH226008   2.554   2.526   7.256  0.1515 -0.0096  0.8338
 1506TIP3    H126009   2.553   2.588   7.329  1.0040  0.8215  0.1583
 1506TIP3    H226010   2.646   2.509   7.240  0.0196  0.5008 -0.5991
 1507TIP3   OH226011   2.396   2.465   8.509  0.0128 -0.0998 -0.0820
 1507TIP3    H126012   2.470   2.409   8.529 -0.3047 -0.2147  0.8090
 1507TIP3    H226013   2.347   2.418   8.442  1.7422  0.8483 -2.1249
 1508TIP3   OH226014   0.108   0.623   1.607 -0.4625  0.1743 -0.4003
 1508TIP3    H126015   0.201   0.648   1.600 -0.1204 -1.0125 -0.2756
 1508TIP3    H226016   0.075   0.630   1.517 -0.2689  0.6243 -0.4421
 1509TIP3   OH226017   1.393   2.670  26.718  0.0995 -0.3662  0.3063
 1509TIP3    H126018   1.360   2.726  26.648  0.3308  0.1294  0.5889
 1509TIP3    H226019   1.423   2.591  26.673 -1.4903 -0.8544  0.0404
 1510TIP3   OH226020   4.383   1.916   5.800 -0.2585  0.1348 -0.2380
 1510TIP3    H126021   4.293   1.934   5.773 -0.7080  0.0988  1.1482
 1510TIP3    H226022   4.396   1.972   5.877  0.6903 -0.3501 -0.0347
 1511TIP3   OH226023   0.806   2.091  13.175 -0.3425  0.5542  0.1809
 1511TIP3    H126024   0.842   2.107  13.262 -0.0122 -1.0112  0.3667
 1511TIP3    H226025   0.723   2.047  13.191 -1.7965  2.9924 -0.2724
 1512TIP3   OH226026   2.701   3.484  10.388 -0.4217  0.2442  0.3903
 1512TIP3    H126027   2.614   3.504  10.354 -1.4072 -3.2926  0.4205
 1512TIP3    H226028   2.754   3.467  10.310 -0.3029  0.4778  0.4198
 1513TIP3   OH226029   3.392   0.105   2.279 -0.3429  0.6765 -0.3394
 1513TIP3    H126030   3.313   0.055   2.259  0.2529 -0.7841  0.7783
 1513TIP3    H226031   3.437   0.114   2.195 -0.1087 -1.3751 -0.4984
 1514TIP3   OH226032   0.125   0.741  29.034 -0.0398  0.7309  0.4346
 1514TIP3    H126033   0.061   0.762  28.965 -0.8429 -1.3893  0.4783
 1514TIP3    H226034   0.187   0.814  29.031  1.0803 -0.1112 -3.8748
 1515TIP3   OH226035   3.715   2.598   0.283  0.0478  0.0331  0.3973
 1515TIP3    H126036   3.654   2.624   0.352 -0.2872  0.6989 -0.1477
 1515TIP3    H226037   3.765   2.526   0.322 -1.0466 -0.4972  0.8635
 1516TIP3   OH226038   1.698   0.995  39.444 -0.1219 -0.6596  0.0231
 1516TIP3    H126039   1.751   1.048  39.384  0.2701  0.1396  1.0530
 1516TIP3    H226040   1.634   1.055  39.480 -0.2022 -1.0783  0.5900
 1517TIP3   OH226041   4.000   1.185   1.722  0.1595  0.0268 -0.0889
 1517TIP3    H126042   4.019   1.260   1.664  2.6896 -0.5959 -0.2095
 1517TIP3    H226043   3.953   1.124   1.666 -0.6835  0.9213 -0.3989
 1518TIP3   OH226044   3.901   3.704   5.931 -0.0536 -0.0520  0.1203
 1518TIP3    H126045   3.985   3.677   5.968 -0.9299  0.4332  2.6546
 1518TIP3    H226046   3.880   3.636   5.867  2.4920  0.1295 -1.0489
 1519TIP3   OH226047   2.042   1.559  29.091 -0.3199 -0.5114  0.0905
 1519TIP3    H126048   1.948   1.574  29.086 -0.7896 -2.4744  1.5792
 1519TIP3    H226049   2.081   1.637  29.051 -2.5240  1.2868  1.1903
 1520TIP3   OH226050   3.669   2.854   9.408  0.0733  0.0583  0.9208
 1520TIP3    H126051   3.631   2.900   9.333  0.4375  1.3060  1.4634
 1520TIP3    H226052   3.697   2.924   9.467  1.6192 -0.8491  1.3292
 1521TIP3   OH226053   2.515   3.540  34.889  0.1218 -0.5537 -0.0029
 1521TIP3    H126054   2.544   3.484  34.817  0.3374 -0.3082 -0.1086
 1521TIP3    H226055   2.579   3.525  34.959  0.0052 -0.6690  0.0806
 1522TIP3   OH226056   2.419   2.214  30.941 -0.0014 -0.5164 -0.0130
 1522TIP3    H126057   2.397   2.159  30.866 -0.9758 -0.9497  0.5654
 1522TIP3    H226058   2.458   2.153  31.004  0.9440 -0.1295 -0.2040
 1523TIP3   OH226059   0.192   2.168  23.954 -0.1242 -0.3500 -0.0349
 1523TIP3    H126060   0.268   2.123  23.917 -1.7833 -1.5307 -2.2813
 1523TIP3    H226061   0.138   2.097  23.991 -1.0318  0.2098 -0.2517
 1524TIP3   OH226062   0.809   0.889  22.252 -0.1892 -0.2199  0.5751
 1524TIP3    H126063   0.750   0.872  22.325 -3.6081  0.2232 -1.7976
 1524TIP3    H226064   0.824   0.803  22.213 -1.9702 -0.0481 -0.6015
 1525TIP3   OH226065   1.556   2.696  36.084  0.1100 -0.2249 -0.3020
 1525TIP3    H126066   1.584   2.605  36.091 -1.1411 -0.5668  0.6528
 1525TIP3    H226067   1.559   2.728  36.175  1.4751  0.9973 -0.7381
 1526TIP3   OH226068   2.681   2.955   0.100 -0.2122  0.1466 -0.3201
 1526TIP3    H126069   2.731   2.970   0.181 -1.5340  0.6786  0.4282
 1526TIP3    H226070   2.663   2.861   0.101  1.5566 -0.2514 -1.1077
 1527TIP3   OH226071   2.708   3.108  32.554 -0.2310  0.2397  0.0474
 1527TIP3    H126072   2.646   3.132  32.623  0.9407  0.2437  1.1286
 1527TIP3    H226073   2.653   3.076  32.482 -1.4127 -1.4679  1.6506
 1528TIP3   OH226074   0.123   2.568  29.605  0.2106 -0.0411  0.4179
 1528TIP3    H126075   0.113   2.558  29.700  1.7175 -3.6388  0.3427
 1528TIP3    H226076   0.049   2.520  29.567  1.9775 -2.4935 -0.1243
 1529TIP3   OH226077   4.194   3.630  28.968  0.1578  0.0059 -0.0372
 1529TIP3    H126078   4.263   3.565  28.980 -0.5583 -1.2080 -2.0495
 1529TIP3    H226079   4.236   3.701  28.920  0.6324  0.4740  1.0542
 1530TIP3   OH226080   2.072   3.880  36.447 -0.5290 -0.1706 -0.0515
 1530TIP3    H126081   1.977   3.890  36.454 -0.8415 -2.6473  0.2766
 1530TIP3    H226082   2.107   3.919  36.527 -1.4268 -0.7213  0.6295
 1531TIP3   OH226083   2.628   1.767  36.052 -0.6250  0.1720  0.3898
 1531TIP3    H126084   2.628   1.674  36.033 -0.3880  0.2276  0.1133
 1531TIP3    H226085   2.718   1.795  36.037 -0.9752  0.7103 -0.8216
 1532TIP3   OH226086   1.267   4.365  35.079 -0.1071 -0.1861 -0.2601
 1532TIP3    H126087   1.253   4.300  35.148 -0.3095 -0.2389 -0.3513
 1532TIP3    H226088   1.192   4.423  35.085 -0.4900 -0.6093 -0.9064
 1533TIP3   OH226089   1.511   1.249   8.651 -0.0175  0.3584  0.1990
 1533TIP3    H126090   1.606   1.247   8.638 -0.0214  2.0156 -0.3576
 1533TIP3    H226091   1.475   1.249   8.562 -0.5063  0.3393  0.3942
 1534TIP3   OH226092   2.618   2.484  30.992 -0.2945  0.5275  0.1690
 1534TIP3    H126093   2.647   2.430  30.919  0.4754 -1.4610  1.8354
 1534TIP3    H226094   2.675   2.561  30.989  1.1301 -0.5007 -0.1279
 1535TIP3   OH226095   1.971   4.380  38.048  0.2397 -0.0399  0.1998
 1535TIP3    H126096   1.947   4.432  38.125 -0.3221  0.9541 -0.6163
 1535TIP3    H226097   2.045   4.327  38.077 -0.7694 -0.6372  1.7869
 1536TIP3   OH226098   1.463   0.968   9.334  0.6537 -0.1239  0.7491
 1536TIP3    H126099   1.396   1.035   9.346 -1.6199 -2.3508  1.6103
 1536TIP3    H226100   1.453   0.941   9.243 -1.2301 -1.8540  1.3680
 1537TIP3   OH226101   1.112   1.210   7.716 -0.1961 -0.2860  0.1906
 1537TIP3    H126102   1.063   1.137   7.676  1.6561 -1.7551  0.4725
 1537TIP3    H226103   1.044   1.268   7.750 -1.7836 -0.9192 -1.6661
 1538TIP3   OH226104   3.768   3.111  35.907 -0.9329  0.0579 -0.1704
 1538TIP3    H126105   3.721   3.101  35.824 -2.5492 -0.8587  0.8075
 1538TIP3    H226106   3.785   3.204  35.914  1.7598 -0.0841 -2.8211
 1539TIP3   OH226107   0.214   2.473  28.599 -0.4885  0.4612 -0.1195
 1539TIP3    H126108   0.277   2.437  28.662 -1.3852 -0.4406  0.2883
 1539TIP3    H226109   0.217   2.568  28.615 -1.1507  0.2239  1.7560
 1540TIP3   OH226110   2.157   3.925  32.419  0.3406 -0.4781  0.6060
 1540TIP3    H126111   2.087   3.881  32.467 -0.1323  0.2801  0.6276
 1540TIP3    H226112   2.186   3.995  32.478  0.7150 -0.4184  0.3574
 1541TIP3   OH226113   1.893   3.007   7.445 -1.0645  0.0346 -0.7339
 1541TIP3    H126114   1.899   2.958   7.363 -0.5140 -0.4947 -0.3909
 1541TIP3    H226115   1.803   3.040   7.447 -0.6524  1.3251 -2.2520
 1542TIP3   OH226116   1.522   3.163   0.906 -0.0049  0.8382 -0.6991
 1542TIP3    H126117   1.427   3.158   0.890  0.1247 -0.9009 -1.1056
 1542TIP3    H226118   1.559   3.092   0.854  1.3981  0.7279  0.3964
 1543TIP3   OH226119   1.849   1.687  29.922  0.2878  0.1766  0.0217
 1543TIP3    H126120   1.899   1.703  30.002  0.5364  1.7299 -0.4127
 1543TIP3    H226121   1.882   1.604  29.889  1.2538  0.2647  0.7338
 1544TIP3   OH226122   4.076   0.737  34.848  0.0499  0.1444  0.4781
 1544TIP3    H126123   4.100   0.820  34.887 -0.4152  1.2009 -1.3456
 1544TIP3    H226124   4.088   0.750  34.754 -2.6505 -0.8971 -0.1274
 1545TIP3   OH226125   4.063   3.818  35.176  0.4419 -0.8462  0.6202
 1545TIP3    H126126   3.990   3.756  35.188 -0.2807 -0.0196  0.5995
 1545TIP3    H226127   4.073   3.859  35.262  0.3025 -0.3319  0.3924
 1546TIP3   OH226128   0.695   3.454  11.370  0.0672  0.2534  0.1917
 1546TIP3    H126129   0.630   3.509  11.325  0.9413  1.3303  0.2050
 1546TIP3    H226130   0.702   3.376  11.315 -0.3540  0.6578 -0.4545
 1547TIP3   OH226131   1.081   2.878   8.583  0.0431  0.3345  0.0431
 1547TIP3    H126132   0.990   2.885   8.553  0.5813  1.1771 -1.4988
 1547TIP3    H226133   1.074   2.864   8.678 -1.6785  1.5884  0.1487
 1548TIP3   OH226134   2.831   0.526  39.905  0.1234 -0.0787  0.3680
 1548TIP3    H126135   2.781   0.585  39.962  0.3732 -0.7419  1.3028
 1548TIP3    H226136   2.922   0.553  39.918  0.1513  0.0486 -0.0660
 1549TIP3   OH226137   4.359   3.890  13.083  0.0074  0.0688  0.6810
 1549TIP3    H126138   4.404   3.830  13.142  0.3160 -0.1960  0.1888
 1549TIP3    H226139   4.429   3.931  13.032 -0.3273 -0.9865 -0.6989
 1550TIP3   OH226140   2.268   4.222  18.449 -0.1882 -0.2146  0.0904
 1550TIP3    H126141   2.281   4.136  18.488  0.7201 -1.0502 -1.9510
 1550TIP3    H226142   2.274   4.283  18.523  1.8027 -1.6780  1.2115
 1551TIP3   OH226143   1.248   3.621   0.822  0.2734 -0.2587  0.0946
 1551TIP3    H126144   1.232   3.527   0.808 -1.1733 -0.0164 -0.0378
 1551TIP3    H226145   1.213   3.663   0.744  1.0364  0.3945  0.0923
 1552TIP3   OH226146   3.807   0.717  36.561  0.0936  0.9994 -1.1104
 1552TIP3    H126147   3.899   0.738  36.543  0.7493  1.2000  2.0018
 1552TIP3    H226148   3.793   0.632  36.520  0.4626  2.4992 -4.8269
 1553TIP3   OH226149   0.463   1.044   9.649  0.0572 -0.4406 -0.2120
 1553TIP3    H126150   0.387   1.073   9.699  0.9873 -0.9116  1.5547
 1553TIP3    H226151   0.508   1.124   9.624  1.1843 -0.1638  2.3576
 1554TIP3   OH226152   1.618   4.345  38.116 -0.1600  1.0725 -0.1409
 1554TIP3    H126153   1.527   4.317  38.129  0.1994  1.0700  3.3900
 1554TIP3    H226154   1.649   4.366  38.204  3.6676 -0.1059 -1.0311
 1555TIP3   OH226155   3.218   2.649   3.264  0.5413 -0.6851 -0.0435
 1555TIP3    H126156   3.207   2.733   3.307 -0.4542 -1.3137  0.9806
 1555TIP3    H226157   3.202   2.666   3.172  0.7694  0.3212  0.0983
 1556TIP3   OH226158   1.831   3.253  10.702 -0.3604  0.4765 -0.0870
 1556TIP3    H126159   1.802   3.334  10.745  0.0813  0.2017  0.7371
 1556TIP3    H226160   1.763   3.189  10.722  0.1048  0.2064  0.6687
 1557TIP3   OH226161   2.668   1.049   4.066 -0.1763 -0.0631 -0.0541
 1557TIP3    H126162   2.673   0.999   3.985  1.4354  0.5415 -0.3623
 1557TIP3    H226163   2.758   1.055   4.097 -0.4425  1.7878  0.5020
 1558TIP3   OH226164   2.739   2.699   6.944  0.6972 -0.4981  0.1229
 1558TIP3    H126165   2.755   2.748   7.025  0.3443 -2.0518  1.1915
 1558TIP3    H226166   2.718   2.765   6.879  3.5809  1.0622  0.5931
 1559TIP3   OH226167   3.172   2.486  34.993  0.4283 -0.1740 -0.4933
 1559TIP3    H126168   3.082   2.501  34.964  0.1746 -1.6259 -0.5328
 1559TIP3    H226169   3.167   2.484  35.088  0.5827  0.6630 -0.4635
 1560TIP3   OH226170   3.726   3.594  30.584 -0.3141  0.1084 -0.0372
 1560TIP3    H126171   3.788   3.521  30.589 -0.9756 -0.4806 -0.2498
 1560TIP3    H226172   3.640   3.552  30.588 -0.8613  0.4512 -4.1346
 1561TIP3   OH226173   2.715   3.487  35.988  0.6986  0.3592 -0.4033
 1561TIP3    H126174   2.675   3.457  36.070  1.9829 -0.7030 -0.1435
 1561TIP3    H226175   2.798   3.526  36.015  2.3325 -2.2359 -1.3466
 1562TIP3   OH226176   3.914   2.709   7.832 -0.3922 -0.0446 -0.1639
 1562TIP3    H126177   3.943   2.746   7.748  0.4613 -0.4748 -0.0675
 1562TIP3    H226178   3.991   2.716   7.889 -0.6388 -0.7343  0.2615
 1563TIP3   OH226179   0.307   1.483  37.271 -0.1718 -0.0288  0.0679
 1563TIP3    H126180   0.293   1.409  37.330  0.3899  0.3290  0.6616
 1563TIP3    H226181   0.270   1.559  37.318  0.5392  0.3071  0.1054
 1564TIP3   OH226182   3.778   4.197  31.140 -0.3444 -0.0504 -0.2099
 1564TIP3    H126183   3.723   4.151  31.204  0.4765 -0.6647  0.0780
 1564TIP3    H226184   3.864   4.156  31.149  0.3344  1.3362 -0.1855
 1565TIP3   OH226185   4.320   0.431  23.198 -0.9711  0.3188  0.1257
 1565TIP3    H126186   4.238   0.439  23.246 -1.4688 -1.4138 -0.3342
 1565TIP3    H226187   4.295   0.394  23.113  0.0721  1.6770 -0.8270
 1566TIP3   OH226188   1.822   3.082  29.455  0.0439  0.5039  0.1339
 1566TIP3    H126189   1.801   3.165  29.413  0.0377  0.2521 -0.3633
 1566TIP3    H226190   1.915   3.069  29.438 -0.0723  0.1510 -0.2487
 1567TIP3   OH226191   3.130   1.093  36.034 -0.1745  0.4264  0.6612
 1567TIP3    H126192   3.045   1.106  35.992 -0.2464 -0.6201  0.4578
 1567TIP3    H226193   3.125   1.007  36.074  1.4627 -0.5571 -1.0807
 1568TIP3   OH226194   3.729   3.982  39.744 -0.7616  0.0984  0.5314
 1568TIP3    H126195   3.794   3.925  39.703  0.7091  1.5243  0.7599
 1568TIP3    H226196   3.695   4.036  39.673  0.4885  1.3464  0.8238
 1569TIP3   OH226197   1.786   2.339  27.711 -0.7085  0.3672  0.6430
 1569TIP3    H126198   1.765   2.415  27.656  3.7330  2.1630  0.9894
 1569TIP3    H226199   1.854   2.292  27.662 -0.9160 -1.4711  2.0045
 1570TIP3   OH226200   2.682   3.340  40.706 -0.2639 -0.0116  0.9275
 1570TIP3    H126201   2.724   3.394  40.772 -1.2331  1.1696  0.6269
 1570TIP3    H226202   2.691   3.250  40.739 -0.4601  0.5118  2.5127
 1571TIP3   OH226203   1.994   3.642   2.982 -0.2177 -0.1989  0.0686
 1571TIP3    H126204   2.037   3.696   3.049  1.0698  2.4643 -2.6203
 1571TIP3    H226205   1.906   3.679   2.975 -0.1187  0.0063 -0.1366
 1572TIP3   OH226206   2.744   3.123  34.692  0.4265 -0.3648  0.0324
 1572TIP3    H126207   2.836   3.136  34.670  0.8305 -1.8499  0.7490
 1572TIP3    H226208   2.711   3.063  34.625 -0.1816  0.5913 -0.5434
 1573TIP3   OH226209   0.124   0.154  37.064 -0.2001  0.1386  0.0096
 1573TIP3    H126210   0.199   0.197  37.025  0.5735  0.8472  2.1528
 1573TIP3    H226211   0.051   0.214  37.050  0.3879  1.0910  0.9709
 1574TIP3   OH226212   2.888   1.028  34.576  0.2571  0.1017  0.2846
 1574TIP3    H126213   2.803   0.986  34.567 -0.7806  2.0411  0.3639
 1574TIP3    H226214   2.930   1.016  34.490 -0.4677 -0.1461 -0.0448
 1575TIP3   OH226215   1.876   3.725   3.346 -0.3084 -0.4127  0.5637
 1575TIP3    H126216   1.846   3.781   3.418  2.4168  1.8787  0.0851
 1575TIP3    H226217   1.938   3.665   3.387  0.6510  0.3787  0.3132
 1576TIP3   OH226218   0.453   3.820   1.763  0.1139 -0.0334  0.4140
 1576TIP3    H126219   0.432   3.872   1.841 -1.5357  0.4469 -0.3079
 1576TIP3    H226220   0.540   3.852   1.737  0.4786  0.1422  1.7601
 1577TIP3   OH226221   1.218   1.067  39.137 -0.1867  0.0673  0.0066
 1577TIP3    H126222   1.259   1.045  39.221 -0.8772 -0.5341  0.1907
 1577TIP3    H226223   1.287   1.051  39.072  0.0267 -0.4595  0.3610
 1578TIP3   OH226224   3.901   1.976   6.024 -0.2400  0.1156  0.4020
 1578TIP3    H126225   3.965   1.904   6.021  3.0540  2.7858 -1.8961
 1578TIP3    H226226   3.930   2.030   6.098  1.4624  2.2073 -1.6301
 1579TIP3   OH226227   4.311   1.543  40.793 -0.6012 -0.5114  0.1774
 1579TIP3    H126228   4.368   1.467  40.791  0.0331 -0.0383  0.0713
 1579TIP3    H226229   4.301   1.564  40.886  0.9628  0.5458  0.1475
 1580TIP3   OH226230   3.494   3.152  35.020 -0.1438 -0.4212  0.5044
 1580TIP3    H126231   3.477   3.233  35.069  0.9736  0.4964 -0.5699
 1580TIP3    H226232   3.456   3.083  35.075  0.3158  0.6444  2.2434
 1581TIP3   OH226233   3.940   1.358   1.031 -0.2223  0.3073  0.1643
 1581TIP3    H126234   3.984   1.286   0.986 -1.3506 -0.2292 -0.1208
 1581TIP3    H226235   3.907   1.318   1.112  1.2342  1.1082  1.2225
 1582TIP3   OH226236   2.121   0.900  37.383  0.8061 -0.4283  0.2765
 1582TIP3    H126237   2.059   0.851  37.328 -0.3633 -0.5899  1.6718
 1582TIP3    H226238   2.073   0.978  37.409  2.8136  1.8501 -2.3069
 1583TIP3   OH226239   3.670   3.284   6.557  0.5519 -0.2775  0.4806
 1583TIP3    H126240   3.609   3.210   6.555 -0.7111  0.7249 -2.2846
 1583TIP3    H226241   3.720   3.277   6.476  1.2617  1.2512  0.7384
 1584TIP3   OH226242   0.022   1.739   8.646 -0.3159  0.2343  0.2294
 1584TIP3    H126243   0.099   1.752   8.590  0.1376 -0.9088  0.5714
 1584TIP3    H226244   0.044   1.665   8.701 -2.6946 -1.9223 -1.4873
 1585TIP3   OH226245   2.032   3.266   7.339  0.1834 -0.2276  0.0443
 1585TIP3    H126246   2.015   3.227   7.425  1.3735 -0.3556  0.2451
 1585TIP3    H226247   1.946   3.292   7.307 -0.3159 -0.4352  1.1536
 1586TIP3   OH226248   3.945   4.240  31.801 -0.0891  0.2368  0.3565
 1586TIP3    H126249   3.997   4.160  31.807  0.9022  0.6076 -2.1665
 1586TIP3    H226250   4.010   4.310  31.797 -0.7863  0.8409 -1.1927
 1587TIP3   OH226251   0.582   0.417  38.919 -0.4224 -0.0847  0.2027
 1587TIP3    H126252   0.651   0.423  38.852 -0.0013  1.0391  0.7039
 1587TIP3    H226253   0.596   0.332  38.960  1.2793  0.4788  0.9038
 1588TIP3   OH226254   4.138   4.162   6.485 -0.1101 -0.4248  0.0492
 1588TIP3    H126255   4.117   4.223   6.555 -2.9277 -1.4667  0.2317
 1588TIP3    H226256   4.081   4.189   6.412 -1.4729 -2.7293  0.1467
 1589TIP3   OH226257   3.142   3.418  30.677  0.2577 -0.3699 -0.1520
 1589TIP3    H126258   3.141   3.498  30.625 -0.5258 -1.0371 -1.1848
 1589TIP3    H226259   3.089   3.440  30.754 -0.3440 -0.0269 -0.6497
 1590TIP3   OH226260   0.159   2.108  31.544 -0.1957 -0.2328  0.2531
 1590TIP3    H126261   0.220   2.179  31.564  0.4817 -0.2690 -1.4717
 1590TIP3    H226262   0.110   2.094  31.625 -1.0414  2.8631  0.3714
 1591TIP3   OH226263   2.990   2.418  31.742 -0.5222 -0.0987 -0.5317
 1591TIP3    H126264   2.982   2.479  31.669 -0.6146 -0.5522 -0.9113
 1591TIP3    H226265   3.061   2.359  31.716 -0.7025 -0.3951 -0.3581
 1592TIP3   OH226266   0.714   1.989  32.311 -0.1414  0.0683  0.4361
 1592TIP3    H126267   0.728   2.024  32.399  0.6383  0.2031  0.2639
 1592TIP3    H226268   0.748   1.899  32.315  2.3002  0.8636 -0.3797
 1593TIP3   OH226269   0.554   1.308   9.439  0.2797 -0.0192 -0.1310
 1593TIP3    H126270   0.558   1.375   9.508 -0.0929 -0.0222 -0.1061
 1593TIP3    H226271   0.471   1.324   9.395  0.5372  0.0127 -0.6150
 1594TIP3   OH226272   2.774   1.042   8.469 -0.3775  0.1455 -0.3445
 1594TIP3    H126273   2.726   1.016   8.547 -0.3540  0.6474 -0.1584
 1594TIP3    H226274   2.807   1.130   8.489 -0.9388  0.5577 -1.1700
 1595TIP3   OH226275   4.378   0.471  39.751  0.0273  0.3073  0.1196
 1595TIP3    H126276   4.359   0.564  39.746  1.5018  0.7243  1.4818
 1595TIP3    H226277   4.400   0.446  39.662 -0.9041  1.1311 -0.3583
 1596TIP3   OH226278   4.203   2.414   9.379  0.4852 -0.0209 -0.4673
 1596TIP3    H126279   4.277   2.462   9.341 -1.2877  2.4232 -1.0746
 1596TIP3    H226280   4.210   2.430   9.473  1.4348 -0.9321 -0.3629
 1597TIP3   OH226281   0.980   1.336  11.944  0.5175  0.0665  0.5125
 1597TIP3    H126282   0.954   1.266  11.884  0.6557  0.2922  0.1839
 1597TIP3    H226283   0.903   1.350  11.999 -0.8986  2.1279 -1.7688
 1598TIP3   OH226284   0.048   2.746  22.022 -0.7373  0.6190  0.4306
 1598TIP3    H126285   0.131   2.791  22.007 -0.7068  0.9630  1.5068
 1598TIP3    H226286   0.043   2.681  21.952  1.9150 -1.5195  2.0145
 1599TIP3   OH226287   0.633   2.477  36.190  0.4625  0.6829  0.3465
 1599TIP3    H126288   0.541   2.479  36.164  0.0980 -3.3382  0.7884
 1599TIP3    H226289   0.635   2.530  36.270 -1.6695  0.2030  0.7981
 1600TIP3   OH226290   1.074   3.324  18.833  0.3160 -0.2407 -0.2458
 1600TIP3    H126291   1.033   3.238  18.842  0.6606 -0.7344 -2.7128
 1600TIP3    H226292   1.155   3.307  18.786  0.8957  1.3460  0.1005
 1601TIP3   OH226293   1.801   0.137  27.078  1.0797  0.0807  0.1757
 1601TIP3    H126294   1.867   0.084  27.123  0.7081  0.0431  0.6856
 1601TIP3    H226295   1.719   0.091  27.094  0.5771  1.3507  1.5528
 1602TIP3   OH226296   2.957   1.989  36.583  0.0876 -0.8996  0.3382
 1602TIP3    H126297   3.035   1.961  36.630  0.9100  1.1368  0.2759
 1602TIP3    H226298   2.990   2.045  36.513 -1.4145 -0.3061  0.0778
 1603TIP3   OH226299   0.727   2.497   7.930 -0.6557 -0.3670  0.7944
 1603TIP3    H126300   0.731   2.593   7.926 -1.5439 -0.3418 -0.0143
 1603TIP3    H226301   0.639   2.476   7.898  0.5714 -1.6069 -2.0620
 1604TIP3   OH226302   3.288   1.187   3.685  0.0011 -0.2771  0.1306
 1604TIP3    H126303   3.222   1.137   3.733  0.0231  0.9916  1.5419
 1604TIP3    H226304   3.305   1.264   3.739  1.8782 -0.0326 -0.7129
 1605TIP3   OH226305   3.888   3.321  41.216  0.2487 -0.2220 -0.1246
 1605TIP3    H126306   3.920   3.266  41.144 -2.9919  1.0010 -2.7474
 1605TIP3    H226307   3.865   3.259  41.285  0.2752 -1.8017 -1.4621
 1606TIP3   OH226308   1.786   2.827  38.067  0.2451  0.3154 -0.2354
 1606TIP3    H126309   1.848   2.811  38.138 -0.0699 -0.3251 -0.0938
 1606TIP3    H226310   1.715   2.876  38.109  0.9500  1.6397 -0.5435
 1607TIP3   OH226311   3.852   3.158   9.140 -0.5039 -0.0011  0.0612
 1607TIP3    H126312   3.795   3.087   9.169 -0.5684 -0.0130 -0.0957
 1607TIP3    H226313   3.886   3.128   9.056 -0.9998  0.4128 -0.2925
 1608TIP3   OH226314   4.403   1.980  31.066  0.1908  0.1383 -0.1437
 1608TIP3    H126315   4.408   1.945  30.977 -2.3876  0.0198 -0.3121
 1608TIP3    H226316   4.475   1.937  31.113  0.5909 -1.0443 -1.7498
 1609TIP3   OH226317   3.591   1.204  39.746 -0.0684  0.2007 -0.2140
 1609TIP3    H126318   3.632   1.117  39.743 -0.2424  0.1122 -0.0759
 1609TIP3    H226319   3.513   1.191  39.800  0.1002  0.5283  0.1158
 1610TIP3   OH226320   3.695   0.715  34.925  0.1546 -0.7459  0.3758
 1610TIP3    H126321   3.773   0.696  34.978  1.4464  1.2732 -0.6409
 1610TIP3    H226322   3.677   0.807  34.944 -1.1583 -0.8192 -0.4661
 1611TIP3   OH226323   3.136   0.344  13.180 -0.0423 -0.0068  0.2678
 1611TIP3    H126324   3.089   0.263  13.201 -2.3907  0.8208 -1.3783
 1611TIP3    H226325   3.177   0.326  13.095 -1.0722  0.6668 -0.3962
 1612TIP3   OH226326   0.817   2.778   3.651 -0.6879  0.1345  0.2827
 1612TIP3    H126327   0.770   2.833   3.714  0.3679  1.4883 -0.0720
 1612TIP3    H226328   0.903   2.763   3.691 -1.1354 -1.7759  0.6316
 1613TIP3   OH226329   4.381   4.382  25.793  0.0108 -0.1826 -0.4592
 1613TIP3    H126330   4.295   4.424  25.791 -0.1089 -0.4460 -1.0925
 1613TIP3    H226331   4.425   4.414  25.714 -0.1525 -1.3772 -1.0527
 1614TIP3   OH226332   1.847   1.188   5.227  0.3036 -0.4629  0.0889
 1614TIP3    H126333   1.843   1.202   5.321 -0.2882 -0.1598  0.0245
 1614TIP3    H226334   1.874   1.097   5.217 -1.2346 -0.9985  0.5791
 1615TIP3   OH226335   2.508   3.314  28.813 -0.4142 -0.3695 -0.0206
 1615TIP3    H126336   2.448   3.240  28.823  0.8200 -1.3117  0.6798
 1615TIP3    H226337   2.594   3.278  28.832  0.1753  1.3480  0.7767
 1616TIP3   OH226338   1.577   2.658  33.098  0.1685  0.0391 -0.0254
 1616TIP3    H126339   1.650   2.708  33.135  0.3740 -1.0603  1.1103
 1616TIP3    H226340   1.506   2.668  33.161 -0.5843  0.8486 -0.9739
 1617TIP3   OH226341   1.477   1.043   5.913  0.2786  0.0938 -0.3185
 1617TIP3    H126342   1.403   1.104   5.912  1.1046  1.1369  0.4577
 1617TIP3    H226343   1.479   1.007   5.824 -0.9439  0.2952 -0.4477
 1618TIP3   OH226344   2.491   4.179  36.797 -0.2209  0.3576 -0.9628
 1618TIP3    H126345   2.510   4.263  36.754 -0.0671 -0.2785 -2.1702
 1618TIP3    H226346   2.506   4.113  36.729  1.9832 -0.8748  0.5904
 1619TIP3   OH226347   0.289   3.411  36.708 -0.2090 -0.2380 -0.3304
 1619TIP3    H126348   0.339   3.379  36.783 -0.0611 -0.5833 -0.5772
 1619TIP3    H226349   0.327   3.365  36.633  1.0042  1.5537 -0.8918
 1620TIP3   OH226350   1.722   4.385  37.787 -0.4031 -0.1261  0.4992
 1620TIP3    H126351   1.697   4.475  37.808  2.9813  1.8537 -2.7295
 1620TIP3    H226352   1.646   4.349  37.742 -1.0178  2.0045 -0.2960
 1621TIP3   OH226353   1.319   0.960  14.790  0.4769 -0.9870 -0.2253
 1621TIP3    H126354   1.269   0.891  14.834  0.3718 -0.9624 -0.3049
 1621TIP3    H226355   1.262   1.037  14.794  1.4126 -0.3299  1.7091
 1622TIP3   OH226356   0.306   3.450  25.225  0.6960  0.1039 -0.0726
 1622TIP3    H126357   0.345   3.488  25.147  0.1592 -0.4314 -0.6060
 1622TIP3    H226358   0.353   3.491  25.298  0.3654  1.5300 -0.6400
 1623TIP3   OH226359   3.405   2.957  28.083  0.2102 -0.0042  0.1468
 1623TIP3    H126360   3.325   2.974  28.033  0.3747  1.0328  0.2261
 1623TIP3    H226361   3.386   2.876  28.131 -0.4001 -0.3423 -0.6389
 1624TIP3   OH226362   3.344   3.578   9.897 -0.1236 -0.1303 -0.2385
 1624TIP3    H126363   3.401   3.632   9.842 -1.1312 -0.6456 -1.8840
 1624TIP3    H226364   3.368   3.488   9.874  1.4579 -0.4819  2.3849
 1625TIP3   OH226365   2.108   0.878  40.192 -0.6739  0.2139  0.1176
 1625TIP3    H126366   2.095   0.859  40.099 -0.8504  3.1796 -0.5438
 1625TIP3    H226367   2.046   0.819  40.236 -0.2903 -1.5636 -1.5520
 1626TIP3   OH226368   4.342   4.318  28.134  0.2282 -0.0915  0.2898
 1626TIP3    H126369   4.319   4.233  28.172  0.7558  0.8073  2.8367
 1626TIP3    H226370   4.259   4.365  28.127  0.1954 -0.0128  1.1010
 1627TIP3   OH226371   1.285   1.887   4.731 -0.0904  0.3155  0.6863
 1627TIP3    H126372   1.209   1.857   4.781 -0.5322  0.2938  0.0123
 1627TIP3    H226373   1.340   1.809   4.721 -1.7367 -0.6268 -1.9816
 1628TIP3   OH226374   3.195   2.380   6.336 -0.1710 -0.3812  0.4322
 1628TIP3    H126375   3.111   2.360   6.295  0.4280  0.9506 -1.6208
 1628TIP3    H226376   3.253   2.310   6.307 -0.1600 -0.3485  0.3742
 1629TIP3   OH226377   4.366   4.313  40.149  0.3672  0.0147  0.4263
 1629TIP3    H126378   4.302   4.373  40.108  0.4689  0.7199  1.2653
 1629TIP3    H226379   4.423   4.287  40.077 -0.7754 -0.5121 -0.3157
 1630TIP3   OH226380   3.354   2.239   2.652 -0.0138  0.0633 -0.5635
 1630TIP3    H126381   3.287   2.227   2.584 -0.5375  0.6583 -0.1716
 1630TIP3    H226382   3.434   2.257   2.603 -0.0669 -0.9586 -1.0452
 1631TIP3   OH226383   2.221   1.757   5.617 -0.0956 -0.2867  0.6139
 1631TIP3    H126384   2.179   1.753   5.702 -0.2971  0.2905  0.5489
 1631TIP3    H226385   2.152   1.787   5.557  0.0667 -0.5944  0.2620
 1632TIP3   OH226386   1.649   1.701  30.443  0.0807  0.0522 -0.5119
 1632TIP3    H126387   1.674   1.611  30.423 -0.9748 -0.4240  0.2111
 1632TIP3    H226388   1.690   1.720  30.528 -1.0728 -0.3586  0.1582
 1633TIP3   OH226389   3.227   2.945  30.954 -0.0113 -0.2067  0.4722
 1633TIP3    H126390   3.137   2.946  30.988  0.0639 -1.8685  0.7870
 1633TIP3    H226391   3.281   2.929  31.031  0.3118 -2.0452 -0.0926
 1634TIP3   OH226392   0.132   3.910  37.304  0.4131 -0.5335  0.4875
 1634TIP3    H126393   0.091   3.825  37.291  2.3288 -1.5731  0.8775
 1634TIP3    H226394   0.115   3.958  37.223  0.8485 -1.9779 -0.4902
 1635TIP3   OH226395   4.023   3.088   0.678  0.3546 -0.5770 -0.2819
 1635TIP3    H126396   4.018   3.059   0.586  1.5049 -0.5800 -0.3610
 1635TIP3    H226397   4.094   3.152   0.679  0.9881 -1.2713  0.7863
 1636TIP3   OH226398   1.683   3.192  11.065  0.1874  0.3239 -0.3600
 1636TIP3    H126399   1.701   3.131  10.993  0.0912  0.2830 -0.3491
 1636TIP3    H226400   1.770   3.221  11.093  0.2696 -0.3505  0.1085
 1637TIP3   OH226401   2.398   0.103  34.196 -0.5453  0.4677 -0.1317
 1637TIP3    H126402   2.391   0.115  34.290 -1.4038 -0.0145 -0.1265
 1637TIP3    H226403   2.374   0.188  34.159  1.7927  1.3023  0.1141
 1638TIP3   OH226404   0.423   2.778  33.427  0.2243 -0.0166  0.0064
 1638TIP3    H126405   0.369   2.700  33.421 -0.1227  0.3382 -2.0341
 1638TIP3    H226406   0.397   2.820  33.509 -0.8713 -1.0990  0.2279
 1639TIP3   OH226407   2.363   3.755  34.086 -0.1771 -0.1349 -0.0736
 1639TIP3    H126408   2.399   3.714  34.164 -0.0752  0.5699  0.2480
 1639TIP3    H226409   2.333   3.841  34.114  0.7956  0.5437 -1.0097
 1640TIP3   OH226410   0.208   0.238  31.845  0.1587 -0.6116 -0.2972
 1640TIP3    H126411   0.276   0.266  31.784 -0.4584 -0.3065 -0.8531
 1640TIP3    H226412   0.246   0.162  31.890  2.0963  1.3114  1.6167
 1641TIP3   OH226413   0.837   4.230  34.601 -0.6828  0.5149  0.0455
 1641TIP3    H126414   0.830   4.136  34.614  0.8854  0.4952  0.9064
 1641TIP3    H226415   0.783   4.247  34.524 -0.5976 -1.1650 -0.4269
 1642TIP3   OH226416   2.657   2.008  30.203 -0.0305 -0.0211 -0.4206
 1642TIP3    H126417   2.640   1.937  30.141 -2.3496 -1.4523  1.6806
 1642TIP3    H226418   2.624   2.086  30.160  1.3075 -0.3715 -2.2202
 1643TIP3   OH226419   2.824   1.855  29.320  0.3124 -0.6092  0.2823
 1643TIP3    H126420   2.745   1.826  29.274  0.5393  0.7065 -1.0397
 1643TIP3    H226421   2.848   1.937  29.276  1.0996  0.2405  2.1867
 1644TIP3   OH226422   0.069   4.194  22.982  0.1584 -0.0077  0.0884
 1644TIP3    H126423   0.007   4.235  22.921  0.6342  0.9412  0.2211
 1644TIP3    H226424   0.017   4.179  23.061 -0.2637 -0.5384 -0.2860
 1645TIP3   OH226425   0.414   3.030  13.867  0.0927  0.1866  0.6800
 1645TIP3    H126426   0.338   3.033  13.926 -0.1824  0.0762  0.3307
 1645TIP3    H226427   0.383   3.070  13.786 -0.1858 -1.6078 -0.1428
 1646TIP3   OH226428   1.249   0.865  28.133  0.1279 -0.0289  0.0166
 1646TIP3    H126429   1.284   0.949  28.160 -0.0084  0.3521 -0.9488
 1646TIP3    H226430   1.196   0.885  28.055 -1.1788 -0.7704  0.6845
 1647TIP3   OH226431   0.184   0.527  29.229  0.7713 -0.2274 -0.0457
 1647TIP3    H126432   0.150   0.595  29.171  1.1869 -0.7301 -0.9022
 1647TIP3    H226433   0.276   0.551  29.242  0.3686  0.5839  1.4571
 1648TIP3   OH226434   2.780   1.190   1.620  0.3614 -0.1291  0.0914
 1648TIP3    H126435   2.688   1.180   1.643  0.2370 -0.0477 -0.3633
 1648TIP3    H226436   2.782   1.267   1.562  0.5060 -0.9521 -1.0334
 1649TIP3   OH226437   4.362   2.092  36.671  0.0518 -0.2328 -0.0931
 1649TIP3    H126438   4.423   2.097  36.597  3.1116 -0.7946  2.1614
 1649TIP3    H226439   4.335   2.001  36.675 -0.2594 -0.1649 -0.5944
 1650TIP3   OH226440   2.803   1.038  27.550 -0.4127 -0.1648 -0.2442
 1650TIP3    H126441   2.799   1.058  27.643 -0.0609  1.2069 -0.4905
 1650TIP3    H226442   2.745   0.963  27.538  0.3478 -1.0117  1.2278
 1651TIP3   OH226443   0.090   2.546  24.883 -0.5790 -0.8465 -0.5713
 1651TIP3    H126444   0.149   2.480  24.846  0.7613 -0.1417  0.2148
 1651TIP3    H226445   0.027   2.497  24.935  0.0594 -1.5519 -0.4431
 1652TIP3   OH226446   4.258   1.602  35.195  0.1232  0.0948  0.5447
 1652TIP3    H126447   4.218   1.567  35.274  1.2035  0.2928  1.2004
 1652TIP3    H226448   4.351   1.609  35.216  0.7313 -1.4549 -1.3235
 1653TIP3   OH226449   3.461   1.363  35.839 -0.3926  0.0396 -0.9275
 1653TIP3    H126450   3.386   1.305  35.823 -0.5155 -0.1222  0.1985
 1653TIP3    H226451   3.534   1.319  35.796 -0.2682 -1.4908  0.7341
 1654TIP3   OH226452   2.739   1.734  11.365 -0.5593 -0.4669 -0.0686
 1654TIP3    H126453   2.706   1.654  11.325 -0.3803  0.0074 -1.1971
 1654TIP3    H226454   2.827   1.712  11.394 -1.2134 -1.2412  1.4293
 1655TIP3   OH226455   3.737   3.469  22.735  0.0520  0.0995 -0.2142
 1655TIP3    H126456   3.760   3.458  22.642 -0.2930 -0.0529 -0.2808
 1655TIP3    H226457   3.646   3.442  22.741  0.5346 -1.5206  0.4789
 1656TIP3   OH226458   1.183   3.507   4.954 -0.2838 -0.2962 -0.5603
 1656TIP3    H126459   1.261   3.553   4.924 -0.9219 -0.0174 -1.8622
 1656TIP3    H226460   1.115   3.531   4.892 -0.8177 -2.4331 -0.8888
 1657TIP3   OH226461   1.720   0.757  16.594  0.3466  0.0469  0.0499
 1657TIP3    H126462   1.674   0.728  16.672 -3.5872 -0.4669 -2.1918
 1657TIP3    H226463   1.755   0.676  16.555  0.1866 -0.0209  0.0468
 1658TIP3   OH226464   1.904   4.272  32.051  0.4620 -0.4827  0.4917
 1658TIP3    H126465   1.951   4.196  32.085  1.0155  0.0789  1.0005
 1658TIP3    H226466   1.896   4.331  32.126 -1.1001 -0.5741  0.4241
 1659TIP3   OH226467   1.020   0.556  10.021 -0.1349  0.4737 -0.4680
 1659TIP3    H126468   0.967   0.623  10.064  0.3198  0.0008  0.8716
 1659TIP3    H226469   0.969   0.476  10.029  0.9351 -0.0915  1.2731
 1660TIP3   OH226470   3.545   3.266  10.723  0.4811  0.2473  0.7960
 1660TIP3    H126471   3.492   3.346  10.719  0.9202  0.5115 -0.0568
 1660TIP3    H226472   3.493   3.201  10.676  0.0833  0.0003  1.5677
 1661TIP3   OH226473   0.023   2.692   9.037 -0.1678 -0.0397 -0.4897
 1661TIP3    H126474   0.056   2.767   9.086  0.2349  0.9049 -2.1306
 1661TIP3    H226475   0.071   2.694   8.954 -1.6562 -0.8712 -1.4253
 1662TIP3   OH226476   2.104   2.017  28.791  0.3765 -0.0415 -0.1347
 1662TIP3    H126477   2.013   2.040  28.775 -0.1240 -1.4822  0.4288
 1662TIP3    H226478   2.142   2.094  28.834 -0.2279  1.0309 -1.4631
 1663TIP3   OH226479   1.424   0.564   7.410  0.1323 -0.4757  0.4377
 1663TIP3    H126480   1.441   0.485   7.357  1.4569 -0.2083  0.4463
 1663TIP3    H226481   1.436   0.637   7.349  1.4047 -0.1771  1.0100
 1664TIP3   OH226482   4.358   2.659  24.658  0.1511 -0.2265  0.5434
 1664TIP3    H126483   4.395   2.629  24.741 -1.3234 -0.7292  1.0412
 1664TIP3    H226484   4.387   2.749  24.650 -0.3409  0.0896  2.0152
 1665TIP3   OH226485   2.966   3.795  11.768  0.5282  0.0272  0.0110
 1665TIP3    H126486   2.991   3.703  11.781 -1.1206 -0.6177 -0.9451
 1665TIP3    H226487   2.907   3.814  11.841  1.4951  0.6122  0.6596
 1666TIP3   OH226488   3.675   1.136  37.033  0.4262  0.0196  0.4589
 1666TIP3    H126489   3.640   1.054  37.067  0.8811 -0.9218 -1.2006
 1666TIP3    H226490   3.769   1.119  37.020  0.2123  0.1550 -1.5775
 1667TIP3   OH226491   0.461   1.821   9.675  0.3194 -0.0488 -0.0252
 1667TIP3    H126492   0.458   1.788   9.585 -1.1099  1.1832 -0.4762
 1667TIP3    H226493   0.447   1.916   9.666  0.7302  0.1743  1.4557
 1668TIP3   OH226494   2.290   2.912   5.458 -0.1664  0.0771  0.2863
 1668TIP3    H126495   2.282   2.915   5.363  0.5775  3.7949  0.1684
 1668TIP3    H226496   2.200   2.917   5.490 -0.3328  1.8063 -0.3381
 1669TIP3   OH226497   0.809   2.733  28.627  0.1821 -0.4378  0.3309
 1669TIP3    H126498   0.838   2.809  28.577 -0.8570 -0.5682 -0.5078
 1669TIP3    H226499   0.830   2.658  28.571 -0.1554 -0.6608  0.4969
 1670TIP3   OH226500   3.781   2.276   1.640 -0.3199  0.4080 -0.3574
 1670TIP3    H126501   3.866   2.241   1.614 -0.3856  0.7473 -1.0699
 1670TIP3    H226502   3.726   2.266   1.562 -0.4213  1.8052 -0.4908
 1671TIP3   OH226503   0.365   2.543  11.266  0.2435  0.7753  0.8571
 1671TIP3    H126504   0.319   2.625  11.281 -0.0721  1.0612 -1.2711
 1671TIP3    H226505   0.323   2.481  11.325  0.0146  1.9814  1.9980
 1672TIP3   OH226506   3.153   0.262  32.303  0.1752  0.1838  0.3450
 1672TIP3    H126507   3.247   0.258  32.285  0.2911 -1.5769  1.2090
 1672TIP3    H226508   3.141   0.208  32.381 -1.4209  1.2335  0.8696
 1673TIP3   OH226509   4.141   3.022  26.783  0.1884  0.2174 -0.3117
 1673TIP3    H126510   4.099   2.936  26.794 -1.0012  0.5836 -1.6810
 1673TIP3    H226511   4.070   3.085  26.791  0.7710  0.9701 -0.9152
 1674TIP3   OH226512   1.956   2.695   6.588 -0.6908 -0.3085  0.5396
 1674TIP3    H126513   1.893   2.694   6.515 -0.3393 -1.7002  0.2278
 1674TIP3    H226514   2.002   2.778   6.579  1.6508 -1.7745 -2.8689
 1675TIP3   OH226515   4.014   2.972   3.316  0.2946 -0.3473  0.1178
 1675TIP3    H126516   4.027   3.044   3.254  3.2103  0.1727  1.1539
 1675TIP3    H226517   3.968   2.905   3.266  0.8815  0.7729 -2.0408
 1676TIP3   OH226518   1.725   3.067   1.447 -0.4338  0.3768  0.7734
 1676TIP3    H126519   1.668   3.127   1.495  0.0142  0.5408  1.1056
 1676TIP3    H226520   1.668   3.026   1.382 -0.7583  1.1188  0.5818
 1677TIP3   OH226521   3.909   4.020  41.584 -0.4033  0.3421  0.5909
 1677TIP3    H126522   3.913   3.941  41.529 -0.3772  0.2014  0.7969
 1677TIP3    H226523   3.815   4.031  41.603 -0.4500  0.5924  0.2299
 1678TIP3   OH226524   1.080   1.186  31.231 -0.2365  0.2831 -0.6403
 1678TIP3    H126525   1.065   1.188  31.136  1.5357  0.9847 -0.9368
 1678TIP3    H226526   1.103   1.095  31.250  1.4347  0.5446 -1.2615
 1679TIP3   OH226527   3.004   4.169   1.944 -0.4722  1.3495 -0.0959
 1679TIP3    H126528   3.093   4.186   1.911  0.1227 -0.2455  0.5554
 1679TIP3    H226529   3.012   4.084   1.989 -2.3177  1.2222  0.0435
 1680TIP3   OH226530   3.136   3.385   4.425  0.2887  0.3473  0.1057
 1680TIP3    H126531   3.091   3.446   4.367  0.4475  0.2896 -0.0802
 1680TIP3    H226532   3.160   3.437   4.501  3.3219  1.4011 -1.3967
 1681TIP3   OH226533   0.463   0.639  27.233 -0.3363 -0.1219  0.3096
 1681TIP3    H126534   0.506   0.721  27.209 -0.5634 -0.5298 -1.6269
 1681TIP3    H226535   0.518   0.604  27.303  1.1624  0.5327 -0.4715
 1682TIP3   OH226536   0.635   2.712   2.938 -0.5243 -0.0255 -0.0466
 1682TIP3    H126537   0.654   2.620   2.920 -0.5446 -0.0379 -0.0058
 1682TIP3    H226538   0.721   2.755   2.937 -0.4505 -0.1489  0.5202
 1683TIP3   OH226539   4.175   3.324  27.372  0.1223 -0.4066 -0.0428
 1683TIP3    H126540   4.237   3.253  27.387  0.0537 -0.5116 -0.2510
 1683TIP3    H226541   4.130   3.335  27.456  0.5863 -0.1673  0.1825
 1684TIP3   OH226542   0.806   2.608  29.185 -0.0361  0.1739  0.4878
 1684TIP3    H126543   0.793   2.522  29.144 -0.8273  1.1829 -1.4850
 1684TIP3    H226544   0.902   2.618  29.188  0.0724  0.3129 -1.7698
 1685TIP3   OH226545   1.769   3.686  18.467 -0.4927  0.2096 -0.4421
 1685TIP3    H126546   1.728   3.764  18.503  0.6779 -0.6405  3.2009
 1685TIP3    H226547   1.855   3.682  18.510  0.2923 -2.0402 -1.9957
 1686TIP3   OH226548   3.990   4.077  30.368  0.2282  0.7140  0.5217
 1686TIP3    H126549   4.049   4.003  30.363 -0.2091  0.0592  3.3098
 1686TIP3    H226550   3.905   4.042  30.342  0.2292  0.5074  0.7936
 1687TIP3   OH226551   2.882   3.121   1.299 -0.1276 -0.0436 -1.0301
 1687TIP3    H126552   2.872   3.072   1.380 -2.2590  0.5440 -0.8879
 1687TIP3    H226553   2.967   3.092   1.264 -0.3722 -2.2834  0.0515
 1688TIP3   OH226554   0.846   0.575  34.561  0.4238 -0.6430  0.0245
 1688TIP3    H126555   0.751   0.579  34.558  0.3056 -1.5360  1.5065
 1688TIP3    H226556   0.869   0.512  34.492 -0.0622 -0.4948 -0.2798
 1689TIP3   OH226557   3.474   1.495  36.371  0.0459 -0.1786 -0.1137
 1689TIP3    H126558   3.438   1.577  36.337  2.5345  1.7801  1.6004
 1689TIP3    H226559   3.444   1.490  36.462  0.6610 -0.6838  0.0745
 1690TIP3   OH226560   3.256   0.737  28.549 -0.3674  0.1152  0.6974
 1690TIP3    H126561   3.284   0.692  28.470  1.2235 -0.6423  1.6426
 1690TIP3    H226562   3.336   0.775  28.585 -1.1550  0.9218  1.6571
 1691TIP3   OH226563   4.028   2.774   3.521 -0.0270  0.5299  0.2106
 1691TIP3    H126564   3.937   2.761   3.545 -0.8811  0.7094 -2.5493
 1691TIP3    H226565   4.031   2.862   3.484  1.2340  0.4686  0.1011
 1692TIP3   OH226566   1.396   1.496  31.794 -0.2208 -0.7157 -0.7272
 1692TIP3    H126567   1.437   1.580  31.816 -0.1118 -1.1356  0.8148
 1692TIP3    H226568   1.312   1.520  31.754 -0.6440  0.1612  0.5975
 1693TIP3   OH226569   1.394   2.334  37.547 -0.2612 -0.3662  0.1487
 1693TIP3    H126570   1.335   2.407  37.568 -0.4836  0.0451 -1.7193
 1693TIP3    H226571   1.354   2.258  37.589 -0.3401  0.4662  1.6443
 1694TIP3   OH226572   2.138   3.122   0.992 -0.1024  0.3131 -0.1333
 1694TIP3    H126573   2.130   3.093   0.901 -0.8514 -0.9093  0.3068
 1694TIP3    H226574   2.129   3.218   0.986  0.9837  0.3693 -1.4493
 1695TIP3   OH226575   4.151   0.772   4.533  0.5826 -0.6293  0.1934
 1695TIP3    H126576   4.096   0.847   4.508 -0.0095 -1.0644  0.1749
 1695TIP3    H226577   4.216   0.809   4.592 -0.0676 -0.2074  0.6590
 1696TIP3   OH226578   3.675   2.780   5.046 -0.2627 -0.0283  0.1577
 1696TIP3    H126579   3.728   2.813   4.974 -1.1681 -1.4254 -1.2056
 1696TIP3    H226580   3.738   2.766   5.117  0.6098  1.5905 -0.2530
 1697TIP3   OH226581   2.855   2.454   7.266  0.3248  0.1168  0.2846
 1697TIP3    H126582   2.907   2.481   7.191 -0.1505  0.3358  0.0294
 1697TIP3    H226583   2.905   2.484   7.342  0.9281 -0.3254  0.0654
 1698TIP3   OH226584   3.643   2.971  37.810  0.3124 -0.1166  0.3881
 1698TIP3    H126585   3.617   2.893  37.761 -2.1335 -0.7042  2.4022
 1698TIP3    H226586   3.594   3.043  37.770  1.4924  0.1750 -0.5804
 1699TIP3   OH226587   0.523   0.367  30.690 -0.2904 -0.1854  0.2494
 1699TIP3    H126588   0.610   0.326  30.695  0.4950  1.2612 -0.8571
 1699TIP3    H226589   0.492   0.368  30.781  0.3525 -1.7177  0.5190
 1700TIP3   OH226590   3.910   0.948   3.162 -0.3285 -0.3379 -0.4382
 1700TIP3    H126591   3.930   1.033   3.201  0.0834 -1.3228  1.6346
 1700TIP3    H226592   3.815   0.942   3.163 -0.3288 -0.5131  0.9234
 1701TIP3   OH226593   3.306   3.248   3.621 -0.2024 -0.4202  0.4438
 1701TIP3    H126594   3.236   3.284   3.565  0.7002  0.2482 -0.2808
 1701TIP3    H226595   3.381   3.305   3.606  0.1866 -0.4483  2.0877
 1702TIP3   OH226596   1.073   0.541  33.087  0.3717 -0.2523 -0.2041
 1702TIP3    H126597   1.036   0.615  33.136 -0.0985 -2.8162  3.8503
 1702TIP3    H226598   0.997   0.497  33.050  0.0955 -1.1145  1.2992
 1703TIP3   OH226599   0.149   2.939   3.485 -0.1000  0.4306  0.1923
 1703TIP3    H126600   0.068   2.942   3.434 -1.0280  0.3104  1.5833
 1703TIP3    H226601   0.120   2.913   3.573  1.7118 -2.0191  0.1827
 1704TIP3   OH226602   2.222   2.459  39.231  0.9229  0.5524 -0.0757
 1704TIP3    H126603   2.259   2.470  39.318  0.6774  1.1530 -0.0419
 1704TIP3    H226604   2.153   2.525  39.225  1.0568  0.6450 -0.7855
 1705TIP3   OH226605   2.891   4.019   0.771 -0.0834 -0.1775 -0.0200
 1705TIP3    H126606   2.917   4.081   0.839 -0.0369  0.6404 -0.7784
 1705TIP3    H226607   2.973   3.980   0.742 -0.0894 -0.4227  0.2815
 1706TIP3   OH226608   3.136   1.361  10.370 -0.0895 -0.0361  0.2131
 1706TIP3    H126609   3.203   1.401  10.315  0.2917 -1.1435 -0.1547
 1706TIP3    H226610   3.072   1.324  10.308  0.0301 -0.7671  0.5187
 1707TIP3   OH226611   3.340   0.246   1.386 -0.3483  0.1298  0.1619
 1707TIP3    H126612   3.289   0.307   1.440 -0.5045 -0.1545  0.3337
 1707TIP3    H226613   3.335   0.283   1.297 -1.8463 -0.5151 -0.0608
 1708TIP3   OH226614   3.634   2.702   2.439  0.0776  0.0677 -0.3152
 1708TIP3    H126615   3.657   2.794   2.442 -0.7528  0.2602  0.5873
 1708TIP3    H226616   3.577   2.688   2.515  0.8943 -1.3893  0.0697
 1709TIP3   OH226617   0.181   2.908   6.061  0.4525 -0.1431 -0.2791
 1709TIP3    H126618   0.186   2.829   6.008  2.2813 -2.0102  2.3957
 1709TIP3    H226619   0.196   2.878   6.151  1.0911  3.2179  0.9100
 1710TIP3   OH226620   0.786   3.605   9.337  0.2601  0.0074  0.1975
 1710TIP3    H126621   0.727   3.676   9.362  1.5685  1.6346 -1.0931
 1710TIP3    H226622   0.840   3.591   9.416 -1.0055 -0.6706  0.9758
 1711TIP3   OH226623   2.598   1.587   3.294 -0.1278  0.4907 -0.3526
 1711TIP3    H126624   2.673   1.587   3.235 -0.2481  1.9882 -0.5632
 1711TIP3    H226625   2.620   1.652   3.360 -0.7354  0.0764  0.2634
 1712TIP3   OH226626   4.202   2.580  11.058  0.6572  0.4940  0.4838
 1712TIP3    H126627   4.266   2.643  11.090  0.5568  0.6321  0.4159
 1712TIP3    H226628   4.253   2.518  11.006  0.9847 -0.3137  1.7103
 1713TIP3   OH226629   3.651   2.351   8.615 -0.4273  0.0366 -0.5141
 1713TIP3    H126630   3.561   2.336   8.642 -0.0543 -0.8821  0.3037
 1713TIP3    H226631   3.673   2.436   8.652 -1.0327  0.3833 -0.9370
 1714TIP3   OH226632   1.730   0.627  38.750 -0.0162 -0.2738  0.3086
 1714TIP3    H126633   1.692   0.555  38.701 -0.2256  0.1730 -0.1942
 1714TIP3    H226634   1.822   0.629  38.723 -0.2968  0.4359 -0.6469
 1715TIP3   OH226635   0.219   3.350   0.134  0.1312  0.3978 -0.2014
 1715TIP3    H126636   0.141   3.393   0.099  0.4218  0.8344 -0.3254
 1715TIP3    H226637   0.195   3.325   0.223 -0.3085  0.1003 -0.4015
 1716TIP3   OH226638   2.044   0.329  16.662  0.9148 -0.1551 -0.3481
 1716TIP3    H126639   2.016   0.361  16.576 -2.5920 -0.7811  0.4298
 1716TIP3    H226640   2.049   0.234  16.652 -0.9762 -0.3797  0.4191
 1717TIP3   OH226641   1.073   3.043  39.708  0.0881 -0.1872 -0.2968
 1717TIP3    H126642   1.016   3.115  39.679 -1.4258 -1.2697 -0.1416
 1717TIP3    H226643   1.147   3.087  39.750  0.1764  1.3130 -1.9006
 1718TIP3   OH226644   4.150   2.652  13.037 -0.0134  0.8694  0.2831
 1718TIP3    H126645   4.057   2.636  13.054 -0.1783  2.0326  0.5837
 1718TIP3    H226646   4.195   2.600  13.103 -0.4412  0.1345  0.0079
 1719TIP3   OH226647   3.867   0.788  32.853  0.0658 -0.0640  0.2794
 1719TIP3    H126648   3.781   0.819  32.823  1.3871  2.1297 -1.5158
 1719TIP3    H226649   3.876   0.702  32.812 -0.1847  0.8548 -1.8312
 1720TIP3   OH226650   4.231   2.656  10.564 -0.4249  0.4589 -0.3813
 1720TIP3    H126651   4.153   2.705  10.592 -1.2126 -0.9911  0.0774
 1720TIP3    H226652   4.304   2.707  10.599 -1.1816  1.5547 -0.3224
 1721TIP3   OH226653   0.474   1.349  38.630 -0.1434 -0.2693  0.2720
 1721TIP3    H126654   0.423   1.393  38.697  0.3022 -3.0133  2.6045
 1721TIP3    H226655   0.425   1.269  38.611  1.2939 -1.0476 -0.3490
 1722TIP3   OH226656   1.370   1.038  18.956 -0.0018 -0.0165  0.1708
 1722TIP3    H126657   1.422   1.092  18.896 -0.7545 -1.4251 -1.8852
 1722TIP3    H226658   1.280   1.053  18.929 -0.4826  0.3131  1.8797
 1723TIP3   OH226659   1.188   3.123  32.847  0.0352 -0.7710 -0.8387
 1723TIP3    H126660   1.258   3.062  32.827  0.9764  0.5420 -1.6763
 1723TIP3    H226661   1.228   3.189  32.903  0.1681  1.2520 -3.1403
 1724TIP3   OH226662   1.160   4.252  41.242 -0.2116  0.1879  0.0536
 1724TIP3    H126663   1.152   4.330  41.187 -0.7988  0.3279  0.3294
 1724TIP3    H226664   1.112   4.274  41.321 -0.8548 -0.6667 -0.0918
 1725TIP3   OH226665   2.586   0.042  32.761  0.2464  0.6100  0.2230
 1725TIP3    H126666   2.619   0.043  32.671 -0.9518  1.7298 -0.2280
 1725TIP3    H226667   2.558  -0.049  32.776 -3.0605  1.1246 -1.8997
 1726TIP3   OH226668   1.682   1.760  33.397  0.2813 -0.3299  0.0738
 1726TIP3    H126669   1.617   1.746  33.328  0.5941 -1.1024 -0.0745
 1726TIP3    H226670   1.740   1.684  33.391  1.3121  0.4432  0.0879
 1727TIP3   OH226671   3.004   0.949   8.631 -0.6359  0.0765 -0.3203
 1727TIP3    H126672   2.976   0.981   8.545  0.5240  1.3804 -0.2685
 1727TIP3    H226673   2.954   1.001   8.694  0.6722  1.3071 -0.2369
 1728TIP3   OH226674   0.572   3.754  35.047 -0.4570 -0.1042  0.1252
 1728TIP3    H126675   0.480   3.726  35.043  0.0367 -2.0503  1.1136
 1728TIP3    H226676   0.616   3.686  35.098  1.9687 -0.4103 -2.1391
 1729TIP3   OH226677   3.634   1.606  41.611 -0.2493 -0.8352  0.6656
 1729TIP3    H126678   3.576   1.636  41.541 -0.8141  1.5293  2.0345
 1729TIP3    H226679   3.713   1.576  41.566 -0.9702 -0.3427 -1.0101
 1730TIP3   OH226680   3.097   0.790  38.972  0.2456  0.2095 -0.1052
 1730TIP3    H126681   3.015   0.747  38.995 -0.0605  1.8584  2.2506
 1730TIP3    H226682   3.073   0.851  38.902 -0.3762  0.1590  0.0571
 1731TIP3   OH226683   3.738   2.606   2.767 -0.1864  0.0446 -0.1143
 1731TIP3    H126684   3.798   2.531   2.760  0.1413  0.4247 -1.7583
 1731TIP3    H226685   3.783   2.666   2.827  0.1000 -0.5633  0.2937
 1732TIP3   OH226686   0.449   1.314  26.009 -0.0386  0.0560 -0.0414
 1732TIP3    H126687   0.392   1.381  26.047  1.2305  1.0794  0.1368
 1732TIP3    H226688   0.533   1.359  25.995  0.8105 -1.4607 -0.0476
 1733TIP3   OH226689   3.391   2.365  38.654  0.0956  0.5938 -0.0923
 1733TIP3    H126690   3.296   2.355  38.657  0.1574 -0.9279 -1.6482
 1733TIP3    H226691   3.407   2.429  38.585  0.2344 -0.0015 -0.6157
 1734TIP3   OH226692   3.556   2.674  39.577 -0.1717 -0.1014  0.5101
 1734TIP3    H126693   3.510   2.632  39.649 -0.4378  0.3675  0.6201
 1734TIP3    H226694   3.635   2.621  39.565 -1.1152 -1.3944 -0.2212
 1735TIP3   OH226695   1.826   1.797   6.999  0.2686 -0.3067  1.0002
 1735TIP3    H126696   1.903   1.845   6.967 -0.0589 -0.6457 -0.3700
 1735TIP3    H226697   1.763   1.803   6.928 -0.9654 -0.0861  2.0870
 1736TIP3   OH226698   4.054   1.273  32.268  0.2948  0.0497 -0.2496
 1736TIP3    H126699   3.964   1.248  32.245  0.2352 -0.5279  0.5546
 1736TIP3    H226700   4.078   1.211  32.337  1.1654  0.4678 -0.1736
 1737TIP3   OH226701   1.571   2.418   6.487 -0.0200  0.0750  0.2167
 1737TIP3    H126702   1.627   2.382   6.418  1.8322  0.7869  1.2829
 1737TIP3    H226703   1.512   2.346   6.509  1.2047 -1.0963 -0.1989
 1738TIP3   OH226704   2.102   0.535  27.139  0.6213  0.0203  0.2950
 1738TIP3    H126705   2.187   0.572  27.162 -0.7587  1.6157  3.4563
 1738TIP3    H226706   2.069   0.591  27.069  2.1721 -0.7351 -1.0997
 1739TIP3   OH226707   2.008   2.054   2.124  0.8773 -0.7608  0.0144
 1739TIP3    H126708   2.016   1.960   2.138 -1.1661 -1.0630 -0.6046
 1739TIP3    H226709   1.926   2.078   2.167  1.2111  0.6904 -0.1154
 1740TIP3   OH226710   1.640   2.815  39.739 -0.5012 -0.0316 -0.3524
 1740TIP3    H126711   1.605   2.893  39.695 -2.0184 -0.0525  0.7467
 1740TIP3    H226712   1.721   2.795  39.692  0.8242  3.1654  0.3483
 1741TIP3   OH226713   1.287   2.547   8.251 -0.1242 -0.0406 -0.8857
 1741TIP3    H126714   1.296   2.545   8.156  1.6440 -2.8587 -0.7494
 1741TIP3    H226715   1.252   2.461   8.274 -0.5639  0.5974  1.0584
 1742TIP3   OH226716   0.644   2.758   7.360  0.2846  0.7940 -0.0440
 1742TIP3    H126717   0.680   2.685   7.409  2.0440  0.2523 -1.9891
 1742TIP3    H226718   0.620   2.720   7.275 -0.5831  2.1169 -0.4219
 1743TIP3   OH226719   3.990   2.737  10.322 -0.5291 -0.2271  0.7784
 1743TIP3    H126720   4.051   2.665  10.335  2.0034  1.6642  0.2532
 1743TIP3    H226721   3.996   2.757  10.229 -1.3413  0.5174  0.8690
 1744TIP3   OH226722   0.923   0.551  23.282 -0.8378  0.5523  0.3291
 1744TIP3    H126723   1.005   0.589  23.312 -0.5326  0.3291 -0.2060
 1744TIP3    H226724   0.855   0.597  23.332 -0.5533  2.4087 -0.8855
 1745TIP3   OH226725   3.289   3.680   9.053 -0.8712 -0.2446 -0.7113
 1745TIP3    H126726   3.305   3.613   8.986 -1.7298 -1.5563  0.3416
 1745TIP3    H226727   3.214   3.647   9.102 -0.5734  0.9337  0.5866
 1746TIP3   OH226728   0.924   0.308  33.578  0.1829 -0.2112 -0.2006
 1746TIP3    H126729   0.919   0.230  33.634  1.3980  0.1530  0.4510
 1746TIP3    H226730   0.860   0.368  33.616 -1.3438 -1.1439 -1.1828
 1747TIP3   OH226731   1.505   3.643   5.270  0.3766  0.0822  0.3397
 1747TIP3    H126732   1.505   3.733   5.236 -0.3481  0.2545  0.7753
 1747TIP3    H226733   1.418   3.610   5.249  0.7218 -0.6131 -0.0344
 1748TIP3   OH226734   3.924   3.661  38.808  0.0286  0.0817 -0.0205
 1748TIP3    H126735   3.934   3.566  38.810  1.7079  0.2461  2.0785
 1748TIP3    H226736   3.997   3.695  38.859  0.0550  2.5922 -1.5159
 1749TIP3   OH226737   1.444   1.479   8.789 -0.1555  0.1852 -0.7941
 1749TIP3    H126738   1.378   1.425   8.832 -0.2949  0.5928 -0.4861
 1749TIP3    H226739   1.488   1.420   8.728  1.1248 -0.8368  1.0219
 1750TIP3   OH226740   3.262   3.481  11.334  0.6125  0.4638 -0.0480
 1750TIP3    H126741   3.201   3.548  11.365  0.0574  0.0461 -0.2152
 1750TIP3    H226742   3.290   3.435  11.413  1.1202  0.9966  0.0827
 1751TIP3   OH226743   3.452   0.325  36.425 -0.0541  0.4628 -0.3529
 1751TIP3    H126744   3.363   0.359  36.428 -0.6252 -0.9620 -0.2765
 1751TIP3    H226745   3.508   0.403  36.423 -1.2411  1.3869  0.7652
 1752TIP3   OH226746   0.645   1.569   7.381  0.5124  0.3671 -0.1641
 1752TIP3    H126747   0.622   1.576   7.288 -2.4887  0.9454  0.5369
 1752TIP3    H226748   0.664   1.659   7.408  2.7162  0.0473 -0.4346
 1753TIP3   OH226749   0.842   1.986   7.175 -0.3548 -0.3465  0.5222
 1753TIP3    H126750   0.798   2.049   7.232 -2.3046 -0.2853 -0.9653
 1753TIP3    H226751   0.905   1.942   7.233  1.7321  3.4278  1.4683
 1754TIP3   OH226752   2.865   4.115   6.100  0.0646  0.1044  0.3879
 1754TIP3    H126753   2.790   4.174   6.103 -0.4879 -0.4816 -1.0946
 1754TIP3    H226754   2.880   4.091   6.192 -1.6075  0.1739  0.7081
 1755TIP3   OH226755   0.021   2.332  24.597  0.2094  0.4277  0.1353
 1755TIP3    H126756   0.028   2.240  24.571  0.7797  0.9209 -1.6600
 1755TIP3    H226757   0.075   2.338  24.676  0.4419 -0.7081  0.0922
 1756TIP3   OH226758   0.235   4.074  23.714  0.0157 -0.4876  0.6017
 1756TIP3    H126759   0.230   4.168  23.734 -1.8375 -0.2283 -0.8624
 1756TIP3    H226760   0.161   4.035  23.761 -0.4484 -0.8802 -0.4329
 1757TIP3   OH226761   3.935   3.209  12.579 -0.6340  0.0433 -0.6218
 1757TIP3    H126762   3.997   3.167  12.519 -2.8687 -1.2294 -2.1878
 1757TIP3    H226763   3.936   3.155  12.657  1.4900  1.0789  0.1443
 1758TIP3   OH226764   2.376   3.605   0.092 -0.1170  0.0564  0.1380
 1758TIP3    H126765   2.340   3.694   0.092 -0.6022 -0.1323 -0.7401
 1758TIP3    H226766   2.461   3.614   0.136  0.1094  1.0685 -0.4823
 1759TIP3   OH226767   0.836   0.015   5.746 -0.1206 -0.5699  0.1666
 1759TIP3    H126768   0.741   0.027   5.747  0.0521  2.2477 -2.5170
 1759TIP3    H226769   0.856  -0.002   5.654  2.1221  0.4566  0.4190
 1760TIP3   OH226770   0.928   0.085  27.186  0.6739 -0.1306 -0.5029
 1760TIP3    H126771   0.889  -0.002  27.179  2.5047 -0.9867 -0.6451
 1760TIP3    H226772   1.008   0.071  27.236 -0.2148  1.9234  1.7216
 1761TIP3   OH226773   0.831   4.349  36.425  0.2383  0.4824  0.1379
 1761TIP3    H126774   0.786   4.307  36.352 -0.6661  1.1627  0.2837
 1761TIP3    H226775   0.825   4.442  36.406  2.5368  0.5777 -0.3729
 1762TIP3   OH226776   3.604   0.988  35.309  0.2505 -0.3838 -0.2413
 1762TIP3    H126777   3.676   1.039  35.345  0.1300 -0.9629  0.8584
 1762TIP3    H226778   3.559   1.049  35.250  0.1541  0.7715  0.9752
 1763TIP3   OH226779   1.271   0.425  31.985 -0.5149 -0.3724 -0.1213
 1763TIP3    H126780   1.209   0.355  31.965  0.0965 -0.8004 -0.5592
 1763TIP3    H226781   1.357   0.384  31.975 -0.1640  0.1925  0.5538
 1764TIP3   OH226782   3.128   2.925  38.268 -0.2264 -0.0881 -0.0125
 1764TIP3    H126783   3.148   3.007  38.223  0.2301 -0.3972 -0.3716
 1764TIP3    H226784   3.188   2.923  38.343  1.2009 -1.0581 -1.1426
 1765TIP3   OH226785   0.488   2.981  27.587  0.0338 -0.2540 -0.4193
 1765TIP3    H126786   0.476   3.010  27.496 -0.6965  0.3447 -0.1383
 1765TIP3    H226787   0.400   2.956  27.616  0.2707 -0.4835  0.1125
 1766TIP3   OH226788   3.819   0.376  35.553  0.1690 -0.4390  0.3462
 1766TIP3    H126789   3.798   0.283  35.538 -2.2803  0.3253 -1.7261
 1766TIP3    H226790   3.870   0.401  35.476 -0.4378  0.2273  0.1462
 1767TIP3   OH226791   3.073   2.931  28.510 -0.6201  0.4065  0.9062
 1767TIP3    H126792   3.055   2.844  28.545  0.4498 -0.3742 -0.3812
 1767TIP3    H226793   3.166   2.928  28.486 -0.8317  1.5302 -0.1573
 1768TIP3   OH226794   4.035   0.094  36.762 -0.3761 -0.3822  0.3056
 1768TIP3    H126795   4.064   0.016  36.715  1.2848  0.2366  0.2376
 1768TIP3    H226796   3.943   0.104  36.737  0.2250 -0.5301 -2.2011
 1769TIP3   OH226797   1.469   1.232  31.953 -0.3249  0.7481  0.3106
 1769TIP3    H126798   1.488   1.152  32.002  1.2774  0.2874 -0.9662
 1769TIP3    H226799   1.462   1.300  32.020 -1.7906 -0.4298  1.4309
 1770TIP3   OH226800   3.182   4.168  39.248  0.1704 -0.2330  0.5962
 1770TIP3    H126801   3.094   4.195  39.221  0.5280  0.9054  0.5271
 1770TIP3    H226802   3.218   4.126  39.170 -0.0228  0.0128  0.3705
 1771TIP3   OH226803   3.619   2.200  35.052  0.6912  0.3649 -0.0333
 1771TIP3    H126804   3.683   2.218  34.982  1.3185  1.3849  0.7586
 1771TIP3    H226805   3.668   2.215  35.133 -0.3336  0.3502  0.6111
 1772TIP3   OH226806   3.632   0.502  41.194  0.4754 -0.2513  0.5063
 1772TIP3    H126807   3.725   0.497  41.175  0.2737 -0.4767 -0.5024
 1772TIP3    H226808   3.617   0.595  41.214  0.6102  0.1717 -1.1754
 1773TIP3   OH226809   3.934   0.408  40.013 -0.0480  0.5527  0.0143
 1773TIP3    H126810   3.900   0.400  40.102  1.3391 -3.1540  0.3625
 1773TIP3    H226811   4.027   0.425  40.024  0.1788 -0.1674 -0.7090
 1774TIP3   OH226812   4.201   0.882  28.861 -0.3409  0.0399  0.0105
 1774TIP3    H126813   4.273   0.944  28.871  0.2854 -0.8386  1.1295
 1774TIP3    H226814   4.244   0.797  28.847 -1.1610 -0.4259  0.2367
 1775TIP3   OH226815   3.548   1.817  12.132  0.1212 -0.0680  0.4071
 1775TIP3    H126816   3.481   1.754  12.160  0.0882  0.8358  2.4895
 1775TIP3    H226817   3.498   1.894  12.105  0.2849  0.5418  1.7919
 1776TIP3   OH226818   1.003   3.394  37.772 -0.4016  0.1392 -0.2188
 1776TIP3    H126819   0.919   3.395  37.727  0.3513  1.3852 -1.6917
 1776TIP3    H226820   0.985   3.428  37.859 -1.3938  0.5257 -0.5692
 1777TIP3   OH226821   1.885   1.028  30.199  0.6854  0.1326 -0.1123
 1777TIP3    H126822   1.929   1.109  30.223  0.0160  0.3128  0.5432
 1777TIP3    H226823   1.839   1.048  30.118 -0.5345  0.8221  0.7108
 1778TIP3   OH226824   3.792   3.885  39.234  0.0219  0.3686 -0.3282
 1778TIP3    H126825   3.854   3.817  39.210 -0.7064  0.3710 -2.4499
 1778TIP3    H226826   3.711   3.837  39.255  0.2106  0.4625  0.6521
 1779TIP3   OH226827   4.223   2.114   9.399  0.6213  0.3788 -0.2332
 1779TIP3    H126828   4.206   2.113   9.493 -1.6224  0.1296 -0.5854
 1779TIP3    H226829   4.218   2.207   9.375  1.0250  0.4266 -0.1302
 1780TIP3   OH226830   0.812   1.539  36.785 -0.0582  0.3031 -0.3160
 1780TIP3    H126831   0.771   1.530  36.871  1.0920 -0.2482  0.1918
 1780TIP3    H226832   0.739   1.533  36.723 -0.6817 -1.3414  0.5339
 1781TIP3   OH226833   2.859   3.287  32.722  0.2490 -0.4415 -0.3694
 1781TIP3    H126834   2.938   3.327  32.688  1.5635 -2.1935  0.4571
 1781TIP3    H226835   2.806   3.267  32.645  0.9175  0.1220 -0.9807
 1782TIP3   OH226836   0.644   3.440  22.087  0.9055 -0.6284  0.0942
 1782TIP3    H126837   0.571   3.401  22.136 -0.1385  1.0655 -0.0462
 1782TIP3    H226838   0.617   3.530  22.071  2.7696 -0.1361 -0.5397
 1783TIP3   OH226839   1.852   0.411  40.185 -0.6235  0.2421  0.2378
 1783TIP3    H126840   1.878   0.346  40.251 -1.6178 -0.7245 -0.2739
 1783TIP3    H226841   1.923   0.410  40.121 -0.8482 -0.7552 -0.0244
 1784TIP3   OH226842   4.184   3.110  23.238  0.0696  0.4250 -0.3050
 1784TIP3    H126843   4.130   3.187  23.257  0.8776  1.3566 -1.6195
 1784TIP3    H226844   4.141   3.070  23.162 -0.0142 -0.0906  0.0157
 1785TIP3   OH226845   2.036   4.295   2.524 -0.5315  0.2730 -0.0911
 1785TIP3    H126846   2.006   4.385   2.537  2.6344  1.2374  1.6734
 1785TIP3    H226847   2.073   4.294   2.436 -0.4438  0.7755 -0.0620
 1786TIP3   OH226848   0.941   2.124  40.131  0.1645 -0.1569 -0.5246
 1786TIP3    H126849   0.982   2.102  40.047 -0.3312  0.4333 -0.9289
 1786TIP3    H226850   0.964   2.216  40.144  0.3973 -0.2998  0.0835
 1787TIP3   OH226851   2.664   2.202  12.216 -0.3758  0.1078  0.2249
 1787TIP3    H126852   2.639   2.288  12.182 -0.1817 -0.1040 -0.4667
 1787TIP3    H226853   2.760   2.201  12.210 -0.3382  0.0537  0.7587
 1788TIP3   OH226854   1.993   1.122  17.092  0.0048  0.1890  0.1232
 1788TIP3    H126855   2.023   1.205  17.129  1.1981  0.1082 -0.6357
 1788TIP3    H226856   2.062   1.060  17.114 -1.1687 -0.7705  1.2368
 1789TIP3   OH226857   0.199   3.408  37.929  0.2020  0.2761 -0.4001
 1789TIP3    H126858   0.142   3.472  37.886  0.0701  0.7541  0.4556
 1789TIP3    H226859   0.146   3.371  37.999  1.2890  1.7090  1.2989
 1790TIP3   OH226860   3.970   3.852   8.279 -0.8323 -0.3060 -0.5141
 1790TIP3    H126861   3.961   3.878   8.371  0.0914  1.4804 -0.8911
 1790TIP3    H226862   3.979   3.757   8.282  0.2879 -0.1965  1.3498
 1791TIP3   OH226863   0.012   3.502   0.032  0.2269 -0.5052  0.0255
 1791TIP3    H126864  -0.064   3.451   0.005 -0.1433 -0.1650  0.3936
 1791TIP3    H226865   0.053   3.529  -0.050  1.0278 -2.2401 -0.1824
 1792TIP3   OH226866   0.066   0.441  30.263 -0.4378 -0.3123 -0.4039
 1792TIP3    H126867   0.026   0.506  30.205 -0.5726  0.9589  1.0473
 1792TIP3    H226868   0.151   0.480  30.286 -0.5582 -0.6138  0.5472
 1793TIP3   OH226869   2.748   2.616   2.458  0.1729  0.1137  0.7458
 1793TIP3    H126870   2.821   2.626   2.519  0.7811  1.3418 -0.1513
 1793TIP3    H226871   2.723   2.705   2.436 -3.0436 -0.1710  2.6332
 1794TIP3   OH226872   2.108   2.028  33.961 -0.2410 -0.1881 -0.1892
 1794TIP3    H126873   2.020   2.045  33.997 -0.4342  0.9369 -1.1154
 1794TIP3    H226874   2.130   1.940  33.991 -0.6816  0.3858  2.0665
 1795TIP3   OH226875   2.563   3.923  29.787 -0.3793  0.1404 -0.4563
 1795TIP3    H126876   2.631   3.856  29.797 -0.1211  0.3708 -0.6551
 1795TIP3    H226877   2.485   3.885  29.828  0.1314  0.2604  0.6777
 1796TIP3   OH226878   2.736   2.675   1.536  0.0817  0.0354 -0.6770
 1796TIP3    H126879   2.736   2.610   1.606 -1.3999 -1.0562 -1.6432
 1796TIP3    H226880   2.816   2.656   1.486 -0.2889 -1.0060 -0.8996
 1797TIP3   OH226881   1.703   1.637  31.588 -0.9342 -0.3214 -0.0277
 1797TIP3    H126882   1.625   1.678  31.622 -1.3901 -0.9576 -0.2819
 1797TIP3    H226883   1.769   1.707  31.587 -0.7334 -0.3655  2.5864
 1798TIP3   OH226884   2.078   0.275   1.836 -0.0755  0.6603  0.0533
 1798TIP3    H126885   2.000   0.293   1.785 -0.1301 -5.2127 -2.7147
 1798TIP3    H226886   2.047   0.267   1.926 -1.7814  2.2662 -0.3400
 1799TIP3   OH226887   2.153   1.296  29.904 -0.2481  0.4605  0.4630
 1799TIP3    H126888   2.234   1.307  29.855 -0.5729 -1.2065 -0.5382
 1799TIP3    H226889   2.088   1.347  29.857  0.0963  1.4679  1.0367
 1800TIP3   OH226890   0.285   0.949  32.594  0.1783 -0.7547  0.1441
 1800TIP3    H126891   0.371   0.909  32.577 -0.1112 -1.2141 -0.2294
 1800TIP3    H226892   0.306   1.027  32.645  0.9791  0.1669 -1.5338
 1801TIP3   OH226893   3.254   1.219   5.460 -0.0678  0.0254  0.1091
 1801TIP3    H126894   3.344   1.251   5.473 -0.0158  0.3673 -1.0387
 1801TIP3    H226895   3.265   1.135   5.416 -0.3316  0.8383 -1.5740
 1802TIP3   OH226896   2.926   0.594   5.918 -0.2636 -0.2733 -0.0971
 1802TIP3    H126897   2.862   0.580   5.987 -0.4700 -0.1789 -0.2667
 1802TIP3    H226898   2.972   0.674   5.944 -0.6220 -0.0033 -0.2737
 1803TIP3   OH226899   1.514   0.941  40.976 -0.1699  0.0518  0.1043
 1803TIP3    H126900   1.590   0.884  40.982 -0.0095  0.2631  0.0613
 1803TIP3    H226901   1.452   0.891  40.922  1.0026  1.0316 -2.3045
 1804TIP3   OH226902   1.167   0.108   5.883 -0.2926 -0.3881  0.2319
 1804TIP3    H126903   1.236   0.044   5.900  0.4226  0.1189 -0.7235
 1804TIP3    H226904   1.201   0.163   5.813 -0.5076  1.6416  1.6430
 1805TIP3   OH226905   4.307   3.024   5.470  0.0368 -0.3931  0.2341
 1805TIP3    H126906   4.316   3.056   5.380  0.7144 -1.0082  0.0737
 1805TIP3    H226907   4.281   2.932   5.460 -3.3386  0.3944  0.6785
 1806TIP3   OH226908   0.002   0.418   3.060 -0.4064  0.1994  0.1962
 1806TIP3    H126909   0.037   0.460   3.139 -0.6077  0.6010  0.0689
 1806TIP3    H226910  -0.092   0.436   3.062 -0.7147 -1.3325  0.8164
 1807TIP3   OH226911   1.506   3.950  17.473  0.2838  0.5448  0.3091
 1807TIP3    H126912   1.496   3.912  17.560 -1.2379  1.6936  0.6709
 1807TIP3    H226913   1.426   3.925  17.427 -0.9569  3.4878  0.6745
 1808TIP3   OH226914   0.128   4.356  24.319  0.5601  0.0439  0.2231
 1808TIP3    H126915   0.169   4.419  24.377 -0.9960  0.2790  1.1279
 1808TIP3    H226916   0.148   4.270  24.358 -0.4132  0.1955  1.0950
 1809TIP3   OH226917   2.067   2.169  11.236  0.1189  0.0209 -0.2226
 1809TIP3    H126918   1.989   2.220  11.257 -0.1433 -0.8627  1.0851
 1809TIP3    H226919   2.044   2.119  11.158 -0.3168  0.3977 -0.3374
 1810TIP3   OH226920   1.148   2.028   9.599  0.2232  0.3502 -0.5514
 1810TIP3    H126921   1.199   2.102   9.633 -2.2976  1.2450  1.6046
 1810TIP3    H226922   1.149   1.964   9.670 -0.1682 -0.3806 -1.1958
 1811TIP3   OH226923   4.191   3.251  33.482  0.3040  0.4148 -0.0569
 1811TIP3    H126924   4.226   3.171  33.522  1.0198 -0.1368 -1.6931
 1811TIP3    H226925   4.267   3.292  33.441 -0.1083  1.8136  0.5434
 1812TIP3   OH226926   1.207   2.534  37.593  0.5931  0.2459 -0.1081
 1812TIP3    H126927   1.156   2.554  37.514 -0.1574 -0.2814  0.2304
 1812TIP3    H226928   1.152   2.473  37.642 -0.4037  2.8836  2.3598
 1813TIP3   OH226929   0.846   4.100  35.703  0.9114  0.5075  0.3182
 1813TIP3    H126930   0.815   4.149  35.779 -0.9268 -1.9785  1.3373
 1813TIP3    H226931   0.831   4.008  35.726  0.2189 -0.3758 -3.0741
 1814TIP3   OH226932   2.454   1.735   3.934  0.1527 -0.1662  0.1112
 1814TIP3    H126933   2.541   1.715   3.900 -0.6008 -3.2624 -0.3283
 1814TIP3    H226934   2.418   1.649   3.959 -2.0193  1.2154  2.1721
 1815TIP3   OH226935   4.291   1.211  41.520 -0.0720  0.3562 -0.1856
 1815TIP3    H126936   4.257   1.287  41.568  1.1784  0.0879  1.1931
 1815TIP3    H226937   4.383   1.232  41.503  0.3851 -0.9617  0.5068
 1816TIP3   OH226938   2.762   1.008  34.830  0.0966  0.3685 -0.1874
 1816TIP3    H126939   2.711   1.089  34.832 -0.9031 -0.1640 -2.1158
 1816TIP3    H226940   2.819   1.017  34.754  0.5713 -0.3918  0.0715
 1817TIP3   OH226941   2.744   2.910   2.672 -0.3277 -0.9309  0.0179
 1817TIP3    H126942   2.658   2.952   2.663  0.2315  0.0205 -1.1728
 1817TIP3    H226943   2.776   2.941   2.757 -0.8585 -0.7190  0.1460
 1818TIP3   OH226944   3.427   0.085   7.068 -0.2099 -0.1990 -0.1230
 1818TIP3    H126945   3.434   0.180   7.078  0.3775 -0.4318  2.1601
 1818TIP3    H226946   3.390   0.073   6.980  1.2179  2.0678 -1.1270
 1819TIP3   OH226947   0.498   4.150  23.577 -0.3114 -0.5062 -0.0957
 1819TIP3    H126948   0.524   4.104  23.497 -1.9287  0.5617 -1.2799
 1819TIP3    H226949   0.430   4.095  23.615 -0.3558 -0.4280 -0.0633
 1820TIP3   OH226950   2.221   1.699  30.515  0.0043  0.4109 -0.0266
 1820TIP3    H126951   2.278   1.765  30.475  0.6979  0.3100  0.7723
 1820TIP3    H226952   2.281   1.633  30.549 -0.6561 -0.3125 -0.2436
 1821TIP3   OH226953   4.377   1.719  33.702  0.0684  0.4179 -0.3565
 1821TIP3    H126954   4.418   1.643  33.744 -1.3026 -1.0337 -1.5259
 1821TIP3    H226955   4.450   1.769  33.667  1.0822  0.2977  1.4536
 1822TIP3   OH226956   0.619   3.729  28.388 -0.3245 -0.4413 -0.5401
 1822TIP3    H126957   0.683   3.753  28.456 -0.9676 -2.5788  0.9359
 1822TIP3    H226958   0.673   3.704  28.313  0.4740  0.2490 -0.2165
 1823TIP3   OH226959   0.562   0.566  13.587 -0.5041 -0.0055  0.1379
 1823TIP3    H126960   0.605   0.536  13.667 -1.4232 -1.8697 -0.0083
 1823TIP3    H226961   0.483   0.513  13.581 -1.0398  0.9025 -1.4162
 1824TIP3   OH226962   2.219   4.152  33.599  0.5472 -0.2921  0.2050
 1824TIP3    H126963   2.127   4.176  33.603  0.5816 -0.1477  0.1358
 1824TIP3    H226964   2.256   4.183  33.682  0.8106  0.8140 -0.2997
 1825TIP3   OH226965   1.293   3.841   9.294 -0.3933  0.2677  0.2449
 1825TIP3    H126966   1.228   3.905   9.324 -1.0837 -0.2183 -0.1938
 1825TIP3    H226967   1.285   3.768   9.356 -0.0352  0.3447  0.3825
 1826TIP3   OH226968   3.857   2.937   6.027 -0.1976 -0.2213 -0.4033
 1826TIP3    H126969   3.914   3.003   5.988  0.0402 -0.6115 -0.7249
 1826TIP3    H226970   3.814   2.982   6.100  1.6717 -0.3394  0.8193
 1827TIP3   OH226971   0.770   4.184  10.180  0.1410 -0.8377  0.2458
 1827TIP3    H126972   0.839   4.133  10.223 -0.6044 -1.5414  0.6222
 1827TIP3    H226973   0.699   4.188  10.244 -0.3938 -0.5986 -0.3516
 1828TIP3   OH226974   2.792   0.306  32.796  0.0593  0.1708 -0.6259
 1828TIP3    H126975   2.765   0.283  32.885  1.6185  0.3170 -0.0892
 1828TIP3    H226976   2.833   0.227  32.762  0.5729  0.4896 -0.7553
 1829TIP3   OH226977   0.963   2.334  29.152  0.3694 -0.0686  0.2004
 1829TIP3    H126978   1.054   2.327  29.124  0.7915 -1.1913  1.7259
 1829TIP3    H226979   0.940   2.246  29.181 -0.8987  0.4229  0.7628
 1830TIP3   OH226980   2.092   3.803   2.433  0.1835 -0.1374 -0.1591
 1830TIP3    H126981   2.151   3.870   2.467  0.1280 -0.4578  0.5976
 1830TIP3    H226982   2.097   3.732   2.498  0.1317 -0.8009 -0.8659
 1831TIP3   OH226983   1.290   3.836   8.895 -0.0221  0.8137 -0.1909
 1831TIP3    H126984   1.381   3.822   8.921  0.0994 -1.1670 -1.4804
 1831TIP3    H226985   1.291   3.835   8.799 -1.3889  0.8428 -0.2337
 1832TIP3   OH226986   2.625   0.900  34.504 -0.0053 -0.1376  0.2373
 1832TIP3    H126987   2.638   0.882  34.411 -0.4506 -0.4482  0.2314
 1832TIP3    H226988   2.583   0.986  34.506  0.7951  0.2610  0.1962
 1833TIP3   OH226989   3.923   1.770  37.404 -0.1777  0.2123  0.0784
 1833TIP3    H126990   3.963   1.825  37.337 -0.7244 -1.6411 -1.8756
 1833TIP3    H226991   3.995   1.719  37.440 -0.2226 -0.8321 -1.1984
 1834TIP3   OH226992   2.707   0.462  13.107 -0.6345 -0.3172 -0.0059
 1834TIP3    H126993   2.716   0.536  13.167  0.0906 -0.3621 -0.0563
 1834TIP3    H226994   2.662   0.499  13.030 -1.0828 -0.1388  0.3379
 1835TIP3   OH226995   1.810   4.390  37.348 -0.3477 -0.1535 -0.3173
 1835TIP3    H126996   1.779   4.300  37.364 -1.0571  0.3864  1.6739
 1835TIP3    H226997   1.797   4.404  37.254  0.6274 -2.4213 -0.8595
 1836TIP3   OH226998   2.012   0.081  11.550  0.3442  0.2292  0.5947
 1836TIP3    H126999   2.072   0.071  11.476  0.2845  0.3180  0.5325
 1836TIP3    H227000   2.068   0.077  11.627  0.7456  2.3477  0.4889
 1837TIP3   OH227001   1.062   1.125  13.620 -0.0222  0.0263  0.0384
 1837TIP3    H127002   1.149   1.106  13.656 -0.8232 -0.6551  1.7529
 1837TIP3    H227003   1.046   1.055  13.557  0.3673 -0.3287  0.3242
 1838TIP3   OH227004   3.154   2.737  33.690 -0.5502 -0.1979  0.2015
 1838TIP3    H127005   3.154   2.825  33.652 -0.9126  0.5065  1.7476
 1838TIP3    H227006   3.082   2.692  33.647 -0.6731  0.4221 -0.2535
 1839TIP3   OH227007   2.512   2.772  40.020 -0.5037  0.8025  0.1137
 1839TIP3    H127008   2.463   2.844  39.983 -1.7437 -0.8204 -1.5508
 1839TIP3    H227009   2.446   2.710  40.051  0.5089  0.7824  2.4927
 1840TIP3   OH227010   2.822   2.134  35.281 -0.4902  0.3740  0.4267
 1840TIP3    H127011   2.779   2.196  35.222 -1.5313 -1.0770 -0.4226
 1840TIP3    H227012   2.750   2.096  35.332  0.3970  1.7067  2.8194
 1841TIP3   OH227013   0.077   2.679  29.264 -0.1985  0.2061  0.1670
 1841TIP3    H127014   0.157   2.632  29.289 -0.6709 -0.6434  0.1265
 1841TIP3    H227015   0.108   2.759  29.223  0.6245  0.3964  1.1291
 1842TIP3   OH227016   3.949   1.711  26.911  0.1418  0.1373 -0.2085
 1842TIP3    H127017   4.041   1.696  26.934  0.1592  0.8969  0.2610
 1842TIP3    H227018   3.953   1.776  26.841  0.0284 -1.1421 -1.4410
 1843TIP3   OH227019   0.523   0.377  12.046 -0.2426 -0.2440 -0.5411
 1843TIP3    H127020   0.495   0.329  11.967 -0.7496 -0.6057 -0.1515
 1843TIP3    H227021   0.552   0.308  12.106 -1.4585 -0.1163  0.2152
 1844TIP3   OH227022   3.959   1.662  39.264  0.4326 -0.0089  0.3481
 1844TIP3    H127023   3.955   1.708  39.180 -0.9056  0.2761  0.5457
 1844TIP3    H227024   3.989   1.728  39.326  0.8909 -0.0766  0.2072
 1845TIP3   OH227025   1.300   4.133  15.129 -0.2665  0.1769 -0.2962
 1845TIP3    H127026   1.252   4.114  15.049 -0.8338 -1.0763  0.3237
 1845TIP3    H227027   1.238   4.115  15.200  0.6676 -0.1081  0.4699
 1846TIP3   OH227028   2.971   0.152  29.517 -0.7873  0.3099 -0.0699
 1846TIP3    H127029   3.015   0.159  29.432 -0.6131  0.6584  0.0503
 1846TIP3    H227030   2.900   0.089  29.501  1.0077 -1.9094  0.2775
 1847TIP3   OH227031   3.833   4.205  40.834  0.3167 -0.2787  0.0931
 1847TIP3    H127032   3.782   4.124  40.834  0.7505 -0.6119  1.9415
 1847TIP3    H227033   3.913   4.182  40.882  2.0500  0.3383 -2.3349
 1848TIP3   OH227034   0.538   2.440  26.215 -0.3012  0.3135 -0.0006
 1848TIP3    H127035   0.611   2.481  26.262  0.1159 -2.5367  2.0617
 1848TIP3    H227036   0.510   2.368  26.271 -3.4658  0.0589 -1.6648
 1849TIP3   OH227037   2.556   2.900  32.122 -0.1187  0.1474  0.0271
 1849TIP3    H127038   2.543   2.816  32.078 -0.5647  0.5201 -0.5685
 1849TIP3    H227039   2.512   2.964  32.066 -0.3493  0.6941  0.8097
 1850TIP3   OH227040   2.199   1.534   9.960  0.5383 -0.4197  0.0010
 1850TIP3    H127041   2.143   1.535  10.037 -0.7925  0.6445 -0.9386
 1850TIP3    H227042   2.266   1.600   9.978 -0.7575  1.0688 -0.4109
 1851TIP3   OH227043   2.751   1.795   1.595  0.0209  0.2121  0.5533
 1851TIP3    H127044   2.713   1.774   1.681 -0.7615 -0.5728  0.0371
 1851TIP3    H227045   2.840   1.824   1.615 -0.3883  0.7508  1.6890
 1852TIP3   OH227046   3.069   1.272   1.826  0.4588  0.0508  0.6867
 1852TIP3    H127047   3.077   1.313   1.741 -1.2307 -2.8467 -1.0484
 1852TIP3    H227048   3.159   1.270   1.860  1.6033 -0.7361 -2.0838
 1853TIP3   OH227049   2.392   4.293   3.870  0.4746  0.3106  0.0567
 1853TIP3    H127050   2.394   4.298   3.775 -0.6569 -0.0200  0.0070
 1853TIP3    H227051   2.481   4.316   3.897  1.5726 -2.1268 -1.1981
 1854TIP3   OH227052   3.667   3.262  37.552  0.1489 -0.0365  0.6090
 1854TIP3    H127053   3.583   3.229  37.581 -0.6377  2.6420  1.6980
 1854TIP3    H227054   3.716   3.279  37.632  0.4766  1.3360  0.1626
 1855TIP3   OH227055   2.388   3.236  14.132 -0.1263 -0.1469 -0.0386
 1855TIP3    H127056   2.428   3.154  14.163  0.2056  0.1504  0.3291
 1855TIP3    H227057   2.344   3.212  14.051  0.5034 -0.5606 -0.2640
 1856TIP3   OH227058   1.865   2.562  16.998 -0.3373 -0.2374  0.3321
 1856TIP3    H127059   1.940   2.504  17.015  0.2168  0.4102  0.1524
 1856TIP3    H227060   1.792   2.503  16.982  0.6653 -0.9404 -1.9758
 1857TIP3   OH227061   2.193   1.023  41.447  0.0197  0.2846 -0.1139
 1857TIP3    H127062   2.268   0.969  41.422 -1.5784 -1.4677 -1.4224
 1857TIP3    H227063   2.187   1.089  41.379 -0.9366 -1.0017 -1.3418
 1858TIP3   OH227064   3.986   4.164   4.731 -0.1494  0.2082 -0.1355
 1858TIP3    H127065   3.901   4.132   4.701  0.1990 -1.4505  0.5670
 1858TIP3    H227066   4.018   4.097   4.790  0.6944  1.8307  1.3408
 1859TIP3   OH227067   0.926   2.290  32.590  0.4141  0.2953 -0.2832
 1859TIP3    H127068   0.837   2.255  32.591  0.0282  1.2681  1.0243
 1859TIP3    H227069   0.981   2.214  32.607 -0.0226 -0.5882 -2.4639
 1860TIP3   OH227070   1.494   0.133  13.600 -0.0980  0.0526  0.4285
 1860TIP3    H127071   1.481   0.227  13.601  1.3450  0.3028 -0.6671
 1860TIP3    H227072   1.438   0.100  13.670 -1.5999  1.5772  0.0058
 1861TIP3   OH227073   2.188   1.382  13.015 -0.2151 -0.3028  0.2875
 1861TIP3    H127074   2.273   1.385  12.970 -0.4912 -1.2657 -0.3196
 1861TIP3    H227075   2.163   1.290  13.014 -1.9930  0.1307 -0.9346
 1862TIP3   OH227076   1.998   0.590  39.980  0.3111  0.3200 -0.0846
 1862TIP3    H127077   2.056   0.568  40.052  0.0368 -1.6492 -0.3899
 1862TIP3    H227078   1.959   0.674  40.004  2.5086  1.2047  0.5740
 1863TIP3   OH227079   2.570   1.751  37.760 -0.4609  0.5603  0.7678
 1863TIP3    H127080   2.611   1.681  37.812 -0.0739  1.0816  1.1860
 1863TIP3    H227081   2.519   1.705  37.694 -0.1982 -0.1192  1.0237
 1864TIP3   OH227082   0.097   0.420   4.235  0.5833  0.1711  0.7020
 1864TIP3    H127083   0.097   0.325   4.223 -1.1473  0.4794 -3.2932
 1864TIP3    H227084   0.055   0.433   4.319  1.0605 -2.5740  1.4823
 1865TIP3   OH227085   2.406   1.161   9.232 -0.5414 -0.3606 -0.1811
 1865TIP3    H127086   2.354   1.081   9.246 -0.6777 -0.3353 -0.5114
 1865TIP3    H227087   2.492   1.141   9.268 -0.1358 -1.1863 -1.5209
 1866TIP3   OH227088   2.033   1.537  32.765 -0.0111 -0.2213 -0.2086
 1866TIP3    H127089   2.055   1.628  32.744  0.0238 -0.4267 -1.0965
 1866TIP3    H227090   2.101   1.485  32.724 -0.9463 -0.7383 -1.1564
 1867TIP3   OH227091   1.924   2.795  36.655  0.3542  0.4358 -0.2439
 1867TIP3    H127092   1.945   2.888  36.657  1.7288  0.1484 -0.0576
 1867TIP3    H227093   2.006   2.751  36.678 -0.2068 -0.8310 -0.5438
 1868TIP3   OH227094   2.502   0.637  12.063 -0.1484  0.1619  0.4166
 1868TIP3    H127095   2.527   0.546  12.077  2.0801  0.8977  1.8860
 1868TIP3    H227096   2.526   0.655  11.972 -1.5988 -0.9714 -0.2099
 1869TIP3   OH227097   0.961   3.005   6.233  0.1569  0.0993 -0.2039
 1869TIP3    H127098   1.029   2.942   6.211  0.3080  0.0438  0.4094
 1869TIP3    H227099   0.892   2.989   6.168 -0.1702 -1.2726  0.4434
 1870TIP3   OH227100   4.152   1.468  28.205  0.1394 -0.7172  0.1755
 1870TIP3    H127101   4.089   1.505  28.266 -1.3596  0.3075 -1.8514
 1870TIP3    H227102   4.141   1.373  28.214  1.0544 -0.6524  2.5076
 1871TIP3   OH227103   0.324   1.967   4.556 -0.0400  0.2665  0.1512
 1871TIP3    H127104   0.308   1.997   4.467 -0.4726  1.0507  0.4897
 1871TIP3    H227105   0.413   1.996   4.575  0.7277 -1.4026 -0.6184
 1872TIP3   OH227106   0.040   3.016  21.849  1.1997 -0.4567  0.3000
 1872TIP3    H127107   0.012   3.090  21.796  1.7634 -0.6315 -0.2528
 1872TIP3    H227108   0.102   2.969  21.794 -0.8185 -2.6383 -0.2673
 1873TIP3   OH227109   0.856   1.056  10.219  0.2769  0.2189 -0.7715
 1873TIP3    H127110   0.825   1.033  10.131 -0.3126 -0.1002 -0.4891
 1873TIP3    H227111   0.911   0.982  10.245  2.9840  1.6757 -2.0622
 1874TIP3   OH227112   2.798   0.305  29.296  0.8359 -0.0722 -0.0809
 1874TIP3    H127113   2.793   0.401  29.288  0.8382 -0.0824 -0.2006
 1874TIP3    H227114   2.878   0.281  29.249  1.3616 -0.0351  0.7724
 1875TIP3   OH227115   0.629   0.175   6.887 -0.8410 -0.2293 -0.6644
 1875TIP3    H127116   0.570   0.170   6.812 -0.7053 -1.4289 -0.7005
 1875TIP3    H227117   0.712   0.140   6.855 -0.8144 -0.8715  0.0735
 1876TIP3   OH227118   1.628   3.152  17.464 -0.4413  0.5164 -0.5425
 1876TIP3    H127119   1.553   3.128  17.519 -1.4542 -0.4023 -2.2628
 1876TIP3    H227120   1.666   3.228  17.508 -0.1546 -1.1593  2.3843
 1877TIP3   OH227121   2.040   1.410   2.641 -0.6539  0.6680  0.6699
 1877TIP3    H127122   2.028   1.429   2.734 -1.8532  0.4716  0.5723
 1877TIP3    H227123   2.068   1.318   2.639  0.5980  1.0282  0.8893
 1878TIP3   OH227124   1.473   3.230  38.245 -0.3869  0.4062  0.1537
 1878TIP3    H127125   1.428   3.148  38.264 -0.1173  0.4225  0.8964
 1878TIP3    H227126   1.510   3.218  38.157 -2.4886  0.6814 -0.8359
 1879TIP3   OH227127   3.776   2.773  23.889 -0.3623  0.2786  0.1798
 1879TIP3    H127128   3.753   2.768  23.796 -1.6343 -2.2476  0.5425
 1879TIP3    H227129   3.868   2.747  23.892 -0.6711 -0.9238 -0.2782
 1880TIP3   OH227130   0.681   2.527  28.815 -0.6743  0.1921  0.2527
 1880TIP3    H127131   0.654   2.593  28.751  0.6121 -0.6871 -1.2519
 1880TIP3    H227132   0.774   2.542  28.827 -0.1471 -1.9098 -0.8309
 1881TIP3   OH227133   0.241   2.982  10.928 -0.1205 -0.3637  0.2968
 1881TIP3    H127134   0.202   3.055  10.976  0.4237  0.2871 -0.2186
 1881TIP3    H227135   0.335   2.998  10.934  0.0171 -1.1675  0.3828
 1882TIP3   OH227136   2.935   2.091  40.660  0.6350  0.4734 -0.0605
 1882TIP3    H127137   2.974   2.051  40.738 -1.6747  2.2200  2.1957
 1882TIP3    H227138   2.952   2.184  40.670 -0.8511  0.8742 -0.9163
 1883TIP3   OH227139   3.130   4.382  30.366  0.2819  0.2806  0.4580
 1883TIP3    H127140   3.043   4.342  30.374  0.0487  0.6968  0.0446
 1883TIP3    H227141   3.155   4.403  30.456 -0.3399  0.7686  0.5245
 1884TIP3   OH227142   2.900   0.145  13.479 -0.8510 -0.1461  0.9738
 1884TIP3    H127143   2.822   0.099  13.449 -0.9979  0.7220 -0.0487
 1884TIP3    H227144   2.900   0.227  13.429  2.0456 -1.1757 -1.0355
 1885TIP3   OH227145   3.225   3.425   0.790 -0.1255  0.6306  0.2178
 1885TIP3    H127146   3.275   3.460   0.717 -1.5942  1.6989 -0.3313
 1885TIP3    H227147   3.238   3.489   0.860  0.0279  0.4242  0.3769
 1886TIP3   OH227148   2.570   3.852  29.275  0.0823  0.1713  0.0279
 1886TIP3    H127149   2.598   3.941  29.292  0.5050 -0.0323  0.4048
 1886TIP3    H227150   2.641   3.813  29.225  0.4147 -0.2910  0.8381
 1887TIP3   OH227151   4.398   4.327   1.163 -0.8413  0.1682  0.2310
 1887TIP3    H127152   4.456   4.254   1.142 -0.4153 -0.0555  2.0003
 1887TIP3    H227153   4.456   4.398   1.187 -1.1326 -0.5276  3.6170
 1888TIP3   OH227154   1.520   1.421   0.646 -0.1536 -0.1858 -0.1398
 1888TIP3    H127155   1.428   1.395   0.654  0.0595 -0.5337  4.7285
 1888TIP3    H227156   1.530   1.493   0.708  2.6467  0.6009 -1.3602
 1889TIP3   OH227157   1.221   3.257  12.488 -0.1754  0.3550 -0.2411
 1889TIP3    H127158   1.159   3.245  12.560 -1.9339 -0.3847 -1.7903
 1889TIP3    H227159   1.209   3.348  12.460  0.1755  0.5046  0.0804
 1890TIP3   OH227160   1.528   1.470   1.396 -0.0283  0.2179  0.4429
 1890TIP3    H127161   1.442   1.464   1.438  0.2973 -1.6748  0.9164
 1890TIP3    H227162   1.535   1.390   1.344  1.2127  0.6343 -0.0551
 1891TIP3   OH227163   1.970   2.453  17.451 -0.2060 -0.2714 -0.1236
 1891TIP3    H127164   1.994   2.374  17.500 -0.1566  0.5908  1.3318
 1891TIP3    H227165   2.051   2.481  17.409 -0.1052 -0.7176 -0.2282
 1892TIP3   OH227166   1.777   3.038   5.123  0.2457  0.2179  0.4419
 1892TIP3    H127167   1.744   2.960   5.167  0.0565 -0.2350 -0.4775
 1892TIP3    H227168   1.872   3.023   5.114  0.1215 -0.2083 -0.2885
 1893TIP3   OH227169   1.899   2.881   1.558 -0.1087 -0.0251 -0.1527
 1893TIP3    H127170   1.854   2.835   1.628 -0.1513  1.7129  1.0100
 1893TIP3    H227171   1.831   2.932   1.514  0.3499  1.0447  0.3344
 1894TIP3   OH227172   2.881   0.666  27.736  0.3397 -0.0285  0.2712
 1894TIP3    H127173   2.824   0.727  27.782  0.9616  1.0492 -0.3505
 1894TIP3    H227174   2.825   0.590  27.719 -0.4751  0.3961  0.9808
 1895TIP3   OH227175   4.220   1.936   9.212 -0.3014 -0.7247 -0.8391
 1895TIP3    H127176   4.246   1.985   9.290  0.8669 -0.2561 -1.4957
 1895TIP3    H227177   4.125   1.943   9.210 -0.2234  0.9785 -0.5363
 1896TIP3   OH227178   0.296   4.117   7.962  0.5957 -0.3976 -0.2231
 1896TIP3    H127179   0.213   4.160   7.943  0.3783 -1.0540 -0.8004
 1896TIP3    H227180   0.318   4.145   8.051 -0.9593 -1.3396  0.5018
 1897TIP3   OH227181   0.288   1.922  11.219  0.4303 -0.2153  0.2951
 1897TIP3    H127182   0.367   1.974  11.204  2.1443 -2.1192  2.0577
 1897TIP3    H227183   0.267   1.938  11.311 -0.6943 -0.4752  0.0937
 1898TIP3   OH227184   3.227   4.350  34.736 -0.3798  0.4219  0.2064
 1898TIP3    H127185   3.267   4.436  34.747 -2.4262  1.6606 -1.4196
 1898TIP3    H227186   3.298   4.296  34.700  0.6818  1.6516  0.3587
 1899TIP3   OH227187   2.917   1.148   4.832  0.4052 -0.0684 -0.0810
 1899TIP3    H127188   2.887   1.057   4.844  0.0737 -0.1547 -1.4183
 1899TIP3    H227189   2.883   1.194   4.908 -0.5882 -0.7987 -0.0527
 1900TIP3   OH227190   2.800   1.260  40.206  0.7202  0.3963 -0.1873
 1900TIP3    H127191   2.773   1.174  40.173  1.7445  0.0548 -0.1709
 1900TIP3    H227192   2.728   1.318  40.183  0.3117 -0.3353 -0.8066
 1901TIP3   OH227193   1.616   3.461  15.113 -0.1087  0.1596  0.1780
 1901TIP3    H127194   1.651   3.393  15.056 -1.8069 -0.1444 -0.5803
 1901TIP3    H227195   1.599   3.536  15.055 -1.9112 -0.1722  0.2065
 1902TIP3   OH227196   0.321   1.707  33.810 -0.0733  0.1299 -1.0571
 1902TIP3    H127197   0.406   1.691  33.851  0.2133  0.3026 -1.5659
 1902TIP3    H227198   0.288   1.785  33.854 -0.8443 -1.0134  0.4614
 1903TIP3   OH227199   0.140   3.198  12.597 -0.2438 -0.0109 -0.2116
 1903TIP3    H127200   0.135   3.163  12.686  0.4014  0.1449 -0.1083
 1903TIP3    H227201   0.120   3.123  12.541 -0.7418 -0.0882  0.0660
 1904TIP3   OH227202   0.514   3.760  22.294  0.4018 -0.4021 -0.2504
 1904TIP3    H127203   0.439   3.702  22.306 -0.3107  0.5370 -0.0630
 1904TIP3    H227204   0.518   3.775  22.200 -0.0091  0.0124 -0.2027
 1905TIP3   OH227205   4.344   4.280  23.662  0.0264 -0.4627  0.4796
 1905TIP3    H127206   4.368   4.202  23.612  1.9530 -0.1834  0.9018
 1905TIP3    H227207   4.407   4.283  23.734  1.6282  2.7841 -0.8669
 1906TIP3   OH227208   1.157   2.817   9.931 -0.2288 -0.0261  0.6634
 1906TIP3    H127209   1.074   2.864   9.936 -1.4457 -2.1349  1.7740
 1906TIP3    H227210   1.137   2.730   9.965  2.5382 -0.5142  1.2487
 1907TIP3   OH227211   1.077   2.133  30.041  0.2325 -0.0872 -0.1048
 1907TIP3    H127212   1.048   2.071  30.108  0.8825 -0.3182 -0.0376
 1907TIP3    H227213   1.143   2.187  30.084  1.0331 -0.5759 -0.7008
 1908TIP3   OH227214   3.226   1.896  33.805  0.3444 -0.0135 -0.4125
 1908TIP3    H127215   3.198   1.919  33.894  0.1814 -0.2148 -0.4102
 1908TIP3    H227216   3.190   1.966  33.750  0.7862  0.3313 -0.2730
 1909TIP3   OH227217   3.056   0.777   6.097 -0.0008 -0.0929 -0.3386
 1909TIP3    H127218   3.058   0.869   6.072 -0.2155  0.0966  0.3125
 1909TIP3    H227219   3.099   0.774   6.182  0.0775 -0.6060 -0.3914
 1910TIP3   OH227220   2.144   2.416  38.597 -0.0022  0.1922 -0.3521
 1910TIP3    H127221   2.172   2.505  38.619  0.8643 -0.6038  2.0951
 1910TIP3    H227222   2.222   2.376  38.559 -0.1289  0.2257 -0.6472
 1911TIP3   OH227223   1.316   1.357  26.837 -0.5251 -0.2698  0.1497
 1911TIP3    H127224   1.331   1.271  26.797  2.4034  1.6177 -3.3410
 1911TIP3    H227225   1.275   1.409  26.768 -0.5237  1.7096  1.5541
 1912TIP3   OH227226   1.972   1.702  32.260 -0.1943 -0.3433 -0.0244
 1912TIP3    H127227   2.060   1.700  32.298  0.3061 -2.1792 -1.1327
 1912TIP3    H227228   1.914   1.696  32.336  0.5740  1.3382  0.7606
 1913TIP3   OH227229   2.819   1.446  11.016  1.1567 -0.5092 -0.2843
 1913TIP3    H127230   2.913   1.430  11.015  1.4542  0.6827  1.8699
 1913TIP3    H227231   2.798   1.474  10.927  2.8947 -0.4232 -0.6994
 1914TIP3   OH227232   0.375   2.188   8.433 -0.4965  0.7312  0.0102
 1914TIP3    H127233   0.416   2.114   8.478  0.6020  1.5366  0.3751
 1914TIP3    H227234   0.406   2.182   8.343 -0.1857  0.8948  0.1038
 1915TIP3   OH227235   1.050   3.247   5.694 -0.0855 -0.3020 -0.3611
 1915TIP3    H127236   1.126   3.235   5.751 -1.6453 -0.9476  1.7394
 1915TIP3    H227237   1.026   3.340   5.705  0.7835  0.0729 -1.5627
 1916TIP3   OH227238   0.128   1.772  33.341 -0.4384  0.0535 -0.3668
 1916TIP3    H127239   0.198   1.751  33.404 -2.4568  0.0542  2.0109
 1916TIP3    H227240   0.132   1.867  33.332  0.4945 -0.0327 -1.0959
 1917TIP3   OH227241   3.532   3.332  27.878  0.4919 -0.4350 -0.4772
 1917TIP3    H127242   3.508   3.344  27.970 -0.2720 -1.3545 -0.5341
 1917TIP3    H227243   3.517   3.417  27.837 -1.0667 -0.5082 -0.1341
 1918TIP3   OH227244   1.476   3.487  32.317 -0.6029  0.3193  0.4477
 1918TIP3    H127245   1.502   3.403  32.357 -0.7644  0.1588  0.2168
 1918TIP3    H227246   1.415   3.525  32.380 -0.7810  0.1113  0.4051
 1919TIP3   OH227247   2.433   3.538  29.914  0.2414  0.6792 -0.7040
 1919TIP3    H127248   2.400   3.628  29.912 -0.5164  0.4453  0.4061
 1919TIP3    H227249   2.356   3.484  29.935  1.1785  0.0600  1.3837
 1920TIP3   OH227250   3.394   1.413   3.453 -0.1435 -0.2715  0.2202
 1920TIP3    H127251   3.433   1.329   3.430 -2.0265 -0.8789 -0.9679
 1920TIP3    H227252   3.302   1.393   3.470 -0.1985  1.2476  1.9516
 1921TIP3   OH227253   2.359   0.814  29.617 -0.1536  0.3974 -0.2652
 1921TIP3    H127254   2.321   0.863  29.690  0.1683 -3.0197  2.4574
 1921TIP3    H227255   2.438   0.774  29.653 -1.0384 -3.0815 -1.7156
 1922TIP3   OH227256   4.280   0.371   3.776  0.4320 -0.3089 -0.0237
 1922TIP3    H127257   4.354   0.413   3.819  0.3536 -0.0800 -0.1098
 1922TIP3    H227258   4.246   0.309   3.841 -0.5496  1.0087  0.7868
 1923TIP3   OH227259   2.198   2.505  40.865  0.2314  0.0848 -0.6129
 1923TIP3    H127260   2.232   2.538  40.948  0.5703 -0.0402 -0.6989
 1923TIP3    H227261   2.154   2.423  40.888  1.3062 -0.5410 -0.7098
 1924TIP3   OH227262   0.493   1.703   3.171  0.0406 -0.2509  0.3286
 1924TIP3    H127263   0.456   1.640   3.233  1.2406 -0.1670  1.1759
 1924TIP3    H227264   0.559   1.751   3.223  1.4519 -0.5159 -1.1334
 1925TIP3   OH227265   2.428   4.191   2.592 -0.3861  0.0081 -0.0330
 1925TIP3    H127266   2.476   4.119   2.632 -0.0129 -1.1923 -2.4694
 1925TIP3    H227267   2.341   4.186   2.631  0.1629 -0.5972  1.1606
 1926TIP3   OH227268   0.354   2.208   7.760 -0.2853  0.4762 -0.0248
 1926TIP3    H127269   0.405   2.150   7.817  1.0596 -0.0099 -1.6605
 1926TIP3    H227270   0.264   2.176   7.768  0.2485 -1.0721  0.0330
 1927TIP3   OH227271   2.279   1.642  33.104 -0.0622 -0.2141  0.0052
 1927TIP3    H127272   2.253   1.563  33.150  1.5695 -0.3096  0.8443
 1927TIP3    H227273   2.320   1.611  33.023 -1.4087 -0.1090 -0.7464
 1928TIP3   OH227274   3.063   1.870   9.445  0.5930 -0.3338 -0.3314
 1928TIP3    H127275   3.117   1.926   9.501  0.8453 -0.3464 -0.5609
 1928TIP3    H227276   3.056   1.918   9.363  0.1687 -0.2859 -0.2669
 1929TIP3   OH227277   0.042   3.171   3.680 -0.2606 -0.3117  0.0874
 1929TIP3    H127278   0.076   3.087   3.711  1.8039  0.3289 -0.3223
 1929TIP3    H227279   0.119   3.226   3.669 -1.3604  0.9882 -1.6684
 1930TIP3   OH227280   0.875   2.620   1.266 -0.1429 -0.3118  0.0453
 1930TIP3    H127281   0.852   2.566   1.341 -0.5433  0.7802  0.7428
 1930TIP3    H227282   0.867   2.562   1.190  0.1822 -1.4094  0.8269
 1931TIP3   OH227283   1.405   2.948  35.694  0.1119 -0.0168 -0.0328
 1931TIP3    H127284   1.483   2.965  35.748 -0.9045  1.4856  1.0243
 1931TIP3    H227285   1.332   2.959  35.754 -0.9967  0.1790 -1.3785
 1932TIP3   OH227286   0.499   2.097   4.380  0.2957 -0.0170  0.2370
 1932TIP3    H127287   0.514   2.186   4.410 -0.0188  0.5029 -1.0615
 1932TIP3    H227288   0.578   2.074   4.331  0.1318 -0.2122  0.0601
 1933TIP3   OH227289   1.661   1.541   7.019  0.0475 -0.3420  0.3074
 1933TIP3    H127290   1.742   1.537   7.070  0.2408 -0.2126  0.0084
 1933TIP3    H227291   1.684   1.503   6.934 -0.3454 -0.8166  0.4063
 1934TIP3   OH227292   1.263   0.634  33.824  0.2986  0.4195 -0.2304
 1934TIP3    H127293   1.346   0.680  33.811  0.9734 -0.9777 -1.1006
 1934TIP3    H227294   1.268   0.559  33.764 -2.4501  1.3922 -1.8490
 1935TIP3   OH227295   1.229   1.589  12.957  0.0718 -0.3755  0.1324
 1935TIP3    H127296   1.143   1.632  12.955  0.5486  0.5852 -0.4290
 1935TIP3    H227297   1.217   1.515  13.016 -0.9321  0.1941  0.6807
 1936TIP3   OH227298   2.385   4.187  11.939  0.2982 -0.0937 -0.6614
 1936TIP3    H127299   2.351   4.265  11.982 -1.4658 -0.8857 -0.5390
 1936TIP3    H227300   2.370   4.203  11.846  0.3088 -0.1298 -0.6694
 1937TIP3   OH227301   3.159   1.609  35.211  0.7306  0.4802  0.4490
 1937TIP3    H127302   3.092   1.666  35.249 -0.3870 -0.5394  0.0804
 1937TIP3    H227303   3.196   1.661  35.139 -0.0698  0.8583  0.2957
 1938TIP3   OH227304   2.084   0.757   2.252  0.1906 -0.7773  0.3758
 1938TIP3    H127305   2.110   0.849   2.255 -0.2892 -0.5320 -1.5670
 1938TIP3    H227306   2.162   0.709   2.281  0.5460  0.2000  1.1050
 1939TIP3   OH227307   1.729   2.304  36.307 -0.8017  0.3449  0.9773
 1939TIP3    H127308   1.814   2.344  36.294 -0.7735  0.7920  2.3850
 1939TIP3    H227309   1.743   2.211  36.291 -0.1967  0.4983  0.5975
 1940TIP3   OH227310   0.816   1.899  27.537 -0.5863 -0.2831  0.1597
 1940TIP3    H127311   0.732   1.945  27.537 -0.5026 -0.1264  0.4554
 1940TIP3    H227312   0.847   1.905  27.447 -0.2298  0.8822  0.3394
 1941TIP3   OH227313   3.045   2.197   8.353  0.4571  0.5893  0.1195
 1941TIP3    H127314   3.131   2.185   8.392  0.3075 -1.0907  0.0184
 1941TIP3    H227315   3.058   2.262   8.283  1.5349  0.6854  0.4016
 1942TIP3   OH227316   1.990   0.973   7.193 -0.4202  0.0361 -0.3185
 1942TIP3    H127317   1.898   0.954   7.214 -0.6193  1.1956 -0.0686
 1942TIP3    H227318   2.039   0.901   7.233 -1.1280  0.0311  0.5839
 1943TIP3   OH227319   1.288   2.196  39.368 -0.3776  0.1693  0.2311
 1943TIP3    H127320   1.267   2.219  39.277  0.4085  0.9188  0.2290
 1943TIP3    H227321   1.383   2.192  39.370 -0.4158 -3.0496  0.2792
 1944TIP3   OH227322   3.849   2.385   2.496 -0.1685  0.4215  0.7931
 1944TIP3    H127323   3.888   2.358   2.413 -1.1561  1.2893  0.0235
 1944TIP3    H227324   3.921   2.426   2.544  0.2228  0.6196  0.0463
 1945TIP3   OH227325   1.718   3.119  33.058 -0.6251  0.0641  0.1643
 1945TIP3    H127326   1.756   3.037  33.088 -2.0956 -0.4031  0.8488
 1945TIP3    H227327   1.726   3.178  33.132 -1.7408 -0.2282  0.5366
 1946TIP3   OH227328   1.311   0.164   6.691 -0.0894  0.3458  0.2661
 1946TIP3    H127329   1.242   0.178   6.626 -0.6854  0.0802  0.8287
 1946TIP3    H227330   1.392   0.189   6.646 -0.6671  1.7532 -0.0442
 1947TIP3   OH227331   1.843   2.083   4.541 -0.5698  0.0763 -0.4153
 1947TIP3    H127332   1.791   2.159   4.563 -0.3335 -0.0572  0.6637
 1947TIP3    H227333   1.826   2.020   4.611  1.3124  0.1773  0.1996
 1948TIP3   OH227334   2.704   0.568  37.809 -0.0958 -0.2964 -0.4203
 1948TIP3    H127335   2.737   0.512  37.739 -0.7349 -0.8816 -0.2580
 1948TIP3    H227336   2.780   0.581  37.866  0.1520 -0.6787 -0.6543
 1949TIP3   OH227337   3.698   0.607  26.338 -0.1580  0.5597 -0.2792
 1949TIP3    H127338   3.768   0.657  26.381 -0.1492  0.6103 -0.3533
 1949TIP3    H227339   3.733   0.518  26.332 -1.2062 -0.1335  2.2982
 1950TIP3   OH227340   2.743   4.182   7.906  0.4409  0.3944 -0.0012
 1950TIP3    H127341   2.744   4.124   7.982  1.0563 -0.0394 -0.3369
 1950TIP3    H227342   2.650   4.199   7.890  0.2129 -1.2024 -0.4479
 1951TIP3   OH227343   2.177   0.639   2.924 -0.2357 -0.3552  0.4717
 1951TIP3    H127344   2.256   0.683   2.956 -0.3565 -0.2569  0.6335
 1951TIP3    H227345   2.172   0.558   2.976  0.7742 -1.2752 -0.7885
 1952TIP3   OH227346   3.122   0.884  12.268  0.1731 -0.0233 -0.6056
 1952TIP3    H127347   3.125   0.869  12.363  0.1485 -1.4918 -0.8102
 1952TIP3    H227348   3.170   0.965  12.255 -0.3343  0.5213  0.7212
 1953TIP3   OH227349   3.877   2.952  31.537 -0.2639 -0.0418  0.4617
 1953TIP3    H127350   3.829   2.980  31.615 -1.6148 -0.9985  0.0271
 1953TIP3    H227351   3.832   2.994  31.464 -1.0828 -1.6784 -0.0305
 1954TIP3   OH227352   1.353   0.854   9.060 -0.5669 -0.4326 -0.3357
 1954TIP3    H127353   1.447   0.857   9.038 -0.7200  0.1925 -0.9430
 1954TIP3    H227354   1.316   0.794   8.995 -0.5615 -0.8186  0.0167
 1955TIP3   OH227355   0.829   1.800  29.340 -0.2525 -0.0154 -0.0635
 1955TIP3    H127356   0.814   1.795  29.245  0.9215 -2.1679 -0.1835
 1955TIP3    H227357   0.917   1.767  29.352 -0.5542 -0.2131  1.8403
 1956TIP3   OH227358   0.086   1.809  26.885 -0.0582 -0.4438  0.1081
 1956TIP3    H127359   0.119   1.899  26.887 -0.9702 -0.0912 -0.3820
 1956TIP3    H227360  -0.005   1.816  26.913  0.0696 -1.3178  0.7861
 1957TIP3   OH227361   1.457   1.857   3.209  0.2662 -0.3861 -0.0260
 1957TIP3    H127362   1.545   1.885   3.184 -0.1813  0.6669 -0.4702
 1957TIP3    H227363   1.413   1.838   3.126 -0.4299  0.6839  0.0737
 1958TIP3   OH227364   0.482   1.621   3.894  0.2031  0.5044 -0.0690
 1958TIP3    H127365   0.549   1.586   3.953 -1.7613  0.0218  1.9841
 1958TIP3    H227366   0.506   1.713   3.882  1.0262  0.4306  0.8970
 1959TIP3   OH227367   1.153   3.875  39.531 -0.1319 -0.1420  0.5343
 1959TIP3    H127368   1.168   3.969  39.536 -1.7717  0.2221 -0.4231
 1959TIP3    H227369   1.155   3.845  39.622  0.9968  0.6970  0.7986
 1960TIP3   OH227370   0.829   0.643   4.450 -0.4116  0.1859 -0.1886
 1960TIP3    H127371   0.856   0.640   4.358  0.4726  0.3701  0.0517
 1960TIP3    H227372   0.910   0.662   4.497 -1.0648  1.2713  0.5309
 1961TIP3   OH227373   3.536   0.086  33.768 -0.3334  0.0029  0.4035
 1961TIP3    H127374   3.529   0.061  33.860  0.7570 -0.7087  0.3019
 1961TIP3    H227375   3.486   0.019  33.721  2.5172 -2.1330  0.1422
 1962TIP3   OH227376   1.195   0.269  28.398  0.0980 -0.0754  0.0567
 1962TIP3    H127377   1.215   0.277  28.305  0.0240 -1.8902 -0.1565
 1962TIP3    H227378   1.114   0.218  28.401  0.3844 -0.5026  1.0998
 1963TIP3   OH227379   3.501   1.989   4.809  0.4188  0.0445 -0.5093
 1963TIP3    H127380   3.489   2.059   4.745 -1.2734  2.0272  1.7724
 1963TIP3    H227381   3.413   1.971   4.842  1.3636  0.9679  2.9641
 1964TIP3   OH227382   4.088   4.234  36.006  0.3451  0.4748  0.2269
 1964TIP3    H127383   4.148   4.161  36.024 -0.6177 -0.8215 -1.5161
 1964TIP3    H227384   4.144   4.312  36.010  1.7041 -0.4753  0.7270
 1965TIP3   OH227385   2.618   0.131   6.642 -0.1267 -0.3159 -0.3547
 1965TIP3    H127386   2.563   0.167   6.712 -0.3715 -1.8827  0.2839
 1965TIP3    H227387   2.560   0.073   6.593  0.4716 -0.5036 -0.8499
 1966TIP3   OH227388   1.777   1.657   3.757  0.3839  0.2287 -0.2835
 1966TIP3    H127389   1.769   1.743   3.799 -0.2503 -0.6735  1.5589
 1966TIP3    H227390   1.706   1.655   3.693 -0.7469  0.4312  0.9184
 1967TIP3   OH227391   1.833   0.737   0.314 -0.5837  0.0171 -0.6085
 1967TIP3    H127392   1.738   0.747   0.310 -0.7749 -0.8179  0.9575
 1967TIP3    H227393   1.859   0.713   0.225 -1.8263  0.2534 -1.0474
 1968TIP3   OH227394   0.753   2.408   9.297  0.5259  0.3985  0.1192
 1968TIP3    H127395   0.701   2.333   9.328 -0.7745  1.3199  0.2391
 1968TIP3    H227396   0.727   2.480   9.354  1.2624  1.1045 -0.4264
 1969TIP3   OH227397   1.954   3.231  27.085 -0.6459  0.0149  0.1797
 1969TIP3    H127398   2.030   3.185  27.122 -0.7467 -1.0304 -0.8527
 1969TIP3    H227399   1.942   3.190  26.999 -1.1839  1.5164 -0.4783
 1970TIP3   OH227400   0.623   2.918   7.048 -0.5445 -0.0719  0.0540
 1970TIP3    H127401   0.674   2.983   7.096 -0.0950 -0.7611  0.5451
 1970TIP3    H227402   0.544   2.964   7.020 -1.2548  0.1792  2.2327
 1971TIP3   OH227403   0.605   0.211  35.849  0.8192  0.2119 -0.3075
 1971TIP3    H127404   0.615   0.143  35.915  2.4957 -1.0421 -1.7359
 1971TIP3    H227405   0.609   0.293  35.898 -0.0750 -0.6725  1.3296
 1972TIP3   OH227406   3.398   0.913   6.423 -0.3613  0.0663 -0.8726
 1972TIP3    H127407   3.308   0.915   6.457 -0.2004  0.4923 -0.4634
 1972TIP3    H227408   3.433   0.999   6.443 -0.0602  0.1207 -1.5957
 1973TIP3   OH227409   1.429   3.760  12.205 -0.8387 -0.1573 -0.0642
 1973TIP3    H127410   1.466   3.672  12.193 -0.5705 -0.3906  2.1903
 1973TIP3    H227411   1.483   3.816  12.149  1.4192 -0.8802  1.2707
 1974TIP3   OH227412   3.631   4.080   4.968  0.2430  0.4129  0.6415
 1974TIP3    H127413   3.664   4.150   5.023 -2.0661  0.1180  2.5726
 1974TIP3    H227414   3.563   4.121   4.914 -0.4594 -0.1091  1.1031
 1975TIP3   OH227415   0.273   3.041  32.553  0.0403 -0.0301 -0.0315
 1975TIP3    H127416   0.186   3.003  32.538 -1.0272  1.7818  1.1800
 1975TIP3    H227417   0.314   2.981  32.617 -1.1671  0.2062  0.9995
 1976TIP3   OH227418   4.080   2.648  26.436  0.2024 -0.2139 -0.8709
 1976TIP3    H127419   4.044   2.564  26.464  0.1787 -0.2675 -1.0624
 1976TIP3    H227420   4.003   2.703  26.420  0.1949  0.6943  1.7503
 1977TIP3   OH227421   2.677   4.214  28.024 -0.1247 -0.0199 -0.3706
 1977TIP3    H127422   2.584   4.226  28.003 -0.1830  1.5013  0.6524
 1977TIP3    H227423   2.677   4.174  28.111  0.1866 -0.3013 -0.4979
 1978TIP3   OH227424   3.196   1.639  28.345 -0.2776  0.6411  0.0389
 1978TIP3    H127425   3.235   1.713  28.390  1.2242 -0.1765  0.1795
 1978TIP3    H227426   3.118   1.618  28.395 -0.4268  1.7782  0.3077
 1979TIP3   OH227427   1.917   1.031  41.113  0.3953  0.2543  0.0525
 1979TIP3    H127428   1.994   1.066  41.159  0.1831 -0.5934  1.0928
 1979TIP3    H227429   1.843   1.075  41.153  0.2949  0.6942 -0.6011
 1980TIP3   OH227430   1.084   0.078  31.595  0.7049  0.2138 -0.4373
 1980TIP3    H127431   1.026   0.026  31.650  0.8414  0.8337  0.3125
 1980TIP3    H227432   1.058   0.169  31.611  1.6211  0.4791 -0.3649
 1981TIP3   OH227433   3.591   3.372   9.342  0.3417 -0.3504 -0.2881
 1981TIP3    H127434   3.668   3.319   9.362 -0.2020 -1.2030 -0.4136
 1981TIP3    H227435   3.597   3.447   9.401  1.3087 -0.3620 -0.3589
 1982TIP3   OH227436   4.059   3.003  32.850 -0.2699  0.0164  0.6050
 1982TIP3    H127437   3.976   2.987  32.806  0.0805 -0.6988  0.1806
 1982TIP3    H227438   4.063   2.938  32.920 -0.8899  1.2425  1.8182
 1983TIP3   OH227439   1.283   1.391   6.091 -0.4898 -0.0474 -0.2346
 1983TIP3    H127440   1.238   1.390   6.176 -1.3730 -0.9506 -0.6978
 1983TIP3    H227441   1.373   1.416   6.112 -0.5303 -0.8786  1.0543
 1984TIP3   OH227442   2.225   1.161   3.787 -0.0957 -0.4881  0.4479
 1984TIP3    H127443   2.315   1.139   3.811 -0.4756 -2.0772  0.5020
 1984TIP3    H227444   2.171   1.103   3.840 -1.2320  1.3285  1.3624
 1985TIP3   OH227445   2.917   0.535  38.504  0.3086 -0.2551  0.1290
 1985TIP3    H127446   2.990   0.512  38.562  1.2944 -1.4590 -1.4912
 1985TIP3    H227447   2.870   0.452  38.492  0.8332 -0.3211 -1.6991
 1986TIP3   OH227448   4.045   0.401   6.494 -0.2153  0.6030 -0.0567
 1986TIP3    H127449   4.010   0.422   6.407 -1.9058 -1.7297 -0.0381
 1986TIP3    H227450   4.037   0.306   6.500  3.1036  0.2914  1.3517
 1987TIP3   OH227451   0.985   3.889  10.792 -0.1157  0.0737  0.5005
 1987TIP3    H127452   1.016   3.815  10.739 -2.4373 -0.3564 -0.4106
 1987TIP3    H227453   0.932   3.940  10.731  2.5544  3.3964  0.6946
 1988TIP3   OH227454   2.184   2.775  30.778 -0.6418  0.1379 -0.4820
 1988TIP3    H127455   2.211   2.688  30.807  0.6211  0.1128 -1.6255
 1988TIP3    H227456   2.203   2.832  30.852  0.2544 -0.2789 -0.3780
 1989TIP3   OH227457   1.408   4.194  39.730 -0.3696  0.3626  0.1194
 1989TIP3    H127458   1.352   4.166  39.803 -0.7978 -0.9643 -0.6701
 1989TIP3    H227459   1.479   4.130  39.729  0.5680  1.3870  0.4189
 1990TIP3   OH227460   4.190   4.025  41.249  0.1231  0.5652 -0.2209
 1990TIP3    H127461   4.229   4.100  41.204  0.2379  0.8071  0.2735
 1990TIP3    H227462   4.262   3.963  41.258 -0.5155 -0.6662 -2.8127
 1991TIP3   OH227463   3.085   0.105   7.604 -0.1833 -0.1403 -0.1406
 1991TIP3    H127464   3.179   0.107   7.623 -0.0869 -0.5876 -0.5494
 1991TIP3    H227465   3.044   0.085   7.688  0.2347 -2.0136 -0.3260
 1992TIP3   OH227466   1.790   2.034   0.789 -0.0316  0.4473  0.2344
 1992TIP3    H127467   1.836   2.118   0.782 -2.9286  2.1282 -0.2089
 1992TIP3    H227468   1.833   1.978   0.725  0.8754  2.1844 -0.7562
 1993TIP3   OH227469   2.219   2.793  10.436 -0.0348  0.3197  0.0249
 1993TIP3    H127470   2.223   2.710  10.483 -2.9815 -0.8043 -1.4841
 1993TIP3    H227471   2.157   2.846  10.485 -1.2584  0.0530 -1.1737
 1994TIP3   OH227472   1.927   2.726  35.284 -0.1106  0.4678 -0.0668
 1994TIP3    H127473   1.882   2.803  35.250  1.1506  1.4481  0.4334
 1994TIP3    H227474   1.890   2.713  35.371  0.4637  1.1928  0.2904
 1995TIP3   OH227475   3.164   2.156  11.071  0.0647 -0.3809  0.3661
 1995TIP3    H127476   3.221   2.081  11.092 -0.4247 -1.2958 -1.4162
 1995TIP3    H227477   3.224   2.223  11.037  0.5484  0.2289  2.2501
 1996TIP3   OH227478   0.422   1.282   2.203 -0.3712  0.1345  0.2110
 1996TIP3    H127479   0.355   1.340   2.168 -0.3666  0.0926  0.1327
 1996TIP3    H227480   0.431   1.308   2.295 -0.1235  0.4816  0.0876
 1997TIP3   OH227481   2.509   1.060  36.517  0.3721  0.3340 -0.5021
 1997TIP3    H127482   2.436   1.023  36.568  0.2688  0.7254 -0.3651
 1997TIP3    H227483   2.587   1.036  36.567  0.2366  1.1676  0.1348
 1998TIP3   OH227484   1.482   3.866  30.472 -0.1567 -0.4128  0.1878
 1998TIP3    H127485   1.500   3.793  30.413  2.0299 -1.2838  1.7439
 1998TIP3    H227486   1.450   3.936  30.416 -1.0228 -2.1123 -1.5513
 1999TIP3   OH227487   4.302   0.930  38.793 -0.4075 -0.6240 -0.5196
 1999TIP3    H127488   4.329   0.858  38.738  1.2949 -0.8658  0.5623
 1999TIP3    H227489   4.211   0.911  38.815  0.0658 -2.5814 -0.0832
 2000TIP3   OH227490   2.144   0.660  37.544  0.1143  0.4532 -0.0985
 2000TIP3    H127491   2.135   0.593  37.476  0.1234 -0.6091  0.9076
 2000TIP3    H227492   2.139   0.743  37.497 -1.5798 -0.2169 -1.1875
 2001TIP3   OH227493   0.887   0.282  31.627  0.5025 -0.3906  0.2437
 2001TIP3    H127494   0.918   0.370  31.604 -0.8481  0.1691  0.4864
 2001TIP3    H227495   0.801   0.296  31.665  0.8893 -1.6855  1.7060
 2002TIP3   OH227496   3.477   0.974  35.890 -0.5464  0.4381 -0.2195
 2002TIP3    H127497   3.399   0.949  35.938  0.5131 -0.6662  1.0171
 2002TIP3    H227498   3.524   1.034  35.949  0.7143 -0.8416  0.1436
 2003TIP3   OH227499   3.812   0.491  33.380 -0.2143 -0.7002 -0.2248
 2003TIP3    H127500   3.830   0.407  33.422  1.0208 -0.3525 -0.0296
 2003TIP3    H227501   3.833   0.476  33.288 -0.6064 -0.7746 -0.3028
 2004TIP3   OH227502   0.467   4.159   2.213 -0.5432  0.0900 -0.0152
 2004TIP3    H127503   0.453   4.199   2.128 -0.1698  0.6366  0.1746
 2004TIP3    H227504   0.481   4.066   2.194  1.5243  0.5020 -0.7517
 2005TIP3   OH227505   0.744   4.231   2.557 -0.5135 -0.0862  0.2710
 2005TIP3    H127506   0.786   4.310   2.592  0.2118 -0.9917  1.5085
 2005TIP3    H227507   0.762   4.234   2.463  1.2993  0.1695  0.5977
 2006TIP3   OH227508   4.088   3.077   3.993 -0.6474 -0.2498 -0.0961
 2006TIP3    H127509   4.059   3.027   4.069 -0.2309  0.3067  0.4439
 2006TIP3    H227510   4.019   3.065   3.929 -1.6422  0.2792  0.8282
 2007TIP3   OH227511   2.262   0.066  34.460  0.6069 -0.5694 -0.0788
 2007TIP3    H127512   2.301   0.115  34.533 -0.1859 -2.0997  1.4418
 2007TIP3    H227513   2.181   0.029  34.497  0.8816 -2.5225 -1.3252
 2008TIP3   OH227514   3.633   1.799   5.010  0.4698 -0.2789 -0.4137
 2008TIP3    H127515   3.594   1.884   5.030  1.2938  0.3179 -1.2565
 2008TIP3    H227516   3.593   1.773   4.928  1.8417  0.3740 -1.3231
 2009TIP3   OH227517   0.926   3.494  35.782  0.3642 -0.5160 -0.1544
 2009TIP3    H127518   0.937   3.580  35.741 -0.7384  0.9868  2.4658
 2009TIP3    H227519   1.010   3.475  35.823  0.8767 -1.1601 -1.4228
 2010TIP3   OH227520   1.956   4.073  30.118  0.0456 -0.6883 -0.0557
 2010TIP3    H127521   1.934   4.108  30.032 -0.6015 -0.1510  0.3158
 2010TIP3    H227522   1.878   4.025  30.145  0.1961 -0.7484  0.2843
 2011TIP3   OH227523   1.978   0.713  15.612  0.5654  0.2080  0.3038
 2011TIP3    H127524   2.044   0.781  15.602  0.8908  0.0892  1.5288
 2011TIP3    H227525   1.946   0.723  15.701 -1.1492  0.3237 -0.2832
 2012TIP3   OH227526   3.615   2.316  33.528 -0.3447  0.2152 -0.1173
 2012TIP3    H127527   3.663   2.398  33.541 -0.6138  0.1906  1.1757
 2012TIP3    H227528   3.559   2.309  33.606  0.1469 -1.5178  0.1155
 2013TIP3   OH227529   1.024   3.835  10.275 -0.4049  0.1382  0.7495
 2013TIP3    H127530   1.097   3.817  10.334  3.7362 -2.4990 -4.3725
 2013TIP3    H227531   0.983   3.750  10.261  1.7766 -0.4782 -3.2893
 2014TIP3   OH227532   2.485   3.023   1.819  0.5748  0.2694  0.7128
 2014TIP3    H127533   2.487   2.958   1.748  1.3327 -0.1593  1.1118
 2014TIP3    H227534   2.439   3.098   1.781 -0.7167 -0.6569  0.3880
 2015TIP3   OH227535   0.571   1.955   6.121 -0.4856 -0.1342  0.1228
 2015TIP3    H127536   0.650   1.902   6.132 -1.1901 -1.1019  0.7004
 2015TIP3    H227537   0.587   2.006   6.042  0.1394 -1.3833 -0.5918
 2016TIP3   OH227538   0.335   2.546  25.750 -0.4250 -0.3249  0.5284
 2016TIP3    H127539   0.397   2.528  25.821 -1.9854  0.5324  2.1762
 2016TIP3    H227540   0.384   2.524  25.670  2.2248  0.8889  1.6879
 2017TIP3   OH227541   0.199   1.543  10.197 -0.6613  0.3425  0.0678
 2017TIP3    H127542   0.171   1.586  10.278 -3.8214  0.0215 -0.6883
 2017TIP3    H227543   0.209   1.615  10.134 -0.7957  0.3963  0.1066
 2018TIP3   OH227544   2.751   1.012  40.103 -0.0927  0.6857  0.3752
 2018TIP3    H127545   2.670   0.997  40.055 -1.6763 -1.7943  3.4390
 2018TIP3    H227546   2.815   0.953  40.061 -1.0827 -0.5092  0.4872
 2019TIP3   OH227547   0.566   0.083  13.296  0.0156  0.4496  0.1706
 2019TIP3    H127548   0.660   0.072  13.286  0.1002  1.2922 -0.0705
 2019TIP3    H227549   0.542   0.145  13.227 -0.5339  1.0737  0.9019
 2020TIP3   OH227550   0.620   2.878  28.435  0.2259  0.6289  0.4534
 2020TIP3    H127551   0.708   2.851  28.408 -0.0388 -0.4072  0.5647
 2020TIP3    H227552   0.590   2.936  28.365  0.5841  0.1348 -0.1235
 2021TIP3   OH227553   0.283   0.833   9.447  0.8020 -0.2116 -0.3388
 2021TIP3    H127554   0.245   0.915   9.477  0.8230  0.0902 -1.1099
 2021TIP3    H227555   0.337   0.803   9.520 -1.2708 -0.9122  1.0093
 2022TIP3   OH227556   4.209   2.185  13.270 -0.9389 -0.5677 -0.8209
 2022TIP3    H127557   4.144   2.149  13.331  0.7151 -0.8368  0.8707
 2022TIP3    H227558   4.242   2.263  13.314  2.5243 -2.4188  0.2537
 2023TIP3   OH227559   3.324   0.251  11.011 -0.1429 -0.5144  0.3072
 2023TIP3    H127560   3.408   0.211  10.988 -0.1221 -1.2886  1.6224
 2023TIP3    H227561   3.311   0.319  10.945 -0.2346 -2.7337 -2.1088
 2024TIP3   OH227562   0.858   4.252   8.063 -1.0896  0.1459 -0.3299
 2024TIP3    H127563   0.889   4.342   8.047 -0.9210  0.5274  1.7563
 2024TIP3    H227564   0.765   4.263   8.083 -1.9220 -0.6066 -3.2884
 2025TIP3   OH227565   1.752   4.168  12.551 -0.3124  0.6265  0.2825
 2025TIP3    H127566   1.673   4.160  12.498  1.2849 -1.7143 -1.9920
 2025TIP3    H227567   1.791   4.250  12.521 -1.3088  1.2411  0.6225
 2026TIP3   OH227568   0.662   4.022  36.647 -0.3459 -0.2634 -0.1320
 2026TIP3    H127569   0.671   3.936  36.687 -0.2091  0.0454  0.5254
 2026TIP3    H227570   0.591   4.013  36.584 -1.3989 -0.4710  1.0357
 2027TIP3   OH227571   3.807   2.559   1.591 -0.4021 -0.1070  0.0313
 2027TIP3    H127572   3.818   2.466   1.611 -0.0415  0.1560  1.1060
 2027TIP3    H227573   3.813   2.564   1.495  3.0215 -0.7806  0.0884
 2028TIP3   OH227574   0.872   3.773  34.474  0.3329 -0.0742 -0.3784
 2028TIP3    H127575   0.844   3.834  34.543  2.2654 -0.1956  0.5873
 2028TIP3    H227576   0.804   3.705  34.473 -0.7793  1.0039 -0.0312
 2029TIP3   OH227577   1.373   0.769  27.546 -0.3365 -0.4993  0.3103
 2029TIP3    H127578   1.323   0.689  27.530 -0.6715 -0.5477  1.5650
 2029TIP3    H227579   1.326   0.836  27.495  1.0369 -1.3965 -2.3395
 2030TIP3   OH227580   2.058   3.377  40.551  0.6983  0.4389  0.2393
 2030TIP3    H127581   1.972   3.412  40.575  1.1581  1.9699 -0.2962
 2030TIP3    H227582   2.120   3.432  40.598  1.4232 -0.2692  0.1326
 2031TIP3   OH227583   1.180   2.151   4.081  0.5493 -0.0864 -0.0293
 2031TIP3    H127584   1.150   2.089   4.015 -0.0527  0.2497 -0.0765
 2031TIP3    H227585   1.271   2.170   4.057  1.9662 -3.5223  1.8756
 2032TIP3   OH227586   2.981   4.244   5.855  0.5327  0.3199  0.1405
 2032TIP3    H127587   2.951   4.161   5.891 -0.2549  0.0590 -1.0504
 2032TIP3    H227588   2.902   4.284   5.818  1.2300  0.6961 -1.0001
 2033TIP3   OH227589   3.617   1.518  12.566  0.0494  0.0307  0.6232
 2033TIP3    H127590   3.585   1.428  12.566  1.4104 -0.4821  0.0708
 2033TIP3    H227591   3.684   1.519  12.498 -0.1265  1.5410  0.4365
 2034TIP3   OH227592   2.953   4.003   8.655 -0.1838 -0.6250  0.0679
 2034TIP3    H127593   3.016   3.937   8.683 -1.9201 -2.0947  0.7299
 2034TIP3    H227594   2.902   4.023   8.734 -1.3694 -0.4459 -0.7190
 2035TIP3   OH227595   1.306   0.930   7.632  0.0289  0.0185  0.2286
 2035TIP3    H127596   1.309   0.917   7.537 -1.5987  0.0203  0.1422
 2035TIP3    H227597   1.242   0.865   7.662  2.2942 -1.7059  1.6882
 2036TIP3   OH227598   3.539   3.981  31.249 -0.2471  0.3793  0.0050
 2036TIP3    H127599   3.584   3.898  31.266 -0.0745  1.0383  3.3644
 2036TIP3    H227600   3.447   3.958  31.241 -0.0857 -0.2368 -0.1264
 2037TIP3   OH227601   1.271   1.448  13.295 -0.4366 -0.0994  0.0754
 2037TIP3    H127602   1.362   1.438  13.267 -0.5134  0.0364 -0.2250
 2037TIP3    H227603   1.273   1.433  13.390 -0.1614 -0.4744  0.0123
 2038TIP3   OH227604   0.019   1.140  36.568  0.2523  0.1847  0.5575
 2038TIP3    H127605  -0.056   1.105  36.616  0.2402  0.8763  1.0549
 2038TIP3    H227606   0.094   1.092  36.602  0.0579 -0.4095  0.1587
 2039TIP3   OH227607   2.041   3.952   5.033 -0.2950  0.8990  0.6331
 2039TIP3    H127608   1.952   3.924   5.055 -0.2116 -0.6798 -0.8831
 2039TIP3    H227609   2.097   3.897   5.087 -0.1916 -0.5493 -0.8647
 2040TIP3   OH227610   2.253   1.867   9.779 -0.0161  0.3790 -0.2091
 2040TIP3    H127611   2.317   1.797   9.765 -0.2706 -0.0752  0.7604
 2040TIP3    H227612   2.171   1.821   9.798  0.0524  0.8839  1.5389
 2041TIP3   OH227613   3.605   2.462  39.157 -0.0460 -0.6237 -0.4689
 2041TIP3    H127614   3.545   2.532  39.181  0.0541 -1.1937  1.6188
 2041TIP3    H227615   3.610   2.467  39.062 -0.6957  1.6489 -0.4487
 2042TIP3   OH227616   1.474   3.967  14.977 -0.1909 -0.2238 -0.3032
 2042TIP3    H127617   1.420   3.890  14.995 -1.4592  0.2147 -2.0489
 2042TIP3    H227618   1.437   4.036  15.033 -0.6676 -0.2371 -0.6019
 2043TIP3   OH227619   1.780   2.118   8.810  0.4567  0.1921 -0.1845
 2043TIP3    H127620   1.798   2.197   8.860  2.2691  0.1029 -0.6333
 2043TIP3    H227621   1.862   2.069   8.811 -0.3059 -1.1781 -0.8332
 2044TIP3   OH227622   3.543   1.697   6.279 -0.1383 -0.0000  0.7391
 2044TIP3    H127623   3.608   1.675   6.346  1.1376  0.7403 -0.2027
 2044TIP3    H227624   3.555   1.629   6.212 -1.1054 -0.4850  1.0410
 2045TIP3   OH227625   1.351   3.075   2.706 -0.3313 -0.1663  0.1945
 2045TIP3    H127626   1.363   2.996   2.653  0.0684  1.4525 -2.3207
 2045TIP3    H227627   1.260   3.102   2.689  0.6168  1.9237 -2.1245
 2046TIP3   OH227628   2.188   3.229  30.761  0.2754  0.8952  0.3075
 2046TIP3    H127629   2.180   3.162  30.693 -1.2595  0.5799  0.7555
 2046TIP3    H227630   2.279   3.223  30.790  0.3098 -0.6578 -0.0158
 2047TIP3   OH227631   0.718   2.218  36.339 -0.0048  1.0551 -0.3514
 2047TIP3    H127632   0.623   2.212  36.346 -0.0723 -2.7938 -2.1428
 2047TIP3    H227633   0.735   2.239  36.247  0.8986  1.1613 -0.1755
 2048TIP3   OH227634   1.724   1.262  11.142  0.5177 -0.0228 -0.3142
 2048TIP3    H127635   1.691   1.334  11.196 -0.7653  0.5295 -1.7756
 2048TIP3    H227636   1.770   1.206  11.204 -0.3529  0.9075  1.2514
 2049TIP3   OH227637   1.466   3.909  28.574  0.7357  0.0733  0.1143
 2049TIP3    H127638   1.482   3.901  28.480  1.0949  0.0517  0.1761
 2049TIP3    H227639   1.371   3.908  28.582  0.7100 -1.6955 -0.1027
 2050TIP3   OH227640   1.606   4.108  37.935 -0.0508  0.1296 -0.1280
 2050TIP3    H127641   1.544   4.130  38.004 -0.0111 -1.0121  0.3032
 2050TIP3    H227642   1.560   4.046  37.879  0.4530 -0.1921 -0.1991
 2051TIP3   OH227643   1.159   3.425  14.343 -0.2393 -0.8470 -0.7294
 2051TIP3    H127644   1.207   3.378  14.411  1.2186 -0.2594 -1.3023
 2051TIP3    H227645   1.108   3.490  14.390  0.6032 -0.5792 -0.1569
 2052TIP3   OH227646   4.193   1.820  11.499 -0.6127 -0.0871  0.1058
 2052TIP3    H127647   4.277   1.823  11.452  0.0315  0.8382  1.2697
 2052TIP3    H227648   4.189   1.731  11.535 -0.4047 -0.3120 -0.4136
 2053TIP3   OH227649   3.732   2.868  30.665 -0.0924 -0.2666 -0.2868
 2053TIP3    H127650   3.645   2.906  30.677 -0.5346 -1.1925 -0.4633
 2053TIP3    H227651   3.782   2.899  30.741 -0.0339  1.6996 -1.0768
 2054TIP3   OH227652   1.509   3.129  35.293  0.2665  0.2547 -0.0681
 2054TIP3    H127653   1.536   3.038  35.305 -0.9273 -0.3096 -1.4744
 2054TIP3    H227654   1.459   3.150  35.372 -2.2799 -1.4129 -1.1220
 2055TIP3   OH227655   1.219   0.549  27.572 -0.1541  0.3604  0.1392
 2055TIP3    H127656   1.125   0.537  27.556 -0.1972 -0.1905  0.7833
 2055TIP3    H227657   1.241   0.484  27.638  0.2862  1.7565  1.4238
 2056TIP3   OH227658   3.057   3.793   5.242 -0.4541 -0.5329  0.0274
 2056TIP3    H127659   3.033   3.737   5.315 -2.2435 -1.6635 -1.3447
 2056TIP3    H227660   3.063   3.734   5.167 -1.4316  0.9439 -1.2752
 2057TIP3   OH227661   1.545   2.534  13.626  0.3511 -0.3656 -0.2251
 2057TIP3    H127662   1.553   2.454  13.679  1.1495  0.6802  1.2884
 2057TIP3    H227663   1.620   2.532  13.567  0.2459 -0.8258 -0.3489
 2058TIP3   OH227664   4.230   3.025  24.509  0.6293  0.4543 -0.1620
 2058TIP3    H127665   4.163   3.071  24.559 -1.2842 -2.7314  0.4252
 2058TIP3    H227666   4.290   2.990  24.575  1.8912  1.6766 -0.5907
 2059TIP3   OH227667   2.484   0.394  29.191  0.2959  0.0308  0.5605
 2059TIP3    H127668   2.532   0.477  29.189  0.0770  0.1420 -0.4703
 2059TIP3    H227669   2.476   0.373  29.284  2.4430 -0.0471  0.7648
 2060TIP3   OH227670   3.038   2.260  39.555 -0.3959 -0.8556  0.4511
 2060TIP3    H127671   3.115   2.286  39.606 -0.2250  0.7432 -0.5334
 2060TIP3    H227672   3.074   2.225  39.474 -0.6978 -0.8272  0.3034
 2061TIP3   OH227673   0.357   1.067  34.317 -0.3338  0.4717 -0.4740
 2061TIP3    H127674   0.406   0.985  34.325  0.3900  0.9900  0.5994
 2061TIP3    H227675   0.265   1.040  34.321 -0.1117 -0.1402  1.8932
 2062TIP3   OH227676   1.028   3.754  41.127  0.1535  0.1697 -0.2295
 2062TIP3    H127677   0.934   3.771  41.121  0.3365  0.7532 -1.6871
 2062TIP3    H227678   1.053   3.790  41.212 -0.6746  1.3175 -0.4445
 2063TIP3   OH227679   2.647   2.921  27.231 -0.0870  0.1743  0.1924
 2063TIP3    H127680   2.704   2.954  27.300 -0.5996  2.0292 -0.2032
 2063TIP3    H227681   2.560   2.954  27.255 -0.9541 -2.1026  0.4824
 2064TIP3   OH227682   0.458   1.681   4.201  0.0496 -0.5648 -0.3845
 2064TIP3    H127683   0.450   1.753   4.264 -0.5942 -1.0358  0.0922
 2064TIP3    H227684   0.489   1.607   4.252  2.2993 -0.2535 -1.1770
 2065TIP3   OH227685   4.334   2.284  22.266 -0.2713 -0.4345 -0.3498
 2065TIP3    H127686   4.272   2.283  22.193 -0.2174 -2.5461 -0.4365
 2065TIP3    H227687   4.283   2.256  22.342  0.0809 -0.0515  0.0323
 2066TIP3   OH227688   0.400   1.389  37.038  0.1747 -0.0392  0.3748
 2066TIP3    H127689   0.328   1.330  37.019 -0.0911 -0.0176  1.2421
 2066TIP3    H227690   0.374   1.434  37.119  0.6413  0.8163  0.0682
 2067TIP3   OH227691   0.476   4.123  11.221  0.1626  0.3494  0.6265
 2067TIP3    H127692   0.383   4.131  11.200  0.3411 -0.6624 -0.6977
 2067TIP3    H227693   0.500   4.036  11.187  1.2621 -0.0055  2.2252
 2068TIP3   OH227694   0.712   1.837  40.664 -0.1065  0.3488  0.3269
 2068TIP3    H127695   0.802   1.810  40.645 -1.3833 -2.7850 -2.0643
 2068TIP3    H227696   0.704   1.924  40.623  1.6789  0.4696  0.1580
 2069TIP3   OH227697   2.625   2.031  34.127  0.0758 -0.1000  0.4528
 2069TIP3    H127698   2.584   2.025  34.213 -1.4182  0.0027 -0.2009
 2069TIP3    H227699   2.564   2.085  34.076  1.5263  0.8481 -0.3321
 2070TIP3   OH227700   0.188   4.395  33.064  0.2800  0.5689  0.1019
 2070TIP3    H127701   0.119   4.330  33.078  1.8764 -0.6743  2.8450
 2070TIP3    H227702   0.184   4.413  32.970 -1.4876 -2.0532 -0.4396
 2071TIP3   OH227703   1.403   2.707   2.923  0.0692  0.2139  0.1503
 2071TIP3    H127704   1.331   2.763   2.955 -1.1347 -0.8321 -0.6211
 2071TIP3    H227705   1.482   2.749   2.956 -0.8876  1.4497  0.9888
 2072TIP3   OH227706   1.721   4.124  36.270 -0.1679 -0.2243  0.7701
 2072TIP3    H127707   1.694   4.116  36.179  1.1105 -0.8934  0.4329
 2072TIP3    H227708   1.757   4.039  36.293 -0.2002  0.0262  1.8195
 2073TIP3   OH227709   1.774   3.315   7.014 -0.1771 -0.4287 -0.5072
 2073TIP3    H127710   1.802   3.226   7.035 -2.2222 -1.2262 -0.8558
 2073TIP3    H227711   1.734   3.308   6.928 -1.0126  0.6558 -0.2328
 2074TIP3   OH227712   1.602   4.351   0.469 -0.2200  0.8224  0.6148
 2074TIP3    H127713   1.536   4.414   0.440 -0.4119  2.1285  3.5822
 2074TIP3    H227714   1.684   4.401   0.471  0.8025 -0.5307 -2.0907
 2075TIP3   OH227715   2.185   3.818   8.460 -0.0706  0.2872 -0.3406
 2075TIP3    H127716   2.271   3.790   8.491  1.0410 -0.6125 -3.7414
 2075TIP3    H227717   2.181   3.911   8.481  1.2038  0.0817  0.9468
 2076TIP3   OH227718   3.253   3.178   1.144 -0.5201  0.0320  0.3248
 2076TIP3    H127719   3.197   3.253   1.126  1.2331  2.2893  3.3290
 2076TIP3    H227720   3.331   3.193   1.091 -0.5576 -0.1985  0.2024
 2077TIP3   OH227721   2.542   1.937  35.647 -0.5738 -0.1104  0.4308
 2077TIP3    H127722   2.609   1.986  35.695 -1.1550  0.2722  0.8682
 2077TIP3    H227723   2.459   1.970  35.681 -0.9823 -1.0798  0.3994
 2078TIP3   OH227724   2.221   4.250  10.243 -0.1241  0.3846  0.0866
 2078TIP3    H127725   2.202   4.167  10.288  2.1929 -0.4099 -0.2555
 2078TIP3    H227726   2.213   4.316  10.312  0.9372 -0.5107  1.1183
 2079TIP3   OH227727   0.458   3.776  27.657  0.5012 -0.5820 -0.2042
 2079TIP3    H127728   0.523   3.822  27.604 -0.7682  0.6223 -0.7813
 2079TIP3    H227729   0.403   3.730  27.594 -0.1635 -0.2986  0.1518
 2080TIP3   OH227730   2.954   3.620   5.426  0.5087  0.4030  0.4389
 2080TIP3    H127731   2.870   3.575   5.416 -0.7663  2.9313 -1.8732
 2080TIP3    H227732   2.931   3.704   5.467  1.4934  1.8957 -1.8305
 2081TIP3   OH227733   3.910   2.165  27.831  0.4916 -0.1706  0.3096
 2081TIP3    H127734   3.958   2.245  27.852  0.7795 -0.3096  0.1759
 2081TIP3    H227735   3.910   2.115  27.913 -0.5786  0.4225  0.6882
 2082TIP3   OH227736   1.979   0.280  14.272  0.2394  0.0560  0.5695
 2082TIP3    H127737   1.920   0.209  14.249  0.0704  0.0411  1.0389
 2082TIP3    H227738   1.974   0.286  14.368  4.5526 -3.1201  1.2782
 2083TIP3   OH227739   2.156   0.283  39.784  0.1689 -0.6656  0.8855
 2083TIP3    H127740   2.104   0.362  39.774  1.2037 -0.0071  0.5292
 2083TIP3    H227741   2.233   0.311  39.834  0.9532 -1.2577  0.0277
 2084TIP3   OH227742   3.198   3.976  40.374 -0.3154 -0.1089  0.6287
 2084TIP3    H127743   3.164   3.930  40.451  1.9999 -2.2293  0.4738
 2084TIP3    H227744   3.193   3.912  40.303 -0.3132  1.0889 -0.4882
 2085TIP3   OH227745   0.837   0.308   9.389  0.0208 -0.3349 -0.3296
 2085TIP3    H127746   0.908   0.344   9.442  0.3422 -2.4336  0.7678
 2085TIP3    H227747   0.776   0.270   9.453 -0.6045 -1.1457 -1.3741
 2086TIP3   OH227748   2.929   2.838  27.450  0.4380 -0.0996 -0.0426
 2086TIP3    H127749   3.013   2.798  27.470 -0.5343 -2.3373 -0.0886
 2086TIP3    H227750   2.950   2.910  27.389  2.4192  0.4902  1.2473
 2087TIP3   OH227751   0.125   3.350  13.750 -0.3283 -0.1333 -0.0584
 2087TIP3    H127752   0.149   3.340  13.658 -0.4017 -1.3737  0.0473
 2087TIP3    H227753   0.033   3.322  13.755  0.2307 -2.0032  0.7044
 2088TIP3   OH227754   4.286   3.453   3.064 -0.1395  0.1799  0.4663
 2088TIP3    H127755   4.379   3.443   3.083 -0.5360 -2.1844  1.4618
 2088TIP3    H227756   4.283   3.469   2.969  1.2312 -1.0124  0.1866
 2089TIP3   OH227757   0.509   3.961  29.227  0.5318 -0.1314 -0.0477
 2089TIP3    H127758   0.471   4.036  29.181 -0.0504 -1.1417 -1.2979
 2089TIP3    H227759   0.601   3.984  29.239  0.1486  1.1719  0.4467
 2090TIP3   OH227760   0.693   1.549  10.000 -0.1550  0.3114 -0.3021
 2090TIP3    H127761   0.728   1.462   9.982 -1.6661 -0.3604 -0.0960
 2090TIP3    H227762   0.631   1.565   9.929 -0.1950  1.0531 -0.1087
 2091TIP3   OH227763   1.730   0.402  14.056 -0.4641 -0.2172  0.0930
 2091TIP3    H127764   1.717   0.420  13.963 -0.6764 -0.4301  0.0804
 2091TIP3    H227765   1.823   0.422  14.071  0.2458 -2.5014 -0.7169
 2092TIP3   OH227766   0.347   3.875   7.587  0.3007  0.4455 -0.0260
 2092TIP3    H127767   0.328   3.844   7.675 -0.6235 -2.5349 -1.1833
 2092TIP3    H227768   0.273   3.931   7.564 -0.5301 -0.5009  0.3178
 2093TIP3   OH227769   3.430   1.412   0.485  0.3864  0.0607 -0.0868
 2093TIP3    H127770   3.385   1.417   0.400 -0.5613 -0.1315  0.3847
 2093TIP3    H227771   3.387   1.339   0.530  1.3670 -0.2950  0.2891
 2094TIP3   OH227772   0.727   2.025  37.697  0.1563  0.4496  0.4233
 2094TIP3    H127773   0.650   1.970  37.689 -0.4343  1.4473 -1.1264
 2094TIP3    H227774   0.797   1.976  37.655 -0.4722  1.0189 -1.3802
 2095TIP3   OH227775   0.262   3.184  33.826  0.0461 -0.2798  0.5315
 2095TIP3    H127776   0.331   3.182  33.893  0.3758  0.1466  0.2066
 2095TIP3    H227777   0.304   3.221  33.749  0.1750 -2.4261 -0.4967
 2096TIP3   OH227778   2.084   0.644  10.392 -0.2245  0.1567  0.5088
 2096TIP3    H127779   2.019   0.695  10.343 -0.2913  0.8693  1.3304
 2096TIP3    H227780   2.057   0.553  10.378 -0.4253  0.3596 -0.5215
 2097TIP3   OH227781   4.363   0.513   0.417  0.3386 -0.2955 -0.0668
 2097TIP3    H127782   4.418   0.438   0.440 -0.5871 -0.6693  0.9996
 2097TIP3    H227783   4.425   0.581   0.390  1.4320 -0.4226  1.9044
 2098TIP3   OH227784   4.033   1.264  27.787 -0.3111 -0.3926 -0.5966
 2098TIP3    H127785   4.100   1.313  27.834 -0.7253  0.9257 -1.3514
 2098TIP3    H227786   4.075   1.238  27.705 -1.0999  1.7296 -1.7621
 2099TIP3   OH227787   1.787   3.577   7.146  0.1197  0.5453 -0.0700
 2099TIP3    H127788   1.717   3.546   7.202  0.4196 -1.1361 -0.5794
 2099TIP3    H227789   1.763   3.546   7.058  0.8124  1.1527 -0.4876
 2100TIP3   OH227790   3.362   3.485  29.384  0.6651  0.2943  0.4067
 2100TIP3    H127791   3.292   3.474  29.320  0.0571 -1.8886  1.3705
 2100TIP3    H227792   3.325   3.546  29.448 -0.0561 -0.2059  0.4828
 2101TIP3   OH227793   1.906   1.061  15.556 -0.2496  0.3898  0.1542
 2101TIP3    H127794   1.942   1.134  15.607  1.7359 -0.3969 -0.0187
 2101TIP3    H227795   1.889   0.993  15.621  1.3898 -0.2723 -0.0571
 2102TIP3   OH227796   1.611   2.922   9.296  0.1358 -0.5472  0.6604
 2102TIP3    H127797   1.518   2.943   9.302  0.2286  0.5616 -0.9597
 2102TIP3    H227798   1.646   2.942   9.383 -1.0489 -0.5805  1.1655
 2103TIP3   OH227799   2.286   1.233  40.198  0.0189 -0.1496 -0.0325
 2103TIP3    H127800   2.312   1.315  40.240 -2.4013  0.9979 -0.6397
 2103TIP3    H227801   2.227   1.260  40.127 -1.3533 -2.4397  0.1526
 2104TIP3   OH227802   3.518   3.765  34.613 -0.0787 -0.0708 -0.2787
 2104TIP3    H127803   3.583   3.806  34.670  0.7966  0.0075 -1.2983
 2104TIP3    H227804   3.527   3.811  34.530  0.4481 -1.8726 -1.2492
 2105TIP3   OH227805   3.736   0.236   6.175  0.5043 -0.2817 -0.0811
 2105TIP3    H127806   3.787   0.185   6.112  0.1265  0.0839 -0.7009
 2105TIP3    H227807   3.646   0.228   6.144  0.2346 -0.6055  0.7768
 2106TIP3   OH227808   3.968   1.306  11.119 -0.0577  0.6667  0.2101
 2106TIP3    H127809   3.950   1.263  11.202 -0.0260  1.9456  0.8998
 2106TIP3    H227810   3.889   1.293  11.067  0.2225 -0.8298  0.1105
 2107TIP3   OH227811   1.220   1.176  40.384  0.2175 -0.0230  0.7066
 2107TIP3    H127812   1.275   1.254  40.391 -3.0560  2.7267 -1.3197
 2107TIP3    H227813   1.239   1.142  40.296  0.8546 -0.9676  1.1868
 2108TIP3   OH227814   0.323   2.974  26.797  0.6845 -0.5952 -0.0635
 2108TIP3    H127815   0.233   2.960  26.826  0.6093  0.9681  0.5381
 2108TIP3    H227816   0.329   2.927  26.714 -0.4093 -1.4690  0.3268
 2109TIP3   OH227817   0.427   0.311  29.672  0.4434 -0.4566  0.5518
 2109TIP3    H127818   0.426   0.343  29.763  1.1452 -1.3215  0.8810
 2109TIP3    H227819   0.388   0.224  29.677  0.5666 -0.5428  0.0383
 2110TIP3   OH227820   2.751   0.915  31.664 -0.4713 -0.1289 -0.1171
 2110TIP3    H127821   2.723   0.944  31.751  0.9679  2.2205 -0.3599
 2110TIP3    H227822   2.674   0.927  31.608 -0.7557  0.5184  0.3963
 2111TIP3   OH227823   3.235   0.528   2.192  0.5847  0.2563 -0.4501
 2111TIP3    H127824   3.301   0.468   2.157  1.5963  1.2136 -0.2550
 2111TIP3    H227825   3.271   0.558   2.276 -0.4975  0.1671  0.0757
 2112TIP3   OH227826   1.227   1.716   3.994  0.3262 -0.4266  0.1481
 2112TIP3    H127827   1.217   1.802   3.953  1.0240  0.1787  1.2055
 2112TIP3    H227828   1.145   1.670   3.974 -0.1057  0.5230 -0.3281
 2113TIP3   OH227829   0.665   0.929  21.624 -0.1302 -0.2042 -0.3485
 2113TIP3    H127830   0.608   0.853  21.635 -0.2764 -0.2511 -1.3682
 2113TIP3    H227831   0.645   0.984  21.700 -0.9757 -0.5780 -0.2849
 2114TIP3   OH227832   2.519   1.054   8.084  0.2596 -0.0131  0.5404
 2114TIP3    H127833   2.506   1.148   8.101 -0.3648  0.1798 -0.8654
 2114TIP3    H227834   2.549   1.050   7.993  0.2389 -1.1929  0.5704
 2115TIP3   OH227835   1.497   0.289   2.604 -0.5982  0.0357  0.0088
 2115TIP3    H127836   1.503   0.237   2.684  0.2586  0.6811  0.3745
 2115TIP3    H227837   1.458   0.229   2.540 -0.2891 -0.8346  0.6117
 2116TIP3   OH227838   1.305   0.041  14.706 -0.1935  0.0435 -0.1862
 2116TIP3    H127839   1.258   0.101  14.649 -0.9350 -0.1370  0.2096
 2116TIP3    H227840   1.236  -0.016  14.742  0.3309 -0.2280  0.4129
 2117TIP3   OH227841   2.687   3.251   4.957 -0.1475  0.2857  0.0916
 2117TIP3    H127842   2.721   3.220   4.873 -0.4745 -0.6626  0.2980
 2117TIP3    H227843   2.628   3.181   4.986  0.4175  0.3236  1.3976
 2118TIP3   OH227844   0.275   2.452   2.594  0.0644 -0.0556 -0.2078
 2118TIP3    H127845   0.259   2.395   2.519  1.6537 -0.8871  0.0408
 2118TIP3    H227846   0.317   2.530   2.557  1.2070 -0.6327 -0.1759
 2119TIP3   OH227847   1.010   1.431   5.734  0.3234 -0.1007 -0.2870
 2119TIP3    H127848   0.929   1.435   5.684  0.4167 -0.5278 -0.4752
 2119TIP3    H227849   0.995   1.361   5.798  1.1780 -1.4187 -1.4718
 2120TIP3   OH227850   0.383   2.969  12.168  0.2974 -0.0595  0.4811
 2120TIP3    H127851   0.334   3.010  12.097 -0.9832 -1.0422  0.7607
 2120TIP3    H227852   0.473   2.998  12.155 -0.5895  3.6190  1.1971
 2121TIP3   OH227853   1.600   3.135  14.655  0.5047  0.1780 -0.1440
 2121TIP3    H127854   1.655   3.057  14.647 -0.3512 -0.5446  0.7479
 2121TIP3    H227855   1.525   3.118  14.597 -1.6759 -1.5008  2.8923
 2122TIP3   OH227856   2.834   1.575  11.721 -0.3648 -0.4953  0.4337
 2122TIP3    H127857   2.855   1.549  11.632 -0.6724  0.8895 -0.0776
 2122TIP3    H227858   2.917   1.574  11.767  0.3429  1.6819 -0.6812
 2123TIP3   OH227859   4.397   0.171   2.945  0.4987  0.6330 -0.1950
 2123TIP3    H127860   4.399   0.114   3.022  1.7077  1.4271  0.3854
 2123TIP3    H227861   4.405   0.260   2.980 -0.2811  1.0985 -1.1593
 2124TIP3   OH227862   4.177   1.120  32.482  0.3578  0.2531 -0.1480
 2124TIP3    H127863   4.265   1.084  32.488  0.6641  1.1826  1.3408
 2124TIP3    H227864   4.132   1.085  32.559 -0.7009 -0.5004 -1.0822
 2125TIP3   OH227865   1.253   2.860  13.170  0.4240  0.4159  1.0899
 2125TIP3    H127866   1.268   2.952  13.192 -1.3310  1.0989 -0.3070
 2125TIP3    H227867   1.179   2.834  13.225 -0.3281  0.4449  0.1178
 2126TIP3   OH227868   4.242   3.167  38.738 -0.8431 -0.2498 -0.1734
 2126TIP3    H127869   4.153   3.174  38.774 -0.6290 -0.2562  0.3743
 2126TIP3    H227870   4.245   3.080  38.699 -2.2463  1.0412 -3.4907
 2127TIP3   OH227871   1.514   4.375  30.431  0.5485 -0.0532  0.3353
 2127TIP3    H127872   1.467   4.432  30.492  0.8274  2.0406 -1.3034
 2127TIP3    H227873   1.606   4.384  30.456  1.0450  3.2014 -2.0638
 2128TIP3   OH227874   0.172   4.356  28.024  0.6109  0.4793  0.0175
 2128TIP3    H127875   0.211   4.286  27.972  1.6224 -0.5795  2.0615
 2128TIP3    H227876   0.082   4.326  28.039  0.3853  0.6790 -0.8891
 2129TIP3   OH227877   0.736   4.168  33.183 -0.6248 -0.3437 -0.7113
 2129TIP3    H127878   0.789   4.141  33.108 -1.9287  0.3813 -1.9531
 2129TIP3    H227879   0.650   4.188  33.145 -1.7867 -1.4517  1.2157
 2130TIP3   OH227880   1.459   0.903  36.779 -0.4402  0.3583  0.0553
 2130TIP3    H127881   1.403   0.893  36.702  0.6402  0.5833 -0.7897
 2130TIP3    H227882   1.476   0.997  36.784  0.7749  0.1834 -0.3975
 2131TIP3   OH227883   2.099   2.270  32.827 -0.5448  0.1889  0.3296
 2131TIP3    H127884   2.182   2.268  32.875 -0.6828 -0.6537  0.5479
 2131TIP3    H227885   2.049   2.196  32.861 -1.2327  0.4460 -0.0817
 2132TIP3   OH227886   4.255   0.684   3.993 -0.4381  0.2781  0.0259
 2132TIP3    H127887   4.336   0.642   3.965  0.0852  0.4879  1.1810
 2132TIP3    H227888   4.227   0.635   4.070 -1.1526  0.5035 -0.0816
 2133TIP3   OH227889   2.527   3.385  12.921  0.3435 -0.6915  0.4292
 2133TIP3    H127890   2.465   3.441  12.967  2.6870  0.7988  1.9596
 2133TIP3    H227891   2.553   3.435  12.844  0.2379 -0.9452  0.2298
 2134TIP3   OH227892   2.285   1.906  11.682  0.0235  0.1115  0.0352
 2134TIP3    H127893   2.319   1.987  11.643  1.1114  0.2374  1.1843
 2134TIP3    H227894   2.351   1.881  11.747 -1.3079 -0.5510  1.1848
 2135TIP3   OH227895   1.675   3.040  35.938  0.6125  0.5105  0.0979
 2135TIP3    H127896   1.585   3.030  35.967  1.5308 -0.6966  2.8946
 2135TIP3    H227897   1.701   3.128  35.968  0.4513  0.7840 -0.5416
 2136TIP3   OH227898   2.897   2.326  37.532  0.1543 -0.0429  0.0251
 2136TIP3    H127899   2.981   2.285  37.555  0.5725  0.6949 -0.1294
 2136TIP3    H227900   2.881   2.388  37.603  0.6959  1.1606 -0.8555
 2137TIP3   OH227901   1.341   0.520  27.086 -0.1023  0.3315  0.5380
 2137TIP3    H127902   1.300   0.440  27.116  0.8460 -0.2367  0.3714
 2137TIP3    H227903   1.430   0.494  27.062 -0.2413  1.1152 -0.9875
 2138TIP3   OH227904   1.072   0.602  40.970 -0.1825 -0.0588  0.3489
 2138TIP3    H127905   1.132   0.647  40.909  2.5132 -2.1079  1.3146
 2138TIP3    H227906   1.090   0.641  41.055 -2.3087  1.1922  0.3152
 2139TIP3   OH227907   0.096   3.615  34.130  0.5214  0.4352 -0.4792
 2139TIP3    H127908   0.152   3.638  34.055  2.6108 -1.7404  0.2935
 2139TIP3    H227909   0.015   3.584  34.090  1.4154 -0.2403 -1.8560
 2140TIP3   OH227910   2.310   2.510  39.497 -0.0076 -0.0044 -0.1031
 2140TIP3    H127911   2.403   2.502  39.518 -0.0401 -0.7806 -0.2302
 2140TIP3    H227912   2.266   2.512  39.582  0.0658 -0.4483 -0.0533
 2141TIP3   OH227913   0.138   0.087   8.967  0.6318 -0.2740 -0.3375
 2141TIP3    H127914   0.154  -0.004   8.942 -0.5096 -0.9442  1.2073
 2141TIP3    H227915   0.056   0.110   8.922  0.4522 -0.3146 -0.0355
 2142TIP3   OH227916   2.436   0.649   3.458  0.2499 -0.1667  0.1503
 2142TIP3    H127917   2.375   0.579   3.434 -0.2687  0.4440 -0.3513
 2142TIP3    H227918   2.415   0.721   3.398 -0.2841  0.9827  1.6355
 2143TIP3   OH227919   2.370   0.995   6.730 -0.7664 -0.2773 -0.0844
 2143TIP3    H127920   2.416   1.070   6.693 -0.1186 -0.1150  1.0083
 2143TIP3    H227921   2.384   1.003   6.824  0.2771 -2.3664 -0.0065
 2144TIP3   OH227922   1.245   1.734  39.462  0.0566  0.0129  0.3537
 2144TIP3    H127923   1.335   1.706  39.446  0.1349  0.1310  0.5899
 2144TIP3    H227924   1.207   1.740  39.374  0.3513  0.1980  0.2345
 2145TIP3   OH227925   0.708   1.959   9.597 -0.3122  0.4862 -0.1523
 2145TIP3    H127926   0.640   1.903   9.633  1.0031 -0.8341  0.3849
 2145TIP3    H227927   0.725   2.024   9.665  0.5307 -0.5866  0.7089
 2146TIP3   OH227928   3.071   1.509  29.329  0.3416 -0.1968  0.2376
 2146TIP3    H127929   3.143   1.447  29.337 -0.2155 -0.8968 -0.0973
 2146TIP3    H227930   3.085   1.572  29.400  1.3931 -0.2031  0.0442
 2147TIP3   OH227931   3.299   2.690   7.230 -0.0719  0.3073  0.9760
 2147TIP3    H127932   3.326   2.752   7.162  0.7496 -1.2206 -0.1582
 2147TIP3    H227933   3.204   2.681   7.216  0.0871  0.0006 -0.0011
 2148TIP3   OH227934   1.063   4.352  17.099 -0.0510 -0.8160 -0.4174
 2148TIP3    H127935   0.972   4.324  17.107 -0.3102 -1.0336 -3.2375
 2148TIP3    H227936   1.088   4.377  17.188 -1.8341 -3.7827  1.0852
 2149TIP3   OH227937   0.917   4.286  38.018  0.7321 -0.4326  0.1335
 2149TIP3    H127938   0.974   4.353  37.979  0.3460 -0.0775  0.1703
 2149TIP3    H227939   0.888   4.233  37.944  2.1449 -1.4439  0.2575
 2150TIP3   OH227940   0.210   0.660  31.794 -0.2823  0.3819  0.6087
 2150TIP3    H127941   0.248   0.597  31.855 -1.0741  0.9640  1.7308
 2150TIP3    H227942   0.208   0.743  31.842 -1.4729  0.7162  0.0229
 2151TIP3   OH227943   1.992   1.076   3.972  0.5280 -0.0885 -0.1151
 2151TIP3    H127944   1.952   1.158   3.945  1.3430  0.4500  0.2459
 2151TIP3    H227945   1.925   1.031   4.024  0.7009  1.2333  1.3069
 2152TIP3   OH227946   2.103   1.166  39.961  0.6788 -0.1711  0.3252
 2152TIP3    H127947   2.064   1.104  40.023 -0.5136  1.0458  0.8514
 2152TIP3    H227948   2.055   1.153  39.880 -1.9298  2.2388  1.3326
 2153TIP3   OH227949   2.680   2.886  36.488 -0.1269 -0.4021 -0.3352
 2153TIP3    H127950   2.595   2.885  36.532  0.1619  1.2841  0.3507
 2153TIP3    H227951   2.739   2.839  36.548 -0.3452 -0.6237 -0.2934
 2154TIP3   OH227952   0.993   0.919  13.459  0.0451 -0.1356  0.2760
 2154TIP3    H127953   0.951   0.838  13.488  0.2093 -0.4952 -0.4613
 2154TIP3    H227954   1.084   0.894  13.442  0.1804  0.2846  0.3832
 2155TIP3   OH227955   3.853   1.237   7.518 -0.0786 -0.6031 -0.1018
 2155TIP3    H127956   3.931   1.194   7.553 -1.1174 -0.0800  3.2489
 2155TIP3    H227957   3.790   1.165   7.506 -0.4052 -0.5953  1.3367
 2156TIP3   OH227958   2.614   3.015   0.747  0.2345 -0.0803  0.0252
 2156TIP3    H127959   2.569   3.098   0.728 -0.4936 -0.4130  0.2779
 2156TIP3    H227960   2.547   2.959   0.785  0.8430 -0.6249  0.3237
 2157TIP3   OH227961   2.679   3.070  40.833  0.0450  0.3048 -0.2434
 2157TIP3    H127962   2.606   3.017  40.862 -0.3700  0.4238 -1.0373
 2157TIP3    H227963   2.689   3.048  40.740  1.9683 -0.8221  0.1674
 2158TIP3   OH227964   4.363   2.641   0.895 -0.1000 -0.7622 -0.2585
 2158TIP3    H127965   4.418   2.719   0.883 -0.7820 -0.1321  0.5644
 2158TIP3    H227966   4.404   2.574   0.839  0.2969  0.2774 -1.2662
 2159TIP3   OH227967   4.362   4.383  34.099 -0.3697  0.3890  0.6053
 2159TIP3    H127968   4.316   4.453  34.053  0.7069  0.4486 -0.4329
 2159TIP3    H227969   4.360   4.409  34.191  2.5026  3.3825  0.0416
 2160TIP3   OH227970   4.039   0.587  10.133  0.4266 -0.0821  0.0681
 2160TIP3    H127971   4.075   0.630  10.055 -1.4092 -0.0399 -0.8279
 2160TIP3    H227972   3.946   0.611  10.132 -0.1119 -1.9302  1.0262
 2161TIP3   OH227973   1.885   2.335  10.654 -0.0038 -0.0692  0.2948
 2161TIP3    H127974   1.930   2.365  10.733 -0.9223  0.6136  0.5756
 2161TIP3    H227975   1.936   2.371  10.581  0.2970  0.1005  0.5887
 2162TIP3   OH227976   3.842   3.282  28.320 -0.7548 -0.1792  0.2267
 2162TIP3    H127977   3.879   3.319  28.400 -1.0095 -3.8074  2.2500
 2162TIP3    H227978   3.917   3.265  28.263 -0.0880 -0.9211  1.2966
 2163TIP3   OH227979   2.986   4.030  34.930  0.2239  0.2540 -0.2843
 2163TIP3    H127980   3.052   4.062  34.991  2.1968 -0.4498 -1.9366
 2163TIP3    H227981   3.023   4.046  34.843 -0.2152 -3.0840 -1.2581
 2164TIP3   OH227982   4.337   3.584  22.794  0.2510  0.0137 -0.1638
 2164TIP3    H127983   4.320   3.674  22.822 -0.7732 -0.1345 -0.2758
 2164TIP3    H227984   4.284   3.573  22.715  1.0060 -0.4350 -0.6218
 2165TIP3   OH227985   0.690   0.716  33.020  0.0673  0.5350  0.3868
 2165TIP3    H127986   0.603   0.705  33.059 -1.1157 -0.6176 -2.2996
 2165TIP3    H227987   0.704   0.635  32.970  1.8122  1.5255 -0.8411
 2166TIP3   OH227988   4.255   1.273   2.050 -0.1574  0.1838  0.4298
 2166TIP3    H127989   4.179   1.215   2.058  1.4401 -1.7719  2.8295
 2166TIP3    H227990   4.308   1.233   1.981  0.6199 -0.9346  1.6227
 2167TIP3   OH227991   4.334   3.074  26.993 -0.5889 -0.2562 -0.2804
 2167TIP3    H127992   4.424   3.061  27.021 -0.5324  0.9994  0.1928
 2167TIP3    H227993   4.336   3.054  26.899 -0.1394 -1.6126  0.0036
 2168TIP3   OH227994   2.936   2.150  32.678  0.3229  0.1899  0.1065
 2168TIP3    H127995   2.861   2.184  32.727 -0.3230 -0.8975 -0.0842
 2168TIP3    H227996   3.003   2.218  32.684 -0.3503  0.7754  1.0783
 2169TIP3   OH227997   2.458   1.915  28.577  0.0967 -0.1711 -0.7045
 2169TIP3    H127998   2.379   1.883  28.534 -2.1086  2.7220  0.8281
 2169TIP3    H227999   2.461   1.866  28.660  0.8377 -1.3285 -1.3795
 2170TIP3   OH228000   1.074   3.414   6.337 -0.3301  0.0642  0.5694
 2170TIP3    H128001   1.053   3.443   6.426  2.0808 -1.5850  1.7815
 2170TIP3    H228002   1.138   3.477   6.306  0.8042 -0.8037  1.0775
 2171TIP3   OH228003   0.620   1.024  26.732  0.0841 -0.1546 -0.4937
 2171TIP3    H128004   0.676   0.996  26.804 -0.0084 -1.7711 -1.0065
 2171TIP3    H228005   0.655   1.109  26.705  0.5081  0.1787  1.0240
 2172TIP3   OH228006   0.382   1.620  10.626  0.1448  0.0126 -0.3084
 2172TIP3    H128007   0.424   1.545  10.585 -1.9158 -0.1452 -2.3096
 2172TIP3    H228008   0.400   1.693  10.566 -0.4148  0.4508  0.0479
 2173TIP3   OH228009   3.874   2.827  26.330  0.0805  0.4384 -0.0172
 2173TIP3    H128010   3.908   2.914  26.309  2.0478  0.0945  1.4124
 2173TIP3    H228011   3.799   2.843  26.387 -0.8459  1.2010 -1.4023
 2174TIP3   OH228012   2.808   3.767  29.777  0.2203 -0.3979  0.5250
 2174TIP3    H128013   2.868   3.840  29.765 -1.0768  0.7237  0.4963
 2174TIP3    H228014   2.851   3.709  29.839  2.3673 -0.8788 -1.3145
 2175TIP3   OH228015   3.930   3.833  12.768 -0.1134 -0.3487  0.3285
 2175TIP3    H128016   4.004   3.857  12.825  2.0527 -1.4171 -1.8951
 2175TIP3    H228017   3.924   3.738  12.774 -0.9625 -0.3291  0.0050
 2176TIP3   OH228018   3.487   3.900  29.823  0.1961  0.3824 -0.1275
 2176TIP3    H128019   3.467   3.843  29.898  1.0304 -1.1380 -1.0132
 2176TIP3    H228020   3.582   3.904  29.822  0.3550 -1.6662 -2.5102
 2177TIP3   OH228021   2.160   1.213  14.162  0.2260  0.5213 -0.0923
 2177TIP3    H128022   2.120   1.252  14.240 -2.0887  0.4831 -1.1794
 2177TIP3    H228023   2.167   1.120  14.183  0.1578  0.5969  0.2783
 2178TIP3   OH228024   2.105   1.762   2.127  0.6097 -0.1722  0.7842
 2178TIP3    H128025   2.097   1.753   2.222  1.2856 -0.9041  0.7877
 2178TIP3    H228026   2.198   1.780   2.113  0.2297  1.6220  0.3649
 2179TIP3   OH228027   3.308   0.610  30.761 -0.1541 -0.0900 -0.1970
 2179TIP3    H128028   3.213   0.604  30.760 -0.1716 -0.7961  1.6160
 2179TIP3    H228029   3.326   0.703  30.778 -0.5626 -0.1822  0.8073
 2180TIP3   OH228030   1.663   1.681   8.006  0.0847  0.0339  0.0965
 2180TIP3    H128031   1.679   1.610   7.944 -1.5155  0.0039 -0.3279
 2180TIP3    H228032   1.744   1.686   8.058  0.2080 -2.2089  0.2472
 2181TIP3   OH228033   4.134   1.764  39.712  0.3568  0.5407 -0.4134
 2181TIP3    H128034   4.201   1.831  39.698  0.5831  0.0226 -1.9271
 2181TIP3    H228035   4.061   1.812  39.752 -0.1259  2.0898 -2.9075
 2182TIP3   OH228036   3.207   0.480   4.028 -0.0066  0.5161 -0.2611
 2182TIP3    H128037   3.121   0.493   4.070 -1.1665 -0.4534 -2.2096
 2182TIP3    H228038   3.229   0.389   4.046  0.1668  0.4987 -0.5582
 2183TIP3   OH228039   2.526   2.228  33.019  0.4687 -0.6599  0.5042
 2183TIP3    H128040   2.575   2.219  33.100  1.0322  0.9611  0.3953
 2183TIP3    H228041   2.570   2.170  32.957  0.6052 -1.2062  1.0999
 2184TIP3   OH228042   1.787   4.276   8.908  0.1191  0.0391 -0.1935
 2184TIP3    H128043   1.791   4.284   9.003  0.2607  0.2242 -0.2147
 2184TIP3    H228044   1.753   4.361   8.878 -0.4393 -0.2069 -0.2694
 2185TIP3   OH228045   3.983   3.438  26.416 -0.3826 -0.8360 -0.4886
 2185TIP3    H128046   3.994   3.456  26.323  2.3027 -0.6094 -0.1984
 2185TIP3    H228047   3.924   3.508  26.446  0.1156  0.1536 -1.6971
 2186TIP3   OH228048   1.496   0.833  34.495 -0.6228 -0.0942  0.4933
 2186TIP3    H128049   1.479   0.740  34.511  0.5448 -0.2893  0.7189
 2186TIP3    H228050   1.584   0.847  34.529  0.1602  0.5451 -1.6216
 2187TIP3   OH228051   3.736   3.007  31.813  0.9706  0.3401  0.3431
 2187TIP3    H128052   3.800   3.020  31.883 -1.2590  1.1063  2.3437
 2187TIP3    H228053   3.672   3.077  31.825 -0.2622 -0.3579 -1.6143
 2188TIP3   OH228054   1.419   3.620   4.885 -0.7416  0.3683 -0.5255
 2188TIP3    H128055   1.514   3.617   4.899 -0.8060  0.2346 -0.1084
 2188TIP3    H228056   1.404   3.557   4.814 -0.4045  1.1084 -1.2668
 2189TIP3   OH228057   4.346   0.796  25.771  0.6664 -0.3166  0.5343
 2189TIP3    H128058   4.372   0.851  25.845 -1.7286  1.0841  0.4438
 2189TIP3    H228059   4.355   0.706  25.804  0.0378  0.2655  2.4373
 2190TIP3   OH228060   3.201   0.142   0.373  0.3699  0.4067 -0.3925
 2190TIP3    H128061   3.295   0.135   0.392  0.2417 -0.3009 -0.0162
 2190TIP3    H228062   3.180   0.062   0.326  0.2546  1.2156 -1.7833
 2191TIP3   OH228063   2.472   3.534  38.279  0.3453 -0.1872  0.1982
 2191TIP3    H128064   2.437   3.457  38.323  0.0278 -0.5545 -0.6616
 2191TIP3    H228065   2.513   3.586  38.348  0.2271 -0.9432  0.8421
 2192TIP3   OH228066   1.652   3.805   2.001 -0.1324 -0.5779 -0.1407
 2192TIP3    H128067   1.593   3.731   2.019 -0.1784 -0.2597  1.0727
 2192TIP3    H228068   1.727   3.790   2.058 -0.4149  0.6257  0.5780
 2193TIP3   OH228069   4.254   3.321   8.987 -1.4015 -0.3161 -0.0484
 2193TIP3    H128070   4.251   3.234   8.947  0.8986 -0.6893  0.4033
 2193TIP3    H228071   4.302   3.374   8.923 -0.3008 -0.1549  0.8798
 2194TIP3   OH228072   0.524   0.408   0.935  0.1655 -0.6310 -0.9020
 2194TIP3    H128073   0.462   0.424   1.006  0.9263 -1.0224 -0.1440
 2194TIP3    H228074   0.545   0.496   0.902 -2.8822 -0.5346 -3.0616
 2195TIP3   OH228075   0.543   1.637  12.623 -0.1115  0.0513 -0.1482
 2195TIP3    H128076   0.612   1.703  12.620  0.2501 -0.2583  0.8909
 2195TIP3    H228077   0.542   1.607  12.714 -2.3568  0.8153  0.1501
 2196TIP3   OH228078   1.597   1.166  10.920  0.4762  0.0322 -0.5815
 2196TIP3    H128079   1.635   1.186  11.006 -2.4221  2.4908  0.3145
 2196TIP3    H228080   1.507   1.138  10.940 -0.4033  1.0536 -2.8075
 2197TIP3   OH228081   2.841   2.589   9.873 -0.5073  0.6032 -0.5719
 2197TIP3    H128082   2.766   2.539   9.841 -0.3878 -0.6222  0.9795
 2197TIP3    H228083   2.814   2.622   9.958  0.1296  1.5627 -0.7208
 2198TIP3   OH228084   0.241   2.029  12.805 -0.1178  0.2912  0.8537
 2198TIP3    H128085   0.240   1.990  12.717  0.8267  1.2609  0.3897
 2198TIP3    H228086   0.287   1.965  12.859 -0.1212 -0.0178  0.4976
 2199TIP3   OH228087   2.370   4.303  40.482 -0.0226  0.2607 -0.3353
 2199TIP3    H128088   2.276   4.316  40.493 -0.4141 -1.1691 -1.6189
 2199TIP3    H228089   2.410   4.377  40.528 -1.6481 -0.6626  2.8366
 2200TIP3   OH228090   3.997   0.244  32.409  0.2693  0.1983  0.3045
 2200TIP3    H128091   3.969   0.319  32.462 -0.0913  0.2450  0.0464
 2200TIP3    H228092   4.033   0.182  32.473  0.7745  0.6802  0.5029
 2201TIP3   OH228093   0.210   2.833  36.421 -0.3013 -0.0306  0.3827
 2201TIP3    H128094   0.181   2.801  36.336 -0.4097  1.6021 -0.2267
 2201TIP3    H228095   0.299   2.864  36.407 -0.7275  1.3453  0.5386
 2202TIP3   OH228096   3.956   1.253   3.237  0.3579  0.0033 -0.1494
 2202TIP3    H128097   3.952   1.328   3.177  0.9169  1.0090  1.0139
 2202TIP3    H228098   3.925   1.288   3.320  0.5233 -1.1033  0.3951
 2203TIP3   OH228099   1.014   3.008   0.140  0.3713 -0.1983  0.1629
 2203TIP3    H128100   0.951   3.049   0.081  1.5816  1.8636  0.1837
 2203TIP3    H228101   1.061   2.945   0.084 -1.0384 -1.0956 -0.0636
 2204TIP3   OH228102   1.203   3.739   1.848 -0.3245 -0.1362 -0.0026
 2204TIP3    H128103   1.133   3.678   1.870  0.0089 -0.7893 -0.7089
 2204TIP3    H228104   1.194   3.810   1.912 -0.5981 -1.0130  0.9531
 2205TIP3   OH228105   4.376   1.745  28.520  0.1832 -0.2011  0.1416
 2205TIP3    H128106   4.301   1.687  28.508 -0.7791  1.0073  0.0060
 2205TIP3    H228107   4.422   1.743  28.437 -1.6088  1.5616 -0.9870
 2206TIP3   OH228108   1.583   0.981  13.809  0.5153 -0.1514 -0.9118
 2206TIP3    H128109   1.612   0.908  13.863  0.9876  0.0483 -0.8961
 2206TIP3    H228110   1.502   0.949  13.768  0.8052 -0.7464 -1.0373
 2207TIP3   OH228111   3.903   3.623  28.917  0.7576  0.6310 -0.0153
 2207TIP3    H128112   3.860   3.636  29.001 -0.9062 -0.4953 -0.6485
 2207TIP3    H228113   3.995   3.646  28.933  0.8900 -1.2900  2.5631
 2208TIP3   OH228114   3.703   1.345  20.944  0.0216  0.1942 -0.5995
 2208TIP3    H128115   3.696   1.331  21.039 -0.9977 -0.1486 -0.7200
 2208TIP3    H228116   3.737   1.434  20.936 -0.6236  0.5132  0.0782
 2209TIP3   OH228117   1.201   1.689   3.596 -0.4479  0.0880 -0.1239
 2209TIP3    H128118   1.244   1.717   3.515 -0.5119 -0.1588 -0.2430
 2209TIP3    H228119   1.142   1.761   3.618 -0.7094 -0.0112 -0.5019
 2210TIP3   OH228120   4.188   0.649  33.633 -0.0117  0.0794 -0.2593
 2210TIP3    H128121   4.186   0.619  33.724 -0.5488  1.7384  0.3114
 2210TIP3    H228122   4.149   0.577  33.584  1.2026 -1.2780  0.6600
 2211TIP3   OH228123   2.432   0.377  12.803 -0.1254 -0.0760  0.2000
 2211TIP3    H128124   2.457   0.458  12.847  0.8663 -0.5748  0.5855
 2211TIP3    H228125   2.407   0.404  12.714 -0.4695  0.7257  0.5333
 2212TIP3   OH228126   1.544   2.440  10.654  0.1993 -0.0483 -0.1228
 2212TIP3    H128127   1.638   2.454  10.647  0.1292 -0.0550 -1.2237
 2212TIP3    H228128   1.528   2.356  10.611 -0.3417  0.0916 -0.2097
 2213TIP3   OH228129   4.148   2.520  41.289  0.0226  0.3468 -0.4733
 2213TIP3    H128130   4.152   2.590  41.354  0.3217  0.4208 -0.5724
 2213TIP3    H228131   4.082   2.550  41.226 -1.0844 -0.2202  0.3648
 2214TIP3   OH228132   1.113   1.897  11.859  0.1452 -0.1547  0.1171
 2214TIP3    H128133   1.164   1.817  11.876  2.0545  0.7421 -0.9833
 2214TIP3    H228134   1.044   1.896  11.924  0.2009 -2.6303  0.2305
 2215TIP3   OH228135   0.911   3.907  31.377  0.1123 -0.0310  0.3456
 2215TIP3    H128136   0.892   3.849  31.451 -0.7856 -0.4313 -0.1803
 2215TIP3    H228137   0.921   3.994  31.417  1.1735 -0.4938  1.1013
 2216TIP3   OH228138   0.440   1.936  38.137  0.4930  0.1322  0.3579
 2216TIP3    H128139   0.433   1.862  38.197 -0.1175  0.6308  0.9214
 2216TIP3    H228140   0.352   1.974  38.136  0.9336  1.1796  0.5124
 2217TIP3   OH228141   0.892   3.231   2.795 -0.7467 -0.4115 -0.2137
 2217TIP3    H128142   0.883   3.136   2.799 -2.1541 -0.2670  1.5486
 2217TIP3    H228143   0.970   3.246   2.742 -0.5196 -2.5398 -0.5584
 2218TIP3   OH228144   2.237   0.728   0.079 -0.1173 -0.2709 -0.2637
 2218TIP3    H128145   2.239   0.666   0.152 -0.9324  0.7633  0.6668
 2218TIP3    H228146   2.186   0.802   0.112  1.4291  1.2216 -1.0758
 2219TIP3   OH228147   1.842   0.540   8.166 -0.5743 -0.3364  0.0260
 2219TIP3    H128148   1.828   0.446   8.156 -0.2865 -0.1894 -2.2950
 2219TIP3    H228149   1.757   0.579   8.144 -0.6103 -0.0420  0.6821
 2220TIP3   OH228150   1.610   0.255  12.241 -0.8471 -0.3495 -0.1917
 2220TIP3    H128151   1.600   0.264  12.146 -1.3170  0.8109 -0.0520
 2220TIP3    H228152   1.535   0.201  12.268 -0.6477 -0.7818 -0.4851
 2221TIP3   OH228153   3.480   2.445  31.526  0.4380  0.3543 -0.3837
 2221TIP3    H128154   3.442   2.532  31.513 -0.4154 -0.0152 -0.4072
 2221TIP3    H228155   3.410   2.384  31.501 -0.5582 -0.4263  3.5815
 2222TIP3   OH228156   4.389   0.242   8.564 -0.1813 -0.7839 -0.8392
 2222TIP3    H128157   4.376   0.149   8.580 -1.5638 -0.9403 -2.4833
 2222TIP3    H228158   4.341   0.259   8.483  2.4786  0.7422 -2.2591
 2223TIP3   OH228159   1.821   4.213  38.926  0.1346 -0.0178  0.5446
 2223TIP3    H128160   1.836   4.119  38.920 -2.8332 -0.5898  0.6282
 2223TIP3    H228161   1.775   4.236  38.845  1.9006  1.6589 -0.0584
 2224TIP3   OH228162   1.333   0.326  27.757  0.7612  0.2356  0.2400
 2224TIP3    H128163   1.302   0.244  27.719 -0.7092  0.2494  1.3270
 2224TIP3    H228164   1.425   0.311  27.775  1.1473 -0.2966 -1.8602
 2225TIP3   OH228165   0.316   0.548  27.030  0.1997  0.6219  0.3415
 2225TIP3    H128166   0.343   0.547  27.122  0.5744 -2.4764  0.3161
 2225TIP3    H228167   0.397   0.531  26.982  0.0760  2.5935 -0.6492
 2226TIP3   OH228168   2.606   3.604  12.741 -0.1712  0.1472 -0.0117
 2226TIP3    H128169   2.685   3.560  12.711 -0.7947  0.7887 -2.8596
 2226TIP3    H228170   2.585   3.668  12.672 -2.0809  1.3843  1.5754
 2227TIP3   OH228171   0.151   3.785  21.574  0.3739  0.7357  0.1074
 2227TIP3    H128172   0.134   3.865  21.624 -0.5701 -0.2083  1.3221
 2227TIP3    H228173   0.072   3.733  21.582  1.6326 -1.1505  0.8919
 2228TIP3   OH228174   2.210   3.675  16.498  0.0741 -0.4915 -0.2279
 2228TIP3    H128175   2.258   3.674  16.581 -1.4831 -1.7246  0.7111
 2228TIP3    H228176   2.216   3.765  16.468  2.1003 -0.3845  0.3403
 2229TIP3   OH228177   1.267   2.896  35.237  0.1277 -0.4110  0.3166
 2229TIP3    H128178   1.335   2.903  35.304  1.0182  0.1706 -0.6022
 2229TIP3    H228179   1.223   2.981  35.238  0.0489 -0.4507  0.2553
 2230TIP3   OH228180   3.293   2.836   9.296  0.4365  0.6770 -0.4447
 2230TIP3    H128181   3.316   2.744   9.313  0.0995  0.3708 -1.5291
 2230TIP3    H228182   3.298   2.878   9.381  2.7552  0.1325 -0.2364
 2231TIP3   OH228183   2.061   3.255  33.293  0.1237 -0.5784  0.1263
 2231TIP3    H128184   2.115   3.324  33.254 -1.3733 -0.7340 -2.4042
 2231TIP3    H228185   2.004   3.301  33.354 -1.2689  0.6194 -1.9613
 2232TIP3   OH228186   0.897   1.053  29.424  0.3455 -0.3137  0.0363
 2232TIP3    H128187   0.943   0.986  29.475  1.0903  0.2148  0.0730
 2232TIP3    H228188   0.808   1.020  29.416  0.8595 -1.6334 -0.5235
 2233TIP3   OH228189   3.187   1.725   3.522  0.3297  0.3948  0.0878
 2233TIP3    H128190   3.224   1.673   3.594 -1.4417 -0.5909  0.3620
 2233TIP3    H228191   3.229   1.690   3.443  0.8070  0.0852  0.4740
 2234TIP3   OH228192   1.394   3.549  39.135 -0.4109  0.4834  0.0962
 2234TIP3    H128193   1.437   3.632  39.117 -4.4507  2.8983  0.2406
 2234TIP3    H228194   1.344   3.565  39.215  0.9907 -3.2116  1.9421
 2235TIP3   OH228195   2.175   0.928   8.530  0.1056 -0.4320  0.0863
 2235TIP3    H128196   2.105   0.959   8.472  1.0607  2.0483  0.1054
 2235TIP3    H228197   2.256   0.957   8.487  0.9937 -1.1921  1.1954
 2236TIP3   OH228198   0.294   2.570  39.511  0.3627  0.1220 -0.0445
 2236TIP3    H128199   0.231   2.555  39.441  2.1097 -1.5642 -1.3591
 2236TIP3    H228200   0.254   2.533  39.589 -0.0086 -1.6116 -1.0102
 2237TIP3   OH228201   4.073   1.076   5.229 -0.6337 -0.2595  0.2293
 2237TIP3    H128202   4.076   1.128   5.148 -0.8170  0.8547  0.9157
 2237TIP3    H228203   4.121   0.996   5.207 -1.8892 -0.6326 -1.4157
 2238TIP3   OH228204   3.828   1.605  25.421  0.0478 -0.1462  0.0432
 2238TIP3    H128205   3.829   1.521  25.467 -0.7507 -0.4263 -0.4457
 2238TIP3    H228206   3.904   1.652  25.457  0.4164 -1.0083  0.4300
 2239TIP3   OH228207   0.939   1.274  11.449  0.1910 -0.3618 -0.0152
 2239TIP3    H128208   0.928   1.341  11.518  0.4469  0.0758 -0.3909
 2239TIP3    H228209   0.961   1.325  11.371 -3.6594 -0.4729 -1.3777
 2240TIP3   OH228210   3.491   1.296  27.793  0.4812 -0.6028  0.2099
 2240TIP3    H128211   3.585   1.306  27.776  0.1138  2.5213 -0.6457
 2240TIP3    H228212   3.480   1.329  27.882  0.0714  0.4638 -0.2100
 2241TIP3   OH228213   3.540   1.187  36.054  0.5557 -0.0262  0.6703
 2241TIP3    H128214   3.496   1.210  36.136 -0.4321 -0.9910  0.4253
 2241TIP3    H228215   3.522   1.261  35.996 -0.4450 -0.2498  0.6873
 2242TIP3   OH228216   1.273   2.913   3.101 -0.1112 -0.6405  0.1385
 2242TIP3    H128217   1.233   2.998   3.085 -0.8281 -1.2308 -1.3072
 2242TIP3    H228218   1.367   2.930   3.097 -0.2488  0.0487 -0.3394
 2243TIP3   OH228219   2.357   1.904   3.396  0.2938  0.6978 -0.2960
 2243TIP3    H128220   2.441   1.947   3.381 -0.3819  2.6373  1.1225
 2243TIP3    H228221   2.293   1.964   3.359 -0.7689  1.5753  2.6896
 2244TIP3   OH228222   4.339   3.807  10.397  0.2762  0.2435 -0.1174
 2244TIP3    H128223   4.362   3.900  10.392  0.8078  0.0518 -1.9162
 2244TIP3    H228224   4.265   3.797  10.337 -1.6319 -0.0208  2.1474
 2245TIP3   OH228225   3.706   3.563   8.433  0.3525 -0.3263 -0.3066
 2245TIP3    H128226   3.645   3.620   8.480  0.5871 -0.9394  0.7982
 2245TIP3    H228227   3.658   3.535   8.355 -0.1902  0.4439 -0.2571
 2246TIP3   OH228228   3.784   2.033   7.020 -0.4292 -0.1811  0.3589
 2246TIP3    H128229   3.843   2.082   7.077  1.1164 -1.2948 -0.2303
 2246TIP3    H228230   3.732   2.100   6.976  1.9084  1.0042 -0.7520
 2247TIP3   OH228231   1.062   1.799  13.138 -0.1334  0.0385  0.2478
 2247TIP3    H128232   1.115   1.875  13.117  0.3772 -0.4726 -0.3639
 2247TIP3    H228233   0.973   1.832  13.144  0.0951  0.6945  0.0820
 2248TIP3   OH228234   3.898   3.801   5.113  0.3492  0.3153 -1.0887
 2248TIP3    H128235   3.834   3.820   5.181  1.0791 -0.7825 -0.0639
 2248TIP3    H228236   3.847   3.760   5.043 -0.2762  0.6865 -0.8567
 2249TIP3   OH228237   2.427   3.474  29.529  0.2930 -0.2980 -0.3243
 2249TIP3    H128238   2.427   3.569  29.522 -1.1450 -0.1200  1.4149
 2249TIP3    H228239   2.386   3.444  29.448 -0.4037  0.6503 -0.3377
 2250TIP3   OH228240   4.052   0.727   9.911 -0.6073 -0.4036  0.5308
 2250TIP3    H128241   3.984   0.791   9.929  2.2023  2.4245  1.9837
 2250TIP3    H228242   4.019   0.678   9.836 -3.8357  1.3133  0.6515
 2251TIP3   OH228243   4.178   3.385  37.848  0.1056  0.5799  0.0571
 2251TIP3    H128244   4.257   3.433  37.825 -0.1177  0.7993 -0.2570
 2251TIP3    H228245   4.110   3.452  37.855 -0.0578  0.3899  0.3030
 2252TIP3   OH228246   0.820   3.049   4.440  0.5788  0.3185 -0.1265
 2252TIP3    H128247   0.799   2.976   4.497  0.0307  0.1275 -0.5613
 2252TIP3    H228248   0.738   3.068   4.394  0.8710  0.8085 -0.4584
 2253TIP3   OH228249   0.355   4.327  40.145 -0.3306 -0.2136  0.3098
 2253TIP3    H128250   0.301   4.331  40.223 -2.3762  0.2149 -1.0497
 2253TIP3    H228251   0.297   4.294  40.076  1.0762  0.4455 -1.2867
 2254TIP3   OH228252   3.930   2.892   0.821  0.2020  0.7692  0.0636
 2254TIP3    H128253   4.008   2.889   0.877  0.2879  0.5778 -0.0670
 2254TIP3    H228254   3.948   2.964   0.760  0.7403  0.0561 -0.6443
 2255TIP3   OH228255   3.196   2.378  38.918  0.2724  0.0794 -0.0604
 2255TIP3    H128256   3.246   2.328  38.983 -2.1641 -1.5857  0.6810
 2255TIP3    H228257   3.125   2.418  38.967 -0.4668  0.4762 -1.4027
 2256TIP3   OH228258   1.808   1.298  11.571 -0.1789 -0.5080  0.8018
 2256TIP3    H128259   1.842   1.326  11.656 -0.2965 -1.1389  1.0592
 2256TIP3    H228260   1.881   1.252  11.529 -0.0446  0.0057  0.4543
 2257TIP3   OH228261   2.690   3.050   8.705  0.2770 -0.9057 -0.0493
 2257TIP3    H128262   2.672   3.143   8.693 -2.0772 -1.1993  0.7137
 2257TIP3    H228263   2.721   3.043   8.796 -0.8364 -0.9966  0.3364
 2258TIP3   OH228264   0.801   1.448   9.640  0.4967  0.0417  0.2057
 2258TIP3    H128265   0.721   1.490   9.670  0.2422  2.0042 -2.8511
 2258TIP3    H228266   0.780   1.355   9.637 -1.2340  0.3851  0.6556
 2259TIP3   OH228267   2.389   3.600  37.352  0.0311 -0.0204 -0.0729
 2259TIP3    H128268   2.407   3.515  37.392  0.8406 -0.4450 -1.3043
 2259TIP3    H228269   2.463   3.616  37.293 -1.4780  0.1816 -2.0239
 2260TIP3   OH228270   0.555   2.215  31.258 -0.1080 -0.1155  0.0433
 2260TIP3    H128271   0.481   2.177  31.305  1.4995 -2.4867  0.7851
 2260TIP3    H228272   0.602   2.266  31.324 -0.4368  0.5000 -0.1821
 2261TIP3   OH228273   1.676   1.079  38.802  0.5217 -0.2340 -0.3791
 2261TIP3    H128274   1.705   1.170  38.792 -0.5829  0.3170  1.0455
 2261TIP3    H228275   1.736   1.041  38.866 -0.9286  0.5028  1.5168
 2262TIP3   OH228276   0.987   3.932  13.363 -0.0749 -1.2619  0.1448
 2262TIP3    H128277   0.997   3.845  13.325 -0.6822 -1.3016  0.0660
 2262TIP3    H228278   1.073   3.952  13.401  1.8213  0.2686 -4.2628
 2263TIP3   OH228279   1.252   3.731   6.923  0.3727  0.0668 -0.7697
 2263TIP3    H128280   1.236   3.824   6.909 -0.5740  0.0524  0.0869
 2263TIP3    H228281   1.177   3.688   6.882  0.9433 -0.3413 -1.3984
 2264TIP3   OH228282   0.831   2.848  28.881 -0.4201 -0.3424 -0.3515
 2264TIP3    H128283   0.810   2.812  28.795 -1.3666 -0.0190 -0.2719
 2264TIP3    H228284   0.924   2.831  28.893 -0.0418  0.5289 -1.8860
 2265TIP3   OH228285   2.483   0.174   6.861  0.6845  1.2455  0.3555
 2265TIP3    H128286   2.405   0.228   6.850  0.5847  0.9180 -0.7384
 2265TIP3    H228287   2.460   0.111   6.928 -0.4362  0.4172 -0.7628
 2266TIP3   OH228288   3.149   0.780  40.864 -0.2006 -0.2264  0.1472
 2266TIP3    H128289   3.148   0.726  40.943  0.4580 -0.7287 -0.1759
 2266TIP3    H228290   3.057   0.805  40.852 -0.4929 -1.0907  0.4415
 2267TIP3   OH228291   1.233   1.427  38.902 -0.0364 -0.2953 -0.5555
 2267TIP3    H128292   1.189   1.473  38.831 -0.3340 -0.9467 -0.7977
 2267TIP3    H228293   1.303   1.378  38.860  0.0669 -0.3345 -0.3424
 2268TIP3   OH228294   0.725   3.465   6.641  0.9502 -0.5444  0.1964
 2268TIP3    H128295   0.778   3.416   6.578  0.4357 -0.9979  0.1113
 2268TIP3    H228296   0.750   3.556   6.627  0.4759 -0.5866 -1.0219
 2269TIP3   OH228297   3.787   1.480   9.996 -0.3399  0.5277 -0.6205
 2269TIP3    H128298   3.804   1.450  10.086  1.0312 -0.3440 -1.1290
 2269TIP3    H228299   3.717   1.545  10.005  0.1639  0.8950  1.1523
 2270TIP3   OH228300   0.952   2.344   6.850 -0.3121  0.0611  0.6725
 2270TIP3    H128301   0.920   2.370   6.763  0.5407 -2.1409 -0.3713
 2270TIP3    H228302   1.027   2.287   6.832  1.5119  1.5692  2.9499
 2271TIP3   OH228303   2.598   2.418  36.024 -0.3800  0.0824 -0.7188
 2271TIP3    H128304   2.659   2.438  35.953 -1.7871  0.5099 -1.8496
 2271TIP3    H228305   2.550   2.500  36.039  0.8380  0.4521  1.7536
 2272TIP3   OH228306   1.309   0.747   5.269 -0.1108 -0.2075  0.3592
 2272TIP3    H128307   1.374   0.783   5.331  0.0993 -0.6870  0.4203
 2272TIP3    H228308   1.249   0.820   5.253 -0.2185 -0.0946  1.1962
 2273TIP3   OH228309   1.597   4.104  10.337 -0.1160 -0.3388  0.3575
 2273TIP3    H128310   1.554   4.186  10.360  0.4805  0.2345 -0.5016
 2273TIP3    H228311   1.686   4.113  10.370 -0.2304 -0.9280  0.8566
 2274TIP3   OH228312   4.399   1.949  33.913 -0.1864  0.4418 -0.6484
 2274TIP3    H128313   4.330   1.889  33.941  0.4545  0.9768  2.3860
 2274TIP3    H228314   4.480   1.901  33.930  0.2787  1.4264 -0.0561
 2275TIP3   OH228315   0.471   2.776  39.570 -0.1969 -0.1313  0.2807
 2275TIP3    H128316   0.415   2.709  39.529 -2.6184 -0.8334  4.1723
 2275TIP3    H228317   0.547   2.728  39.602 -1.7134 -1.1380  2.6564
 2276TIP3   OH228318   0.801   1.147  13.759 -0.0442 -0.4771 -0.3412
 2276TIP3    H128319   0.876   1.143  13.700 -0.7346  2.9985 -1.6828
 2276TIP3    H228320   0.820   1.222  13.816 -1.6588 -0.7122  0.5559
 2277TIP3   OH228321   3.775   3.638   4.587 -0.3241  0.1807  0.0968
 2277TIP3    H128322   3.726   3.634   4.505  0.4874  0.4456 -0.4176
 2277TIP3    H228323   3.863   3.667   4.561 -0.7080  2.7489  1.3355
 2278TIP3   OH228324   1.002   1.276  33.449 -0.4639 -0.9657 -1.0846
 2278TIP3    H128325   1.067   1.210  33.427  1.5076  0.9800 -1.3881
 2278TIP3    H228326   0.943   1.277  33.373  0.6685 -0.9737 -1.9918
 2279TIP3   OH228327   1.817   0.902  40.682 -0.2920 -0.6310  0.1969
 2279TIP3    H128328   1.904   0.940  40.693  0.1294 -1.4427 -0.1738
 2279TIP3    H228329   1.798   0.912  40.588 -0.2597 -1.1441  0.1351
 2280TIP3   OH228330   2.667   0.098   8.650 -0.1540  0.2940 -0.3592
 2280TIP3    H128331   2.595   0.081   8.590  0.2527 -0.7382 -0.5748
 2280TIP3    H228332   2.735   0.036   8.625 -0.6390 -1.5119  2.3283
 2281TIP3   OH228333   3.940   1.757  38.422  0.1870  0.0834 -0.0683
 2281TIP3    H128334   3.893   1.764  38.505 -2.0501 -2.8244 -0.9338
 2281TIP3    H228335   3.907   1.677  38.382  1.8275  0.8840 -3.4004
 2282TIP3   OH228336   4.113   0.079  35.106  0.0115 -0.4922 -0.3533
 2282TIP3    H128337   4.085   0.050  35.019  0.2781 -2.7669  0.2752
 2282TIP3    H228338   4.205   0.055  35.111  0.4449  1.0988  0.0017
 2283TIP3   OH228339   2.767   3.366   7.626  0.8701 -0.3826  0.0167
 2283TIP3    H128340   2.705   3.301   7.595  0.0503 -0.4978  1.8047
 2283TIP3    H228341   2.842   3.316   7.656  0.7119 -0.4296  0.3358
 2284TIP3   OH228342   3.147   1.357  28.824  0.1725  0.1898 -0.3868
 2284TIP3    H128343   3.195   1.323  28.900 -0.3081  1.2539  0.4259
 2284TIP3    H228344   3.104   1.280  28.787  0.6345 -0.3999  0.2562
 2285TIP3   OH228345   2.908   1.844  10.844  0.2614 -0.2135 -0.2699
 2285TIP3    H128346   2.945   1.932  10.850  1.3590 -0.5818 -1.3497
 2285TIP3    H228347   2.813   1.858  10.844  0.4077  1.1493 -2.2558
 2286TIP3   OH228348   1.836   4.174  38.221  0.4985  0.5969  0.1555
 2286TIP3    H128349   1.861   4.082  38.209 -1.2691  0.4400 -4.0406
 2286TIP3    H228350   1.749   4.170  38.259 -0.1851  0.3664 -1.3426
 2287TIP3   OH228351   2.404   0.211  26.966 -0.6773  0.4828  0.1066
 2287TIP3    H128352   2.420   0.129  26.919  0.1387  0.5350  0.2798
 2287TIP3    H228353   2.314   0.236  26.942 -0.9277 -0.4495  0.0458
 2288TIP3   OH228354   1.187   3.181   2.998  0.2940  0.4204 -0.1445
 2288TIP3    H128355   1.275   3.160   2.965  0.3617  1.2774 -0.5337
 2288TIP3    H228356   1.173   3.272   2.973 -0.6885  0.3123 -0.0332
 2289TIP3   OH228357   0.522   3.246  26.604 -0.1502  0.2831  0.1036
 2289TIP3    H128358   0.440   3.235  26.652  0.2381  0.1923  0.7539
 2289TIP3    H228359   0.500   3.305  26.531 -0.0599  3.1831  2.2490
 2290TIP3   OH228360   1.544   4.348   8.634  0.5256 -0.1610 -0.2742
 2290TIP3    H128361   1.526   4.289   8.707  0.1516  0.2108 -0.0631
 2290TIP3    H228362   1.590   4.422   8.673 -0.3293  0.3896 -0.2819
 2291TIP3   OH228363   3.057   0.631   4.724  0.3603  0.4003  0.2579
 2291TIP3    H128364   3.108   0.564   4.679  1.3162  0.1119  1.7182
 2291TIP3    H228365   3.122   0.691   4.760 -0.4443  1.5879 -0.1845
 2292TIP3   OH228366   3.936   4.085  30.640  0.8225  0.1281 -0.4894
 2292TIP3    H128367   3.951   4.059  30.549  0.6852 -0.2561 -0.4037
 2292TIP3    H228368   4.017   4.130  30.666  2.7352 -3.5442  0.5732
 2293TIP3   OH228369   0.772   1.555  40.465 -0.2960 -0.0587 -0.0194
 2293TIP3    H128370   0.842   1.592  40.411 -0.0845 -1.2864 -0.6178
 2293TIP3    H228371   0.710   1.519  40.402 -1.2359  0.5828  0.5176
 2294TIP3   OH228372   0.020   0.743  26.333  0.1953 -0.0963 -0.0059
 2294TIP3    H128373  -0.064   0.767  26.295 -0.2073 -0.0435  0.8905
 2294TIP3    H228374  -0.003   0.693  26.411  0.9771  0.7567  0.7953
 2295TIP3   OH228375   1.535   3.365  30.634 -0.4833  0.2123  0.0894
 2295TIP3    H128376   1.517   3.409  30.717  0.2000  0.1070  0.2981
 2295TIP3    H228377   1.569   3.434  30.578  1.4457 -0.1886  0.6999
 2296TIP3   OH228378   1.586   3.497  19.373 -0.8410  0.0276  0.1060
 2296TIP3    H128379   1.613   3.409  19.346 -1.2442 -0.3058  0.7692
 2296TIP3    H228380   1.499   3.485  19.412  0.5312  0.0867  3.5803
 2297TIP3   OH228381   3.123   0.560  41.661  0.1222 -0.2769 -0.3463
 2297TIP3    H128382   3.048   0.513  41.624  1.2772 -1.1117 -1.7489
 2297TIP3    H228383   3.174   0.493  41.707  0.2303  0.2053  0.2529
 2298TIP3   OH228384   0.028   3.626   6.471 -0.1644  0.6323 -0.1201
 2298TIP3    H128385   0.049   3.543   6.428 -2.1439 -0.0109  0.0687
 2298TIP3    H228386   0.101   3.684   6.448  2.0459 -1.5309  0.9506
 2299TIP3   OH228387   4.125   3.988   5.933  0.3168 -0.3122 -0.3496
 2299TIP3    H128388   4.137   3.906   5.980 -0.9831 -2.7126 -3.7952
 2299TIP3    H228389   4.214   4.016   5.911  0.7549 -1.6407 -0.3707
 2300TIP3   OH228390   2.200   1.444   0.070 -0.4575 -0.0458 -0.6453
 2300TIP3    H128391   2.126   1.396   0.033 -0.0282  0.6252 -2.4506
 2300TIP3    H228392   2.277   1.403   0.033 -0.0611  1.5092 -1.6271
 2301TIP3   OH228393   2.424   1.241  38.655  0.4453 -0.4407  0.4144
 2301TIP3    H128394   2.342   1.290  38.656  0.2952 -0.5923  3.1140
 2301TIP3    H228395   2.483   1.295  38.602 -0.6882  0.8904  0.4387
 2302TIP3   OH228396   0.143   0.971  11.090 -0.4094 -0.0807  0.6605
 2302TIP3    H128397   0.155   0.983  10.996  2.0164 -0.2114  0.8991
 2302TIP3    H228398   0.062   0.920  11.097 -1.2323  0.8553 -1.2681
 2303TIP3   OH228399   0.080   2.135  22.036  0.0388 -0.3368 -0.0627
 2303TIP3    H128400   0.167   2.142  21.998 -0.0290 -1.1082 -0.3947
 2303TIP3    H228401   0.062   2.041  22.038  0.2113 -0.3943  2.3055
 2304TIP3   OH228402   0.669   1.668   1.828  0.0490  0.6518 -0.0444
 2304TIP3    H128403   0.601   1.724   1.790 -1.2262 -0.7540  0.0485
 2304TIP3    H228404   0.676   1.697   1.919  0.4899  1.6230 -0.3726
 2305TIP3   OH228405   3.304   3.270  38.440  0.4506 -0.4169  0.1500
 2305TIP3    H128406   3.321   3.350  38.490  3.3247 -2.0547  2.0688
 2305TIP3    H228407   3.379   3.261  38.382  0.2305 -1.7624  0.0434
 2306TIP3   OH228408   2.117   4.128   3.869 -0.1193 -0.4822 -0.1043
 2306TIP3    H128409   2.160   4.199   3.821 -0.8689 -0.2667 -0.4879
 2306TIP3    H228410   2.082   4.071   3.801 -0.4565 -0.6380  0.1940
 2307TIP3   OH228411   2.577   1.992   7.316 -0.6157  0.0739  0.0511
 2307TIP3    H128412   2.614   2.075   7.346 -1.7387  0.6064  0.0488
 2307TIP3    H228413   2.639   1.959   7.251 -0.6144  1.3996 -0.6448
 2308TIP3   OH228414   0.094   2.689  12.024  0.4320 -0.4703 -0.7655
 2308TIP3    H128415   0.031   2.723  11.960 -1.2811 -1.6462  0.2190
 2308TIP3    H228416   0.055   2.710  12.109  2.1211  0.0659 -0.0980
 2309TIP3   OH228417   0.512   0.602  35.695 -0.1345  0.3798 -0.6600
 2309TIP3    H128418   0.534   0.594  35.603 -2.1511  0.7162 -1.2267
 2309TIP3    H228419   0.450   0.531  35.711  0.4811  0.0873  0.5520
 2310TIP3   OH228420   3.692   0.665  11.461  0.8649  0.2965  0.2334
 2310TIP3    H128421   3.607   0.685  11.500  0.7554  1.3215 -0.5021
 2310TIP3    H228422   3.675   0.593  11.401  1.2243 -2.0606  2.7579
 2311TIP3   OH228423   3.712   3.281  35.497  0.4384  0.3548  0.3362
 2311TIP3    H128424   3.696   3.197  35.541  1.3441 -0.2258 -0.3971
 2311TIP3    H228425   3.646   3.340  35.534 -1.9732 -1.3126 -1.0070
 2312TIP3   OH228426   3.888   1.165  12.621 -0.3088 -0.2012  0.6409
 2312TIP3    H128427   3.838   1.112  12.559 -2.1321 -0.1086  1.9482
 2312TIP3    H228428   3.946   1.102  12.664  1.0256 -0.2493 -1.1543
 2313TIP3   OH228429   4.283   2.953  13.362 -0.4206 -0.3215 -0.7028
 2313TIP3    H128430   4.190   2.958  13.340 -0.2029  0.5226 -1.5007
 2313TIP3    H228431   4.320   3.036  13.330  0.4860 -0.3514  0.1940
 2314TIP3   OH228432   1.188   0.473   8.099 -0.0389 -0.0809  0.0880
 2314TIP3    H128433   1.215   0.402   8.157  0.3045 -0.8539 -0.9726
 2314TIP3    H228434   1.156   0.428   8.020  0.1195  0.9412 -0.5777
 2315TIP3   OH228435   3.807   3.842   1.771  0.0454  0.5063  0.3627
 2315TIP3    H128436   3.822   3.864   1.863  1.4938  2.0387 -0.1615
 2315TIP3    H228437   3.750   3.912   1.739 -0.0137  0.2821 -0.0267
 2316TIP3   OH228438   3.346   0.649   4.776 -0.7535 -0.0162 -0.6378
 2316TIP3    H128439   3.432   0.688   4.758 -0.7005 -0.6099 -1.7626
 2316TIP3    H228440   3.316   0.619   4.691 -2.2470  0.4889 -0.3149
 2317TIP3   OH228441   3.626   1.105   1.462 -0.2731  0.1186 -0.1020
 2317TIP3    H128442   3.716   1.103   1.494 -0.3352  0.9844  0.1365
 2317TIP3    H228443   3.623   1.180   1.404 -0.6456 -0.3704 -0.7271
 2318TIP3   OH228444   3.155   1.046  35.132  0.1650  0.0281  0.2821
 2318TIP3    H128445   3.226   1.015  35.188  0.0089 -1.7163 -0.3976
 2318TIP3    H228446   3.157   1.141  35.140  0.4689 -0.1006  2.8359
 2319TIP3   OH228447   0.414   1.383   9.179  0.1451 -0.1271  0.3182
 2319TIP3    H128448   0.357   1.319   9.222 -2.1067  1.2209 -0.5285
 2319TIP3    H228449   0.467   1.330   9.119 -0.7980 -1.3482  0.5177
 2320TIP3   OH228450   2.375   3.072  40.675 -0.0552 -0.2329 -0.5518
 2320TIP3    H128451   2.413   3.138  40.617 -2.9657  0.8707 -1.3877
 2320TIP3    H228452   2.288   3.056  40.640 -1.4605 -0.5471  2.7255
 2321TIP3   OH228453   0.751   3.986   7.458 -0.3117  0.0306 -0.1616
 2321TIP3    H128454   0.742   3.936   7.540 -2.8220 -1.4469 -1.2164
 2321TIP3    H228455   0.841   3.971   7.430 -0.0353 -1.1857  1.2462
 2322TIP3   OH228456   2.964   3.827  29.196 -0.0598  0.3648  0.2720
 2322TIP3    H128457   2.903   3.765  29.237 -1.7348  2.4011  1.0454
 2322TIP3    H228458   3.009   3.868  29.270 -0.8340  1.8447 -0.0374
 2323TIP3   OH228459   2.172   3.234  36.948 -0.1800 -0.2749 -0.0791
 2323TIP3    H128460   2.079   3.245  36.967 -0.3596 -1.6418 -0.0766
 2323TIP3    H228461   2.176   3.158  36.890  0.9682 -0.4820  0.2449
 2324TIP3   OH228462   3.819   0.891   5.550 -0.2912 -0.1158 -0.3094
 2324TIP3    H128463   3.738   0.908   5.598 -0.1695  0.1661 -0.1987
 2324TIP3    H228464   3.809   0.943   5.470 -0.6434 -0.8528 -0.7563
 2325TIP3   OH228465   4.331   2.627   3.488 -0.6931 -0.2749  0.2597
 2325TIP3    H128466   4.292   2.710   3.463  0.1737  0.7953  2.2237
 2325TIP3    H228467   4.367   2.592   3.407  1.5038  2.6961 -0.2320
 2326TIP3   OH228468   1.451   0.607   9.874  0.3380  0.3839 -0.8517
 2326TIP3    H128469   1.454   0.512   9.869  2.8691  0.3386  0.0253
 2326TIP3    H228470   1.367   0.627   9.917 -0.1297 -1.4259 -0.8657
 2327TIP3   OH228471   3.273   0.880   3.021 -0.1203 -0.0423 -0.0822
 2327TIP3    H128472   3.327   0.959   3.028 -0.5489  0.5703 -2.7084
 2327TIP3    H228473   3.240   0.881   2.931 -2.3389 -1.8156  0.6112
 2328TIP3   OH228474   2.043   0.548  11.896 -0.1167 -0.1771  0.2271
 2328TIP3    H128475   1.961   0.498  11.890 -0.2221 -0.1430  1.2308
 2328TIP3    H228476   2.036   0.597  11.977  0.6881  0.2226  0.0690
 2329TIP3   OH228477   2.849   3.286   4.024 -0.5345  0.8147  0.4440
 2329TIP3    H128478   2.883   3.331   3.947 -0.6242 -0.0318 -0.1123
 2329TIP3    H228479   2.757   3.313   4.028 -1.0321 -0.4937 -0.8360
 2330TIP3   OH228480   1.257   3.008  29.994  0.1094  0.1086 -0.1107
 2330TIP3    H128481   1.338   2.993  29.945 -0.3713  0.4317 -1.0266
 2330TIP3    H228482   1.191   2.954  29.950 -0.0654 -0.6039  0.9847
 2331TIP3   OH228483   3.711   0.321  28.275  0.4704  0.3395  0.1230
 2331TIP3    H128484   3.701   0.289  28.364 -0.1340  0.7748  0.2254
 2331TIP3    H228485   3.677   0.251  28.220 -2.4632  1.3486  0.4200
 2332TIP3   OH228486   0.178   3.477  22.705  0.2355 -0.0444  1.0214
 2332TIP3    H128487   0.104   3.512  22.753  0.6069  0.6000  1.1316
 2332TIP3    H228488   0.147   3.472  22.614 -0.2669 -0.7085  1.2253
 2333TIP3   OH228489   3.829   3.972  35.120 -0.0344  0.0670 -0.3220
 2333TIP3    H128490   3.827   3.990  35.026 -0.2311  0.3797 -0.2600
 2333TIP3    H228491   3.917   3.938  35.136 -0.5015 -1.5427 -0.8977
 2334TIP3   OH228492   3.442   4.197   1.174 -0.8240  0.1530  0.5264
 2334TIP3    H128493   3.520   4.142   1.172  0.7394  2.2248  0.9538
 2334TIP3    H228494   3.382   4.153   1.235 -0.3989 -1.9169 -0.4470
 2335TIP3   OH228495   3.997   0.236  33.831 -0.4484  0.0561 -0.8957
 2335TIP3    H128496   4.003   0.206  33.740 -0.3590  0.9911 -1.2035
 2335TIP3    H228497   3.904   0.227  33.853 -0.3317 -0.9873 -0.7898
 2336TIP3   OH228498   1.363   2.228   6.329  0.2740  0.0159 -0.2173
 2336TIP3    H128499   1.331   2.265   6.411  1.0618  1.5037 -0.5475
 2336TIP3    H228500   1.284   2.212   6.277 -0.6340 -4.2861  2.0341
 2337TIP3   OH228501   0.494   0.741  40.140  0.3324 -0.1541 -0.0976
 2337TIP3    H128502   0.476   0.772  40.051 -2.1111 -3.3618 -0.9305
 2337TIP3    H228503   0.430   0.785  40.195 -1.8476 -2.0498 -0.9533
 2338TIP3   OH228504   1.122   3.253   3.508 -0.1290  0.6272 -0.9416
 2338TIP3    H128505   1.200   3.279   3.557 -0.7170 -0.2864  0.5462
 2338TIP3    H228506   1.054   3.242   3.574 -1.3250  0.6377 -2.1191
 2339TIP3   OH228507   3.570   0.166  26.832  0.2365 -0.4633  0.6217
 2339TIP3    H128508   3.576   0.258  26.805 -0.9455 -0.4607  0.2830
 2339TIP3    H228509   3.532   0.170  26.920 -0.0486 -0.6255  0.5090
 2340TIP3   OH228510   4.168   1.476  34.974  0.5735  0.1815 -0.8020
 2340TIP3    H128511   4.244   1.525  35.006  1.1620 -1.1702 -0.0791
 2340TIP3    H228512   4.146   1.416  35.045 -1.9443  1.3466 -0.5037
 2341TIP3   OH228513   2.597   1.797   5.532 -0.1514 -0.5064 -0.3367
 2341TIP3    H128514   2.682   1.778   5.571 -0.3664 -0.3876  0.1925
 2341TIP3    H228515   2.538   1.730   5.568 -0.7244  0.6223  0.8660
 2342TIP3   OH228516   2.633   4.315   7.544  0.0963  0.0156  0.3798
 2342TIP3    H128517   2.646   4.395   7.493  0.0931  1.3500  2.3606
 2342TIP3    H228518   2.721   4.277   7.553  0.5899  1.3783  1.8027
 2343TIP3   OH228519   3.500   0.108  38.758 -0.4188 -0.0733 -0.4452
 2343TIP3    H128520   3.502   0.043  38.687  0.4937 -0.3574 -0.1695
 2343TIP3    H228521   3.513   0.057  38.838 -1.7114  0.2107 -0.0245
 2344TIP3   OH228522   0.289   4.328  39.568 -0.0327  0.4535 -0.0109
 2344TIP3    H128523   0.202   4.367  39.562 -0.4216 -0.3497  0.2394
 2344TIP3    H228524   0.323   4.331  39.479 -0.2562  0.8945 -0.0872
 2345TIP3   OH228525   3.813   4.040   4.138 -0.4620 -0.7095 -0.1005
 2345TIP3    H128526   3.833   4.108   4.074 -1.7040  0.2081  0.4533
 2345TIP3    H228527   3.756   3.979   4.091 -1.5431  0.0723  0.1621
 2346TIP3   OH228528   2.110   0.025  36.973  0.2790  0.2181 -0.0713
 2346TIP3    H128529   2.051   0.038  37.047  0.6040  0.3560  0.1620
 2346TIP3    H228530   2.171   0.098  36.978 -0.1131  0.6172 -0.8769
 2347TIP3   OH228531   4.323   0.120  40.920 -0.7769  0.3440 -0.7121
 2347TIP3    H128532   4.402   0.160  40.883  0.2715 -0.1705  0.8502
 2347TIP3    H228533   4.279   0.192  40.965 -0.8402  0.4791 -0.9807
 2348TIP3   OH228534   1.891   3.337  37.438 -0.7197  0.1490  0.1271
 2348TIP3    H128535   1.852   3.277  37.502 -1.1406  1.1682  0.8577
 2348TIP3    H228536   1.959   3.383  37.486  0.3068 -0.4530 -0.7093
 2349TIP3   OH228537   1.494   3.256   1.178 -0.1780 -0.9843 -0.9589
 2349TIP3    H128538   1.517   3.223   1.092  1.9800 -1.3183 -0.3154
 2349TIP3    H228539   1.424   3.319   1.162 -0.1655 -1.4005 -2.8804
 2350TIP3   OH228540   4.044   2.723  33.709 -0.1765 -0.1369 -0.0504
 2350TIP3    H128541   4.036   2.644  33.762 -0.3983 -0.0128  0.1024
 2350TIP3    H228542   4.122   2.767  33.743 -1.3627  0.8999  1.4600
 2351TIP3   OH228543   3.582   1.138   6.451 -0.6225 -0.4529  0.1273
 2351TIP3    H128544   3.654   1.129   6.389 -0.1822  1.7952  0.2210
 2351TIP3    H228545   3.608   1.084   6.526  0.3860 -0.6130 -0.3235
 2352TIP3   OH228546   1.264   2.018  34.689 -0.5499  0.3811  0.2524
 2352TIP3    H128547   1.276   2.081  34.760  0.9087  0.8665 -0.4103
 2352TIP3    H228548   1.240   2.071  34.613  1.6921  0.3217 -0.5741
 2353TIP3   OH228549   0.937   1.131   2.762 -0.5726 -0.1162  0.0045
 2353TIP3    H128550   1.032   1.119   2.750 -0.3305 -0.5207  2.0062
 2353TIP3    H228551   0.925   1.136   2.857 -2.4077  1.3595 -0.2331
 2354TIP3   OH228552   3.069   2.187  36.200  0.2584  0.6034 -0.1607
 2354TIP3    H128553   2.981   2.202  36.164  0.6554  0.4957 -1.2095
 2354TIP3    H228554   3.124   2.254  36.158  0.8973 -0.0627 -0.4136
 2355TIP3   OH228555   1.960   0.027   8.169  0.5164  0.0630  0.2964
 2355TIP3    H128556   2.014  -0.028   8.225 -0.5721  0.6493  2.0162
 2355TIP3    H228557   1.877  -0.021   8.162 -0.0633  0.9291  0.9276
 2356TIP3   OH228558   0.694   0.944  11.811 -0.7069 -0.2259 -0.1189
 2356TIP3    H128559   0.601   0.963  11.815 -0.6948 -0.0688 -0.5950
 2356TIP3    H228560   0.736   1.029  11.801 -0.4977 -0.2795  0.2394
 2357TIP3   OH228561   0.272   0.561  41.616 -0.1432  0.2509 -0.4613
 2357TIP3    H128562   0.257   0.604  41.531 -0.7090  0.0484 -0.4648
 2357TIP3    H228563   0.233   0.620  41.680 -0.7203 -0.1314 -0.4462
 2358TIP3   OH228564   1.666   0.761  40.100 -0.1844 -0.3022  0.5728
 2358TIP3    H128565   1.672   0.698  40.028  3.3289  2.6824 -2.0932
 2358TIP3    H228566   1.581   0.804  40.087 -0.6569 -1.4445 -0.2705
 2359TIP3   OH228567   1.902   1.820   9.043 -0.1010  0.1361  0.4775
 2359TIP3    H128568   1.938   1.838   9.129  1.4167  1.3201 -0.3583
 2359TIP3    H228569   1.813   1.856   9.045 -1.4524 -2.9208  2.6147
 2360TIP3   OH228570   1.449   1.195  36.814 -0.2959  0.1168  0.0730
 2360TIP3    H128571   1.487   1.165  36.896 -0.4721  0.7176  0.3789
 2360TIP3    H228572   1.435   1.288  36.827  0.8864  0.4902 -1.1020
 2361TIP3   OH228573   3.414   2.874   9.807 -0.1939  0.0048  0.0383
 2361TIP3    H128574   3.391   2.859   9.899  2.2228 -2.8433  0.3117
 2361TIP3    H228575   3.498   2.831   9.796 -1.0516 -1.0364 -3.8705
 2362TIP3   OH228576   3.256   3.989  35.472 -0.0023  0.1629 -0.1183
 2362TIP3    H128577   3.240   4.028  35.386 -1.1867  0.4527  0.2136
 2362TIP3    H228578   3.275   3.897  35.453 -1.5512 -0.0830 -0.6247
 2363TIP3   OH228579   3.668   3.503   2.353 -0.2570  0.4685  0.3116
 2363TIP3    H128580   3.589   3.454   2.331  0.5526 -0.2859 -1.0914
 2363TIP3    H228581   3.719   3.443   2.408  0.2478  0.1104 -0.5156
 2364TIP3   OH228582   3.338   2.377   9.984 -0.0377  0.2930 -0.0401
 2364TIP3    H128583   3.355   2.437   9.912 -1.9376  1.2151  0.2319
 2364TIP3    H228584   3.372   2.293   9.953  0.6721  1.0149 -1.3147
 2365TIP3   OH228585   3.628   2.545  22.491 -0.2329  0.4551  0.1205
 2365TIP3    H128586   3.686   2.508  22.556 -0.1270 -0.5091 -0.4957
 2365TIP3    H228587   3.568   2.474  22.468 -0.5466  0.9011 -0.5139
 2366TIP3   OH228588   2.045   4.221  15.295 -0.2400  0.3626  0.2000
 2366TIP3    H128589   2.115   4.192  15.237  0.5760  0.5522  1.0636
 2366TIP3    H228590   1.968   4.229  15.238  0.4229  0.1007 -0.7535
 2367TIP3   OH228591   0.219   3.100  40.069 -0.2308 -0.1304  0.0497
 2367TIP3    H128592   0.168   3.180  40.068 -1.3817 -0.8394 -1.3166
 2367TIP3    H228593   0.220   3.073  40.161 -1.5125  0.4060  0.2375
 2368TIP3   OH228594   1.573   3.699   5.589 -0.3106 -0.5077 -0.6075
 2368TIP3    H128595   1.637   3.754   5.543  1.4696 -0.5614  1.6288
 2368TIP3    H228596   1.597   3.610   5.566  0.1059 -0.5079 -0.1890
 2369TIP3   OH228597   1.174   2.183  37.129 -0.1993 -0.0253  0.0530
 2369TIP3    H128598   1.252   2.209  37.081  0.2165 -0.6239  0.3826
 2369TIP3    H228599   1.186   2.089  37.145  0.4512  0.4219  2.6842
 2370TIP3   OH228600   1.488   3.502  12.128 -0.4144  0.0539 -1.0809
 2370TIP3    H128601   1.499   3.475  12.219 -0.6020  0.9078 -0.7986
 2370TIP3    H228602   1.574   3.490  12.088 -0.2051  0.1613 -0.6624
 2371TIP3   OH228603   1.496   2.515   0.706  0.9332 -0.1316  0.2086
 2371TIP3    H128604   1.549   2.594   0.706 -0.0916  0.6159 -1.2684
 2371TIP3    H228605   1.427   2.533   0.642  0.6942 -2.2379 -0.1917
 2372TIP3   OH228606   0.727   2.812  26.457  0.2093  0.3854 -0.2193
 2372TIP3    H128607   0.664   2.871  26.417  1.7391  2.7684  0.6524
 2372TIP3    H228608   0.742   2.849  26.544 -1.5010 -3.4306  1.9673
 2373TIP3   OH228609   0.832   1.274  15.367  0.5025  0.3281 -0.4629
 2373TIP3    H128610   0.913   1.289  15.318  0.4836  0.5880 -0.4140
 2373TIP3    H228611   0.780   1.217  15.311  0.4322  0.7199 -0.7925
 2374TIP3   OH228612   0.607   0.760   1.793  0.6156  0.0373  0.7635
 2374TIP3    H128613   0.605   0.800   1.880  0.1541 -1.8343  1.6636
 2374TIP3    H228614   0.698   0.768   1.765  0.5212  1.7404  0.8644
 2375TIP3   OH228615   0.188   3.683   5.415 -0.5477  0.3123  0.0687
 2375TIP3    H128616   0.211   3.691   5.322  0.2796  0.2424  0.2611
 2375TIP3    H228617   0.254   3.624   5.451 -0.5020  0.8105  0.8301
 2376TIP3   OH228618   3.779   0.325   8.704 -0.2908 -0.0483  0.3964
 2376TIP3    H128619   3.796   0.235   8.732  0.3830  0.2031  0.8207
 2376TIP3    H228620   3.701   0.319   8.650 -1.0608 -0.6948  1.5297
 2377TIP3   OH228621   2.647   1.039  12.753  0.0500 -0.3619 -0.0267
 2377TIP3    H128622   2.623   1.125  12.718  2.4158 -0.3446 -1.8892
 2377TIP3    H228623   2.682   1.058  12.840 -1.2468  0.2710  0.3869
 2378TIP3   OH228624   2.855   3.044  41.574 -0.0543  0.2262  0.1964
 2378TIP3    H128625   2.837   3.133  41.546  2.2005  0.1022 -1.9171
 2378TIP3    H228626   2.781   3.022  41.632 -1.0073  3.1728  0.2671
 2379TIP3   OH228627   1.472   0.223  18.133 -0.2121 -0.3058  0.2276
 2379TIP3    H128628   1.466   0.230  18.228  1.6285 -1.6002  0.4901
 2379TIP3    H228629   1.382   0.208  18.104 -0.8104  0.1733  1.7299
 2380TIP3   OH228630   3.001   1.606   5.534 -0.1324  0.0876  0.2563
 2380TIP3    H128631   3.016   1.626   5.442  1.4328  0.6799  0.6195
 2380TIP3    H228632   3.007   1.511   5.540  0.5246  0.0997 -0.1402
 2381TIP3   OH228633   4.074   1.663  13.084 -0.7522  0.2351 -0.5059
 2381TIP3    H128634   4.098   1.665  13.176 -0.3690  0.0770 -0.6016
 2381TIP3    H228635   3.978   1.653  13.084 -0.6747 -0.5049 -0.1343
 2382TIP3   OH228636   0.440   4.129  20.879  0.1237 -0.3729  0.4210
 2382TIP3    H128637   0.443   4.210  20.828  1.6489 -1.5064 -1.4069
 2382TIP3    H228638   0.362   4.083  20.846 -0.1417 -0.1373  0.7096
 2383TIP3   OH228639   3.550   3.580  29.877 -0.5156 -0.5134  0.0296
 2383TIP3    H128640   3.575   3.662  29.919  1.1605 -0.3168 -1.2359
 2383TIP3    H228641   3.549   3.515  29.948  0.6244  0.1201  0.6504
 2384TIP3   OH228642   2.598   2.633  33.346  0.1994  0.4743  0.1853
 2384TIP3    H128643   2.561   2.718  33.319  0.0151  0.7147  1.1654
 2384TIP3    H228644   2.559   2.570  33.284  2.3635  1.3842 -2.2925
 2385TIP3   OH228645   3.583   1.428   9.470 -0.2542  0.1070  0.3622
 2385TIP3    H128646   3.499   1.383   9.483 -0.1543 -0.2502 -0.2089
 2385TIP3    H228647   3.639   1.363   9.428 -0.1206  0.7762 -0.5358
 2386TIP3   OH228648   3.059   3.742   7.295 -0.1382 -0.5100 -0.0328
 2386TIP3    H128649   3.018   3.666   7.253 -0.8288  0.5230 -1.3027
 2386TIP3    H228650   3.125   3.771   7.232  1.7295 -1.3812  1.4347
 2387TIP3   OH228651   2.240   3.017  13.563 -0.3637  0.8619  0.2100
 2387TIP3    H128652   2.306   3.024  13.494  0.0574  1.8177  0.6950
 2387TIP3    H228653   2.250   2.928  13.596 -0.0221  0.6598 -0.4073
 2388TIP3   OH228654   3.870   2.420   0.888  0.2170 -0.9939 -0.1740
 2388TIP3    H128655   3.908   2.422   0.800  1.7667  2.0985  0.4284
 2388TIP3    H228656   3.920   2.353   0.934  2.4596  0.3839 -0.4839
 2389TIP3   OH228657   0.985   3.783  29.082 -0.1436 -0.8631  0.3191
 2389TIP3    H128658   0.962   3.727  29.157 -0.7026  0.1054  0.8846
 2389TIP3    H228659   1.064   3.829  29.109 -0.1613 -0.7522  0.1859
 2390TIP3   OH228660   0.569   1.522  31.722 -0.1459  0.0864 -0.1817
 2390TIP3    H128661   0.586   1.518  31.628  0.4507  0.3544 -0.0901
 2390TIP3    H228662   0.605   1.439  31.756 -0.2163  0.0611 -0.1704
 2391TIP3   OH228663   2.300   0.402   8.505  0.6589 -0.0298  0.2102
 2391TIP3    H128664   2.255   0.469   8.556  2.6356  4.5262 -3.2825
 2391TIP3    H228665   2.393   0.417   8.523  1.2099 -3.9548  1.4231
 2392TIP3   OH228666   4.107   1.117   5.506  0.4762  0.2551  0.5502
 2392TIP3    H128667   4.192   1.081   5.531 -0.0295 -1.0224  0.4830
 2392TIP3    H228668   4.102   1.104   5.411 -0.0626 -0.3040  0.6443
 2393TIP3   OH228669   2.016   1.871  13.090  0.1203 -0.7681 -0.1667
 2393TIP3    H128670   2.012   1.803  13.157 -1.1321 -0.6713 -0.1082
 2393TIP3    H228671   2.094   1.922  13.111 -1.8272  1.2091  3.1792
 2394TIP3   OH228672   0.681   4.021  26.631 -0.6786  0.1647  0.0421
 2394TIP3    H128673   0.697   4.067  26.713 -0.2740 -0.6712  0.4484
 2394TIP3    H228674   0.758   4.040  26.577 -0.5125 -0.0275  0.2095
 2395TIP3   OH228675   1.460   1.824   5.922  0.1476  0.3707 -0.1910
 2395TIP3    H128676   1.376   1.794   5.958 -0.2972  0.4003 -1.1620
 2395TIP3    H228677   1.526   1.787   5.981 -0.4641 -1.2192 -0.4529
 2396TIP3   OH228678   0.611   2.864  32.587  0.0100  0.5242 -0.1947
 2396TIP3    H128679   0.571   2.777  32.588 -1.2784  1.1119 -0.1230
 2396TIP3    H228680   0.606   2.894  32.677  1.5084  0.2296  0.0218
 2397TIP3   OH228681   4.298   3.773  24.169  0.1625 -0.2417  0.7223
 2397TIP3    H128682   4.313   3.697  24.113  0.9591 -0.5334  1.3154
 2397TIP3    H228683   4.380   3.823  24.164  0.1837 -0.1871  1.4958
 2398TIP3   OH228684   0.367   0.056   2.335 -0.0158 -0.2305  0.3868
 2398TIP3    H128685   0.388   0.010   2.254 -0.3474 -0.4098  0.4029
 2398TIP3    H228686   0.422   0.015   2.402  2.2596  1.6380 -0.1991
 2399TIP3   OH228687   3.209   1.419  40.775 -0.0871 -0.5570 -0.1597
 2399TIP3    H128688   3.176   1.444  40.689 -0.1803 -0.6844 -0.1616
 2399TIP3    H228689   3.130   1.399  40.826 -0.0293 -0.5392 -0.0630
 2400TIP3   OH228690   4.024   3.059   7.931  0.2186 -0.0521 -0.0930
 2400TIP3    H128691   4.064   3.050   8.018  0.7546 -2.3340 -0.5118
 2400TIP3    H228692   3.931   3.045   7.945 -0.4937  4.2348  0.7267
 2401TIP3   OH228693   0.856   2.410   1.913 -0.2588  0.0384  0.2137
 2401TIP3    H128694   0.864   2.338   1.975  2.3316  1.4918  1.7477
 2401TIP3    H228695   0.807   2.372   1.839  0.7360 -3.1871  1.0255
 2402TIP3   OH228696   1.681   0.149  15.582 -0.1556  0.1048 -0.6024
 2402TIP3    H128697   1.656   0.090  15.653 -0.1380 -1.6040 -1.9437
 2402TIP3    H228698   1.757   0.197  15.616  1.1015 -2.0876 -0.1308
 2403TIP3   OH228699   2.213   3.901   0.212 -0.1248 -0.0461 -0.5503
 2403TIP3    H128700   2.277   3.963   0.177  1.1165 -0.8715  0.1784
 2403TIP3    H228701   2.259   3.856   0.283 -1.6780 -0.3251  0.3488
 2404TIP3   OH228702   1.065   2.973  27.029 -0.0119  0.4566 -0.3060
 2404TIP3    H128703   1.116   3.054  27.036 -0.0259  0.3761  0.9866
 2404TIP3    H228704   0.993   2.996  26.970  1.0970  0.7807 -1.5723
 2405TIP3   OH228705   3.940   1.754  27.425  0.1803  0.3090  0.7842
 2405TIP3    H128706   4.030   1.745  27.395  0.1441  1.6385  0.2468
 2405TIP3    H228707   3.905   1.829  27.377 -0.7173  0.8237  2.1937
 2406TIP3   OH228708   2.372   3.493   7.031  0.1008 -0.6904 -0.0731
 2406TIP3    H128709   2.424   3.417   7.008  1.1921 -0.3374  1.1366
 2406TIP3    H228710   2.324   3.468   7.110  0.0612 -0.3140  0.0286
 2407TIP3   OH228711   2.583   0.387  12.115 -0.1469  0.2705 -0.2428
 2407TIP3    H128712   2.610   0.361  12.203  0.6544  0.7687 -0.3236
 2407TIP3    H228713   2.588   0.306  12.064 -1.3551 -0.1772  0.3274
 2408TIP3   OH228714   1.383   2.385   9.192  0.4088 -0.9435  0.4355
 2408TIP3    H128715   1.426   2.304   9.217 -2.0191 -2.4906 -0.1390
 2408TIP3    H228716   1.313   2.359   9.132  0.2769  1.7072 -0.7340
 2409TIP3   OH228717   4.178   0.651  33.277 -0.1940 -0.0736 -0.4615
 2409TIP3    H128718   4.215   0.696  33.353 -0.6637 -0.9583  0.3203
 2409TIP3    H228719   4.123   0.716  33.235  0.5381  0.6085 -0.3886
 2410TIP3   OH228720   3.264   1.741  37.796 -0.4468 -0.3458 -0.5729
 2410TIP3    H128721   3.175   1.705  37.796 -0.2167 -0.9408  0.1532
 2410TIP3    H228722   3.252   1.836  37.799 -1.0775 -0.4430  0.9619
 2411TIP3   OH228723   4.386   2.179  26.050 -0.2206 -0.6330 -0.4015
 2411TIP3    H128724   4.446   2.222  25.990 -0.1147 -0.1081  0.0673
 2411TIP3    H228725   4.424   2.092  26.064  2.4996  0.8518  2.7004
 2412TIP3   OH228726   2.629   4.308  30.966  0.3907  0.2022 -0.7674
 2412TIP3    H128727   2.549   4.357  30.982  0.1331 -0.7949  1.2404
 2412TIP3    H228728   2.665   4.290  31.053  2.0377 -0.6313 -1.5635
 2413TIP3   OH228729   0.564   2.969   0.699  0.1171  0.4089 -0.2076
 2413TIP3    H128730   0.592   2.917   0.623 -1.2679 -1.5841  0.5425
 2413TIP3    H228731   0.572   3.060   0.671  1.9689 -0.2073 -1.8713
 2414TIP3   OH228732   3.380   3.124  27.800 -0.6821  0.0342 -0.2515
 2414TIP3    H128733   3.334   3.176  27.734  0.8592  0.2082 -1.2183
 2414TIP3    H228734   3.446   3.183  27.836 -0.8471 -0.3737  0.7582
 2415TIP3   OH228735   2.352   3.151  39.487 -0.2530 -0.2988 -0.1606
 2415TIP3    H128736   2.366   3.102  39.407  2.0675  2.1397 -1.4034
 2415TIP3    H228737   2.433   3.139  39.537 -0.1968  1.0973  0.1149
 2416TIP3   OH228738   3.816   2.217  28.920  0.8504  0.5254 -0.4646
 2416TIP3    H128739   3.841   2.127  28.939  2.2570  0.8438 -0.6337
 2416TIP3    H228740   3.796   2.255  29.006  2.7463  0.7135 -0.0556
 2417TIP3   OH228741   3.531   1.319  30.391  0.4259 -0.2358  0.0527
 2417TIP3    H128742   3.487   1.341  30.473  1.4397 -1.4393  0.9696
 2417TIP3    H228743   3.580   1.239  30.411  0.7333 -0.5355 -1.7248
 2418TIP3   OH228744   3.661   2.635  32.104  0.3985 -0.5005 -0.1076
 2418TIP3    H128745   3.698   2.661  32.019 -0.6055  2.1878  0.1677
 2418TIP3    H228746   3.653   2.717  32.152 -0.5697 -1.7578  2.0020
 2419TIP3   OH228747   3.841   3.590   9.126 -0.1522  0.7932 -0.3727
 2419TIP3    H128748   3.920   3.536   9.127 -0.4214  0.3865 -0.5008
 2419TIP3    H228749   3.832   3.620   9.216 -1.7737 -2.0660  0.5687
 2420TIP3   OH228750   0.726   0.241  41.476  0.1031 -0.2296 -0.3680
 2420TIP3    H128751   0.782   0.213  41.404 -0.4822 -0.8425 -0.5904
 2420TIP3    H228752   0.787   0.269  41.544  0.6759 -0.6385 -0.7106
 2421TIP3   OH228753   2.243   0.527   3.190  0.2693 -0.1457 -0.1095
 2421TIP3    H128754   2.195   0.609   3.196 -3.1950 -1.9961 -0.2497
 2421TIP3    H228755   2.226   0.483   3.273  2.6261 -0.5477  0.2484
 2422TIP3   OH228756   3.327   2.158   6.892 -0.5427  0.1428 -0.0004
 2422TIP3    H128757   3.259   2.093   6.878 -0.6283 -0.0104  1.0337
 2422TIP3    H228758   3.371   2.130   6.973  1.1547 -0.0982 -0.9570
 2423TIP3   OH228759   2.333   0.145  40.827  0.0384  0.3505 -0.9585
 2423TIP3    H128760   2.311   0.237  40.843 -0.7687  0.0802 -0.4428
 2423TIP3    H228761   2.351   0.109  40.914  0.4525  0.0458 -1.1664
 2424TIP3   OH228762   1.321   0.741   3.115 -0.4305  0.3281 -0.2801
 2424TIP3    H128763   1.250   0.686   3.081  0.0770 -1.6632  1.7102
 2424TIP3    H228764   1.400   0.687   3.105  0.1372  0.7999  1.4210
 2425TIP3   OH228765   0.978   3.646  35.032 -0.1069 -0.3632 -0.1978
 2425TIP3    H128766   1.029   3.684  35.103 -0.1084  0.7785 -0.7830
 2425TIP3    H228767   1.010   3.556  35.024 -1.8986 -1.4569  2.9535
 2426TIP3   OH228768   1.337   2.458  35.583  0.0506  0.0371  0.0927
 2426TIP3    H128769   1.429   2.482  35.583  0.2933 -0.8567  0.0562
 2426TIP3    H228770   1.335   2.368  35.552 -0.7483 -0.2578  0.9285
 2427TIP3   OH228771   2.268   0.977  29.847 -0.2024 -0.3649 -0.5889
 2427TIP3    H128772   2.210   0.951  29.918  0.0849  1.1338  0.2468
 2427TIP3    H228773   2.221   1.048  29.802 -0.5118 -1.4919 -2.1083
 2428TIP3   OH228774   3.024   0.723  33.214 -0.4015 -0.2941  0.6170
 2428TIP3    H128775   2.949   0.663  33.216  0.6224 -1.6008  0.5590
 2428TIP3    H228776   3.011   0.780  33.289 -1.5000 -0.4551  0.5656
 2429TIP3   OH228777   0.183   3.323  39.821  0.2484 -0.1944 -0.0086
 2429TIP3    H128778   0.267   3.363  39.842 -0.0384  0.6127 -0.3244
 2429TIP3    H228779   0.149   3.292  39.905  0.2407  0.7293  0.3423
 2430TIP3   OH228780   3.597   4.082  30.223  0.1624 -0.0283  0.1192
 2430TIP3    H128781   3.534   4.154  30.214 -1.4389 -1.2523  1.0994
 2430TIP3    H228782   3.605   4.069  30.317  0.9329 -0.7176 -0.0382
 2431TIP3   OH228783   0.132   4.110  24.457  0.0477  0.3266  0.3925
 2431TIP3    H128784   0.178   4.028  24.442  0.0157 -0.1514  2.5936
 2431TIP3    H228785   0.142   4.127  24.550 -0.2299  2.6782  0.0603
 2432TIP3   OH228786   1.263   1.816  30.772 -0.2053 -0.5921 -0.2436
 2432TIP3    H128787   1.205   1.759  30.824  0.2836  0.2528  1.2669
 2432TIP3    H228788   1.296   1.758  30.703  0.0123 -2.0776  1.0420
 2433TIP3   OH228789   2.751   0.705   9.262  0.0267  0.0723 -0.3933
 2433TIP3    H128790   2.816   0.769   9.235  1.2618 -1.3472 -0.9055
 2433TIP3    H228791   2.672   0.731   9.214  0.5158  1.1556 -0.6488
 2434TIP3   OH228792   0.173   3.530  23.298  0.0932  0.1571  0.5384
 2434TIP3    H128793   0.155   3.534  23.204  0.1021 -0.3740  0.5081
 2434TIP3    H228794   0.103   3.583  23.338  0.1496  0.4679  0.2291
 2435TIP3   OH228795   3.447   3.934   8.716 -0.0890  0.5601  0.4842
 2435TIP3    H128796   3.374   3.975   8.762 -0.8431 -0.5779  0.3689
 2435TIP3    H228797   3.487   4.004   8.665 -0.4143  1.4346  1.4149
 2436TIP3   OH228798   3.921   0.510  40.300  0.0964 -0.2991  0.5902
 2436TIP3    H128799   3.967   0.487  40.381 -0.0071  0.8133  0.9930
 2436TIP3    H228800   3.829   0.494  40.319 -0.0319  0.9066  1.0618
 2437TIP3   OH228801   1.735   3.166  39.728  0.2911  0.1526  0.0685
 2437TIP3    H128802   1.823   3.190  39.700  0.1820 -0.9521 -1.3135
 2437TIP3    H228803   1.704   3.105  39.661 -1.2269 -0.0966  0.9515
 2438TIP3   OH228804   0.389   3.106  41.239 -0.0400  0.0146 -0.1395
 2438TIP3    H128805   0.367   3.180  41.294 -1.4505 -1.1874  1.0042
 2438TIP3    H228806   0.480   3.085  41.261  0.5095  1.5914 -0.7655
 2439TIP3   OH228807   1.085   4.317  14.825  0.2732 -0.4625  0.0876
 2439TIP3    H128808   1.002   4.361  14.846  0.8321  0.7010 -0.0270
 2439TIP3    H228809   1.074   4.290  14.734  0.0356 -0.2530  0.0509
 2440TIP3   OH228810   4.406   0.008  38.417 -0.1435  0.6098 -0.3422
 2440TIP3    H128811   4.432   0.028  38.327  2.3162  1.3032  0.4451
 2440TIP3    H228812   4.446  -0.077  38.435  1.7269  1.6925  0.9075
 2441TIP3   OH228813   1.929   0.093  38.301 -0.0455  0.3331  0.0235
 2441TIP3    H128814   1.998   0.068  38.362  0.4353  1.6765  0.0436
 2441TIP3    H228815   1.942   0.186  38.285 -2.2425  0.7744  0.5163
 2442TIP3   OH228816   1.948   0.041  38.855 -0.0037  0.4464  0.2251
 2442TIP3    H128817   1.899  -0.038  38.880 -0.2387  1.1812  2.2585
 2442TIP3    H228818   1.903   0.072  38.776 -0.9424 -0.5517  0.3355
 2443TIP3   OH228819   2.849   3.546  39.942 -0.0430 -0.0078 -0.1450
 2443TIP3    H128820   2.917   3.612  39.923 -1.2926  1.1558 -0.7588
 2443TIP3    H228821   2.846   3.492  39.862  2.1257 -1.9552  0.9573
 2444TIP3   OH228822   0.218   1.971   5.121 -0.0650  0.0117 -0.4361
 2444TIP3    H128823   0.125   1.995   5.128  0.0615  0.5323 -0.5360
 2444TIP3    H228824   0.258   2.005   5.201  0.3250  1.1089 -1.0900
 2445TIP3   OH228825   2.189   3.860  39.267  0.0384  0.1161 -1.0172
 2445TIP3    H128826   2.121   3.802  39.302 -0.5079  1.5212  0.3634
 2445TIP3    H228827   2.140   3.927  39.220  0.3753  1.5088  0.5390
 2446TIP3   OH228828   2.097   1.344  31.905  0.6444  0.3867  0.0461
 2446TIP3    H128829   2.105   1.357  32.000 -0.7074  1.6243  0.0263
 2446TIP3    H228830   2.051   1.261  31.896  0.1018  0.6230  0.5196
 2447TIP3   OH228831   0.323   0.284  39.524  0.1914 -0.2504  0.4114
 2447TIP3    H128832   0.306   0.206  39.470  1.3981 -0.7877  0.7677
 2447TIP3    H228833   0.396   0.259  39.580 -0.7666  0.4404  2.0431
 2448TIP3   OH228834   1.863   3.744   9.011  0.1797  0.0376 -0.5262
 2448TIP3    H128835   1.929   3.707   9.069  2.2726 -0.2590 -2.9124
 2448TIP3    H228836   1.894   3.833   8.993 -1.2558  0.6616  0.0013
 2449TIP3   OH228837   2.717   1.767  38.940 -0.3517  0.2553  0.5259
 2449TIP3    H128838   2.807   1.738  38.923 -0.9020 -1.2361  0.0212
 2449TIP3    H228839   2.693   1.724  39.022 -0.2804  1.4492  1.1886
 2450TIP3   OH228840   2.501   2.768  32.380  0.5901  0.2993  0.0995
 2450TIP3    H128841   2.541   2.799  32.299 -0.3102 -0.3915 -0.6378
 2450TIP3    H228842   2.426   2.825  32.394 -1.0718 -1.3936 -1.2643
 2451TIP3   OH228843   3.604   2.908   8.952  0.0260 -0.1504  0.3718
 2451TIP3    H128844   3.694   2.890   8.924  0.1746 -0.5254  1.0767
 2451TIP3    H228845   3.614   2.951   9.037 -0.5120 -4.3425  2.8144
 2452TIP3   OH228846   4.316   0.827  11.083  0.3199  0.1445 -0.0898
 2452TIP3    H128847   4.357   0.743  11.063 -0.7322 -1.0948  2.5287
 2452TIP3    H228848   4.223   0.813  11.069  0.2800  1.5372 -1.5142
 2453TIP3   OH228849   2.582   2.690  30.228 -0.0492  0.1422  0.2573
 2453TIP3    H128850   2.624   2.775  30.215 -0.2431 -0.0894 -2.5466
 2453TIP3    H228851   2.523   2.680  30.154 -1.2128 -1.7870  1.3440
 2454TIP3   OH228852   2.227   2.939  31.002 -0.0689  0.5440 -0.2627
 2454TIP3    H128853   2.261   2.958  31.089 -0.0317  0.2328 -0.2081
 2454TIP3    H228854   2.293   2.975  30.942 -0.6920  1.8848 -0.1840
 2455TIP3   OH228855   1.581   1.184   6.998  0.2566 -0.6282 -0.4746
 2455TIP3    H128856   1.538   1.237   7.065 -0.2713 -0.6332 -0.8053
 2455TIP3    H228857   1.666   1.226   6.984  0.1082 -0.2587 -0.2605
 2456TIP3   OH228858   2.472   2.896  28.926  0.2129 -0.5902  0.3495
 2456TIP3    H128859   2.491   2.923  29.016 -0.5461  0.3858  0.2309
 2456TIP3    H228860   2.552   2.916  28.877  0.3525 -0.3955  0.6591
 2457TIP3   OH228861   1.675   2.045  40.234  0.5810 -0.1430  0.5001
 2457TIP3    H128862   1.671   2.038  40.329  1.4448  0.2463  0.5747
 2457TIP3    H228863   1.725   2.125  40.218  0.1875 -0.0425 -0.2803
 2458TIP3   OH228864   1.559   0.932  41.408  0.2729  0.1728 -0.6372
 2458TIP3    H128865   1.646   0.966  41.428  0.7725 -0.4555 -1.6714
 2458TIP3    H228866   1.501   1.007  41.422  0.8148  0.3232  1.1071
 2459TIP3   OH228867   1.017   3.016  30.449  0.5700 -0.4372 -0.0798
 2459TIP3    H128868   1.092   3.028  30.392  0.1579 -1.1036 -0.7719
 2459TIP3    H228869   0.941   3.020  30.390  0.0860 -0.2703  0.5398
 2460TIP3   OH228870   2.131   2.774   3.592 -0.1794 -0.1684 -0.6336
 2460TIP3    H128871   2.194   2.800   3.525  1.4727 -0.8984  0.5374
 2460TIP3    H228872   2.137   2.843   3.658  0.2373 -0.7944 -0.0029
 2461TIP3   OH228873   0.318   2.566  28.927  0.2708  0.3217  0.2652
 2461TIP3    H128874   0.314   2.543  29.020  3.3337  0.7270  0.6067
 2461TIP3    H228875   0.372   2.498  28.888 -0.7071  0.3420 -1.2097
 2462TIP3   OH228876   0.625   3.358  34.901 -0.6693  0.1883  0.8341
 2462TIP3    H128877   0.561   3.308  34.852 -3.7539  2.7349  1.9412
 2462TIP3    H228878   0.654   3.426  34.840  0.8256 -0.7538  0.4425
 2463TIP3   OH228879   1.020   0.099  34.848 -0.4694  0.5691 -0.0891
 2463TIP3    H128880   0.965   0.162  34.894  0.5769  0.5208  1.2961
 2463TIP3    H228881   1.042   0.034  34.915 -1.3999 -1.2059 -1.4338
 2464TIP3   OH228882   3.070   0.671  28.236  0.4172 -0.2817 -0.1212
 2464TIP3    H128883   3.005   0.603  28.252 -0.4287  0.9986  2.5071
 2464TIP3    H228884   3.153   0.632  28.262 -0.3447  0.2369  3.6596
 2465TIP3   OH228885   0.892   1.941  36.381  0.4427 -0.3951  0.1483
 2465TIP3    H128886   0.892   2.010  36.315 -0.8392 -0.1349  0.3976
 2465TIP3    H228887   0.831   1.972  36.448  0.4364 -1.4179  0.6283
 2466TIP3   OH228888   0.758   3.326  32.154 -0.1527  0.2612 -0.0231
 2466TIP3    H128889   0.760   3.310  32.248  1.6825  0.7186  0.0542
 2466TIP3    H228890   0.731   3.242  32.116 -0.8893  0.0670  0.8822
 2467TIP3   OH228891   4.334   3.301  28.969 -0.2484  0.1539  0.0406
 2467TIP3    H128892   4.278   3.325  28.895 -2.0334  2.1939  1.9033
 2467TIP3    H228893   4.386   3.379  28.986 -0.0496 -0.1993  1.0915
 2468TIP3   OH228894   1.335   4.224  27.226 -0.1920  0.2367  0.0841
 2468TIP3    H128895   1.398   4.181  27.167  0.8918  1.0303  0.6288
 2468TIP3    H228896   1.358   4.317  27.221 -1.4070  0.5602  0.2264
 2469TIP3   OH228897   1.269   0.896  16.744 -0.1118  0.0604 -0.2015
 2469TIP3    H128898   1.309   0.810  16.735 -0.2624 -0.3322  2.1559
 2469TIP3    H228899   1.204   0.901  16.673  0.3008 -1.5155 -0.7157
 2470TIP3   OH228900   3.278   2.133  34.396 -0.0734  0.5656  0.7183
 2470TIP3    H128901   3.331   2.064  34.435  1.1908  1.3413  0.4331
 2470TIP3    H228902   3.341   2.200  34.370 -1.2869  2.0151  1.3572
 2471TIP3   OH228903   0.283   1.796  37.263 -0.2984  0.0862 -0.4559
 2471TIP3    H128904   0.324   1.788  37.349 -0.5849 -0.1766 -0.3413
 2471TIP3    H228905   0.296   1.887  37.238 -0.1300  0.1403 -0.1747
 2472TIP3   OH228906   1.302   0.632  31.098  0.2458 -0.1057 -0.1706
 2472TIP3    H128907   1.299   0.539  31.077  0.3827 -0.3269  0.7709
 2472TIP3    H228908   1.211   0.655  31.116  0.0203  0.2473 -1.6248
 2473TIP3   OH228909   4.321   1.230  37.430  0.5454  0.6521  0.3325
 2473TIP3    H128910   4.339   1.314  37.387 -1.5513  0.7957 -0.3380
 2473TIP3    H228911   4.228   1.232  37.450  0.5129 -1.3989  0.5867
 2474TIP3   OH228912   1.032   2.795  41.350 -0.3369 -0.5054 -0.1102
 2474TIP3    H128913   0.967   2.772  41.283  0.6424 -1.1687 -0.8530
 2474TIP3    H228914   1.031   2.721  41.410 -0.1580 -0.5838 -0.2044
 2475TIP3   OH228915   2.766   3.528  37.352  0.4171  0.1737 -0.4417
 2475TIP3    H128916   2.754   3.434  37.361 -1.1558  0.3880  0.0420
 2475TIP3    H228917   2.744   3.547  37.261  0.3519  0.1258 -0.4356
 2476TIP3   OH228918   1.292   4.014   0.126  0.0550  0.2002 -0.5226
 2476TIP3    H128919   1.207   4.007   0.083 -0.2346 -0.2193  0.1042
 2476TIP3    H228920   1.272   4.039   0.216  0.3952 -2.2316  0.3210
 2477TIP3   OH228921   2.173   0.934  13.331  0.0239 -0.0142 -0.0364
 2477TIP3    H128922   2.125   1.013  13.355  0.6266  0.4015 -0.1700
 2477TIP3    H228923   2.131   0.865  13.381 -1.1094  0.2284 -0.6324
 2478TIP3   OH228924   3.612   1.395  36.957  0.1794  0.2433 -0.1432
 2478TIP3    H128925   3.608   1.301  36.976 -2.2185  0.6154  1.7076
 2478TIP3    H228926   3.705   1.418  36.967  0.7989 -1.8787 -0.5983
 2479TIP3   OH228927   4.108   0.013  23.603  0.5545 -0.2702  0.3967
 2479TIP3    H128928   4.194  -0.030  23.601  0.7732  0.1481 -1.5895
 2479TIP3    H228929   4.078   0.001  23.693  1.3444 -3.1129  0.4116
 2480TIP3   OH228930   3.318   0.744   1.530  0.3514 -0.1997  0.2593
 2480TIP3    H128931   3.395   0.730   1.476 -2.0831  0.8437 -3.9410
 2480TIP3    H228932   3.299   0.837   1.523 -1.8361 -0.5824  0.2268
 2481TIP3   OH228933   3.867   2.529   5.218  0.4380  0.2712 -0.3898
 2481TIP3    H128934   3.876   2.496   5.307 -1.7754  1.2424  0.2577
 2481TIP3    H228935   3.869   2.451   5.163 -1.4293 -0.6886  0.8223
 2482TIP3   OH228936   2.097   3.284  33.693  0.1017 -0.0403 -0.0187
 2482TIP3    H128937   2.033   3.286  33.622 -0.2063  1.2109  0.2662
 2482TIP3    H228938   2.049   3.254  33.769  0.4387 -1.4100 -0.3195
 2483TIP3   OH228939   2.456   3.085  13.756  0.4381 -0.2551  0.0758
 2483TIP3    H128940   2.512   3.140  13.702 -3.3453  1.7405 -2.2561
 2483TIP3    H228941   2.414   3.145  13.817 -0.6805 -1.2548  0.3330
 2484TIP3   OH228942   2.965   4.372  26.795 -0.5286 -0.1144 -0.4398
 2484TIP3    H128943   2.957   4.304  26.728  0.3185 -1.3957  0.6974
 2484TIP3    H228944   2.883   4.368  26.843 -1.0551  0.6673 -1.2527
 2485TIP3   OH228945   1.814   0.069   7.343 -0.0477  0.2756 -0.2092
 2485TIP3    H128946   1.800   0.163   7.343 -1.5999  0.0780  0.9120
 2485TIP3    H228947   1.881   0.054   7.410 -0.8326  0.4690  0.6318
 2486TIP3   OH228948   1.537   4.051  13.542  0.1006 -0.5542 -0.1378
 2486TIP3    H128949   1.608   4.103  13.580  0.1560  0.0425 -1.0355
 2486TIP3    H228950   1.522   3.981  13.606 -0.2751  0.7969  1.3215
 2487TIP3   OH228951   1.223   0.161  28.770  0.0269 -0.6137 -0.2603
 2487TIP3    H128952   1.213   0.066  28.767 -1.9716 -0.4295 -0.7042
 2487TIP3    H228953   1.286   0.181  28.701  1.1615 -1.6700  0.4350
 2488TIP3   OH228954   4.314   2.990  36.971 -0.2309 -0.5469  0.1139
 2488TIP3    H128955   4.274   3.050  37.033 -2.0450 -1.4375 -0.1439
 2488TIP3    H228956   4.303   2.903  37.010  2.6199 -0.7912  0.6348
 2489TIP3   OH228957   0.205   4.152  11.145  0.1477  0.0845  0.1283
 2489TIP3    H128958   0.172   4.221  11.088  0.5613  1.1280  1.1187
 2489TIP3    H228959   0.164   4.072  11.112 -0.5840  0.8372 -0.8439
 2490TIP3   OH228960   2.848   0.002   4.920 -0.2967 -0.0468  0.0831
 2490TIP3    H128961   2.886  -0.055   4.987  1.4061  0.0428 -0.7423
 2490TIP3    H228962   2.922   0.024   4.863 -1.3443  1.2899 -0.8242
 2491TIP3   OH228963   1.700   0.301   2.862 -0.7176  0.2668 -0.0855
 2491TIP3    H128964   1.728   0.390   2.884 -0.2451 -0.2883  1.7656
 2491TIP3    H228965   1.756   0.245   2.916  0.6960 -1.3239 -2.9730
 2492TIP3   OH228966   2.444   1.697  12.663 -0.0406 -0.2638  0.9585
 2492TIP3    H128967   2.534   1.669  12.681  0.8033  0.5265 -1.5464
 2492TIP3    H228968   2.395   1.616  12.653  0.1037 -0.7158  3.2796
 2493TIP3   OH228969   0.514   3.895   5.029  0.0505 -0.1880  0.1337
 2493TIP3    H128970   0.466   3.967   5.069 -0.5184 -1.3947  1.7216
 2493TIP3    H228971   0.486   3.896   4.937 -1.4086  0.4312  0.5562
 2494TIP3   OH228972   0.863   2.164  15.829 -0.1472 -0.1134  0.5593
 2494TIP3    H128973   0.930   2.096  15.839 -1.0629 -0.9740  1.0926
 2494TIP3    H228974   0.884   2.207  15.746  0.3922 -1.1433  0.1445
 2495TIP3   OH228975   2.351   0.181  33.590 -0.1243 -0.4787 -0.0638
 2495TIP3    H128976   2.256   0.175  33.574 -0.2176 -1.0879  0.6817
 2495TIP3    H228977   2.359   0.235  33.668  0.1594 -0.2819 -0.2269
 2496TIP3   OH228978   1.497   3.261  10.892 -0.1142  0.1213 -0.3556
 2496TIP3    H128979   1.567   3.282  10.954  0.8568 -0.0671 -1.3415
 2496TIP3    H228980   1.468   3.346  10.859 -0.2824  0.1952 -0.0228
 2497TIP3   OH228981   0.146   0.337   0.523  0.6739 -0.7091 -0.1272
 2497TIP3    H128982   0.170   0.253   0.483 -0.2134 -1.2018  0.3553
 2497TIP3    H228983   0.199   0.342   0.602 -1.2753 -2.1708  1.3689
 2498TIP3   OH228984   3.031   3.969   6.905 -0.0470  0.4586 -0.3696
 2498TIP3    H128985   2.995   4.046   6.947  0.2769  0.5105 -0.1825
 2498TIP3    H228986   2.958   3.907   6.902 -0.3634  0.8416 -0.7037
 2499TIP3   OH228987   1.024   3.575  40.375 -0.1966  0.1282 -0.3630
 2499TIP3    H128988   1.052   3.659  40.336  3.1842 -1.8174 -2.6721
 2499TIP3    H228989   1.069   3.572  40.459  0.3159  0.3425 -0.6222
 2500TIP3   OH228990   4.220   2.694   3.165  0.0644  0.4037 -0.5177
 2500TIP3    H128991   4.308   2.655   3.166  0.0841  0.4519 -0.3345
 2500TIP3    H228992   4.161   2.621   3.146 -0.2237 -0.3850  2.8327
 2501TIP3   OH228993   2.600   3.259   8.387  0.0879  0.0846  0.1939
 2501TIP3    H128994   2.655   3.316   8.440 -0.9325  0.7989  0.5176
 2501TIP3    H228995   2.524   3.240   8.442 -0.3385 -0.2906 -0.5000
 2502TIP3   OH228996   0.534   2.447   0.467  0.5053 -0.4301  0.1986
 2502TIP3    H128997   0.612   2.404   0.501  0.9011  0.4170  0.3934
 2502TIP3    H228998   0.492   2.485   0.544  0.2628 -0.3126  0.0097
 2503TIP3   OH228999   2.145   2.326   8.566 -0.4394  0.1509 -0.0218
 2503TIP3    H129000   2.115   2.409   8.605  0.1119  0.2119  0.2873
 2503TIP3    H229001   2.209   2.292   8.629  0.7505  0.4377 -1.0403
 2504TIP3   OH229002   3.434   2.195  34.659 -0.6506 -0.7342 -0.0736
 2504TIP3    H129003   3.483   2.277  34.670  0.3724 -1.1495 -1.3673
 2504TIP3    H229004   3.460   2.141  34.733  0.3768 -0.7097 -0.4104
 2505TIP3   OH229005   0.478   4.181   4.719 -0.4591 -0.0759  0.3401
 2505TIP3    H129006   0.413   4.117   4.690 -0.1834 -0.2212  0.0360
 2505TIP3    H229007   0.522   4.138   4.793  1.2518 -1.1974 -1.2441
 2506TIP3   OH229008   2.081   1.675  36.348 -0.1130  0.8150 -0.0571
 2506TIP3    H129009   2.029   1.616  36.402 -2.0060  1.7761 -0.7635
 2506TIP3    H229010   2.060   1.650  36.258  0.0230  1.7752 -0.3594
 2507TIP3   OH229011   1.048   3.811  28.789 -0.3020 -0.1638  0.2249
 2507TIP3    H129012   1.001   3.813  28.873 -1.3440 -1.0136 -0.3248
 2507TIP3    H229013   1.073   3.719  28.778 -0.9574 -0.2230 -0.8164
 2508TIP3   OH229014   2.504   2.630   1.322 -0.0415  0.2096 -0.5308
 2508TIP3    H129015   2.565   2.622   1.395 -0.6720  1.3704  0.1430
 2508TIP3    H229016   2.430   2.680   1.357 -1.5580 -1.4271 -1.2284
 2509TIP3   OH229017   2.075   3.758   4.831  0.3190 -0.2438 -0.5342
 2509TIP3    H129018   1.987   3.736   4.800 -0.2403 -0.6973  1.2468
 2509TIP3    H229019   2.064   3.845   4.871  0.2197 -1.1003  1.3655
 2510TIP3   OH229020   0.931   0.152  13.432  0.2573  0.2239 -0.1296
 2510TIP3    H129021   1.005   0.211  13.446 -0.8803  1.4087  1.1535
 2510TIP3    H229022   0.901   0.129  13.520 -0.8754 -0.2876 -0.6287
 2511TIP3   OH229023   3.980   1.468  32.918  0.2741 -0.4160 -0.1699
 2511TIP3    H129024   3.902   1.523  32.918  0.9543  0.5809 -0.4722
 2511TIP3    H229025   3.983   1.431  33.007  2.1385  3.5483  1.7010
 2512TIP3   OH229026   1.978   3.761  11.958  0.4604  0.4377 -0.8141
 2512TIP3    H129027   1.991   3.814  12.037 -2.3040  1.1709 -0.7328
 2512TIP3    H229028   1.948   3.824  11.892 -2.5305 -0.8356 -0.8398
 2513TIP3   OH229029   3.379   2.818  41.551  0.2370  0.1696 -0.3317
 2513TIP3    H129030   3.398   2.796  41.460 -1.5678 -2.3289 -0.2216
 2513TIP3    H229031   3.294   2.862  41.548  0.1636  0.0667  0.1475
 2514TIP3   OH229032   3.966   2.245  27.487 -0.5659  0.5023 -0.5744
 2514TIP3    H129033   3.991   2.153  27.484  0.9265  0.8996 -1.0729
 2514TIP3    H229034   3.870   2.244  27.488 -0.5750 -1.0606  0.1766
 2515TIP3   OH229035   2.915   2.901  31.636  0.7366  0.0509 -0.1616
 2515TIP3    H129036   2.846   2.877  31.697 -0.8592  0.8452 -1.5485
 2515TIP3    H229037   2.978   2.950  31.689 -1.7747  2.8683  0.5287
 2516TIP3   OH229038   2.789   2.063  13.106 -0.1567 -0.0564  0.0392
 2516TIP3    H129039   2.831   2.123  13.169 -0.3888 -0.3336  0.4622
 2516TIP3    H229040   2.744   1.999  13.161 -0.2610 -0.3733 -0.4157
 2517TIP3   OH229041   2.861   2.926  32.113  0.3632  0.0923  0.5155
 2517TIP3    H129042   2.873   2.903  32.206  1.6445  1.1080  0.6300
 2517TIP3    H229043   2.767   2.913  32.098  0.3466 -1.3413  1.5937
 2518TIP3   OH229044   3.848   0.113   2.232  0.1324  0.5201 -0.1066
 2518TIP3    H129045   3.875   0.105   2.324 -1.8061 -2.2008  0.3243
 2518TIP3    H229046   3.930   0.111   2.183  1.1633  1.3223  1.4999
 2519TIP3   OH229047   0.097   3.335  40.125 -0.1778 -0.6983  0.4026
 2519TIP3    H129048   0.033   3.405  40.132 -0.3021 -0.7994  0.2670
 2519TIP3    H229049   0.176   3.379  40.092 -0.0934 -0.5259  0.8260
 2520TIP3   OH229050   3.954   2.608  40.669 -0.5094 -0.0905  0.2994
 2520TIP3    H129051   3.898   2.546  40.622 -1.5126  0.9978  0.0000
 2520TIP3    H229052   3.906   2.691  40.664  0.0169  0.3456  2.0972
 2521TIP3   OH229053   0.965   3.255  39.372 -0.2854 -0.0930  0.1688
 2521TIP3    H129054   0.922   3.341  39.371  0.7101  0.4366 -0.9976
 2521TIP3    H229055   0.900   3.196  39.409 -2.1679  0.6084 -1.8000
 2522TIP3   OH229056   1.036   1.041  30.101  0.4398  0.1124  0.6128
 2522TIP3    H129057   1.087   1.109  30.058 -0.8557  0.0948 -1.0242
 2522TIP3    H229058   0.987   1.086  30.170 -0.7981  0.9817 -0.7821
 2523TIP3   OH229059   4.266   2.505  23.791  0.4429  0.2819 -0.1354
 2523TIP3    H129060   4.202   2.446  23.751  0.8909  0.0378 -0.4958
 2523TIP3    H229061   4.306   2.551  23.717 -0.5504  1.7298  0.1868
 2524TIP3   OH229062   3.103   2.868   4.506 -0.3302  0.2415  0.6264
 2524TIP3    H129063   3.187   2.871   4.460 -1.5145 -0.8945 -1.7622
 2524TIP3    H229064   3.080   2.960   4.521  0.7153  0.5966  0.1387
 2525TIP3   OH229065   1.629   2.108  34.158 -0.5269  0.1735 -0.6544
 2525TIP3    H129066   1.675   2.170  34.215 -1.4724  1.6093 -1.3975
 2525TIP3    H229067   1.697   2.049  34.126  0.3015  0.4496  0.5301
 2526TIP3   OH229068   1.808   2.504   0.028  0.3537 -0.0600  0.3426
 2526TIP3    H129069   1.778   2.419   0.060 -1.3939  1.0527  1.8942
 2526TIP3    H229070   1.890   2.519   0.074  1.1351 -1.2441 -0.6084
 2527TIP3   OH229071   3.758   2.761   5.348  0.0231  0.3414 -0.1989
 2527TIP3    H129072   3.798   2.684   5.310 -0.2135 -0.5405  1.2580
 2527TIP3    H229073   3.830   2.824   5.357  0.7240 -0.5532  0.6893
 2528TIP3   OH229074   1.407   2.936   6.182  0.3158  0.1765 -0.2566
 2528TIP3    H129075   1.478   3.000   6.172  0.1223  0.5607  0.7175
 2528TIP3    H229076   1.436   2.880   6.254  0.2877 -0.5880 -0.8265
 2529TIP3   OH229077   3.293   4.343   9.464  0.2460  0.5612  0.3967
 2529TIP3    H129078   3.362   4.357   9.529  0.3874 -0.4260  0.4751
 2529TIP3    H229079   3.316   4.259   9.423  0.3640  1.3184 -1.1793
 2530TIP3   OH229080   2.811   1.871   0.573  0.3339  0.2292  0.1803
 2530TIP3    H129081   2.740   1.911   0.623  0.5554 -0.2064  0.8620
 2530TIP3    H229082   2.874   1.942   0.558 -0.5465  0.7950 -1.0454
 2531TIP3   OH229083   0.500   2.876  36.539  0.1080  0.1158  0.0696
 2531TIP3    H129084   0.493   2.782  36.525  0.1057 -0.3211  2.6187
 2531TIP3    H229085   0.595   2.893  36.540  0.1069  0.2766 -0.9225
 2532TIP3   OH229086   4.208   2.501  33.842 -0.5043  0.7908  0.3165
 2532TIP3    H129087   4.270   2.566  33.877 -0.9429  0.8197  1.0673
 2532TIP3    H229088   4.192   2.442  33.916  0.7325 -0.8463 -0.6561
 2533TIP3   OH229089   0.866   2.991  39.906 -0.3541 -0.0867 -0.2124
 2533TIP3    H129090   0.812   2.922  39.868 -1.6122  0.5337  0.3685
 2533TIP3    H229091   0.944   2.995  39.851 -1.7486  0.2557 -2.2703
 2534TIP3   OH229092   3.856   3.499   5.779  0.2402 -0.0503  0.4266
 2534TIP3    H129093   3.865   3.428   5.842 -0.4807 -1.8380 -1.3972
 2534TIP3    H229094   3.763   3.504   5.761  0.5010 -0.0402 -1.0082
 2535TIP3   OH229095   0.179   3.827  24.123 -0.3169 -0.4932 -0.3665
 2535TIP3    H129096   0.211   3.744  24.087  1.3691 -0.4937  1.0440
 2535TIP3    H229097   0.214   3.831  24.211 -0.8800  1.4618 -0.1798
 2536TIP3   OH229098   2.460   1.245  32.699  0.4550 -0.2899  0.1530
 2536TIP3    H129099   2.420   1.332  32.697 -0.8806 -0.8751 -1.6660
 2536TIP3    H229100   2.387   1.186  32.717  1.0173 -1.1708 -0.3904
 2537TIP3   OH229101   0.203   1.299   3.449 -1.0004  0.1175  1.0774
 2537TIP3    H129102   0.136   1.366   3.460 -1.4046 -0.1189  0.1410
 2537TIP3    H229103   0.243   1.291   3.535 -2.1003  0.3390  1.6282
 2538TIP3   OH229104   0.241   0.875   4.492 -0.2622 -0.1686 -0.3596
 2538TIP3    H129105   0.149   0.902   4.489 -0.6594 -1.5105 -1.3659
 2538TIP3    H229106   0.287   0.944   4.444 -1.2073 -0.9808 -2.5646
 2539TIP3   OH229107   0.893   1.492  32.961 -0.1646 -0.2463 -0.3135
 2539TIP3    H129108   0.820   1.528  32.911 -0.2489 -0.6261 -0.4720
 2539TIP3    H229109   0.953   1.566  32.975 -0.8120  0.1842  0.2444
 2540TIP3   OH229110   3.471   3.253   7.515  0.6009  0.4158 -0.0369
 2540TIP3    H129111   3.539   3.186   7.514  3.2142  2.8872 -0.9794
 2540TIP3    H229112   3.492   3.309   7.441  0.1067  3.7220  2.1381
 2541TIP3   OH229113   2.394   1.454   3.980  0.0280  0.0446  0.0597
 2541TIP3    H129114   2.337   1.448   3.904 -1.1012 -1.5816  0.9741
 2541TIP3    H229115   2.335   1.441   4.055  1.4059 -0.4391  1.0996
 2542TIP3   OH229116   0.483   0.896   0.162  0.3218 -0.3298 -0.0377
 2542TIP3    H129117   0.553   0.897   0.097  0.7301 -0.3711  0.3983
 2542TIP3    H229118   0.421   0.961   0.129  0.6784 -0.1127 -0.3023
 2543TIP3   OH229119   2.149   3.919  36.831  0.1081  0.2047  0.4156
 2543TIP3    H129120   2.177   3.971  36.907  1.7148  0.2270 -0.1434
 2543TIP3    H229121   2.215   3.938  36.764 -1.2890  0.2119 -1.0200
 2544TIP3   OH229122   4.251   1.385  23.381 -0.0703 -0.0295  0.3992
 2544TIP3    H129123   4.287   1.324  23.445 -0.4026  0.1870  0.8008
 2544TIP3    H229124   4.272   1.472  23.417  1.4898  0.1196 -0.7767
 2545TIP3   OH229125   1.688   2.534  30.599 -0.8232 -0.0300 -0.2143
 2545TIP3    H129126   1.713   2.534  30.692  2.5434  1.0796 -0.9714
 2545TIP3    H229127   1.705   2.444  30.571 -0.6729 -0.0764  0.0140
 2546TIP3   OH229128   1.115   2.381  26.893 -0.0666  0.1566 -0.0630
 2546TIP3    H129129   1.029   2.345  26.871 -0.1266 -0.1284  0.6385
 2546TIP3    H229130   1.114   2.468  26.853 -0.6078  0.0821 -0.2274
 2547TIP3   OH229131   0.140   3.166  29.086 -0.3768  0.0515  0.1982
 2547TIP3    H129132   0.225   3.171  29.043 -0.1712 -2.6177  0.1268
 2547TIP3    H229133   0.081   3.218  29.031  0.6869 -0.1410 -1.1655
 2548TIP3   OH229134   0.933   3.216  13.628  0.2894  0.1074  0.2303
 2548TIP3    H129135   0.929   3.223  13.533 -0.2338  1.0930  0.3160
 2548TIP3    H229136   1.019   3.251  13.651 -0.0773  1.0398  0.2100
 2549TIP3   OH229137   0.776   2.509  40.406  1.0863  0.3153  0.7425
 2549TIP3    H129138   0.825   2.521  40.324  1.4200 -0.8416  0.7561
 2549TIP3    H229139   0.807   2.425  40.441 -1.7420 -1.1139  0.1409
 2550TIP3   OH229140   0.595   2.157  14.794  0.0087 -0.3645 -0.1772
 2550TIP3    H129141   0.641   2.077  14.818  0.5913 -1.2302 -3.6789
 2550TIP3    H229142   0.502   2.135  14.804  0.1857 -1.1269 -0.1765
 2551TIP3   OH229143   3.499   4.120   4.583  0.0159  0.4321 -0.3852
 2551TIP3    H129144   3.525   4.156   4.668  1.1001  0.0366 -0.5296
 2551TIP3    H229145   3.532   4.184   4.519 -0.5501  0.5882 -0.5246
 2552TIP3   OH229146   0.717   2.318  32.068  0.6474 -0.2642 -0.6714
 2552TIP3    H129147   0.688   2.376  32.137  0.5635  0.1437 -1.0471
 2552TIP3    H229148   0.775   2.256  32.111  1.6091  0.7600 -0.4568
 2553TIP3   OH229149   1.465   2.318  14.122  0.6224 -0.7007  0.1061
 2553TIP3    H129150   1.520   2.351  14.051  1.4820 -1.2724  0.5001
 2553TIP3    H229151   1.375   2.334  14.091  0.9243 -2.1580 -1.7408
 2554TIP3   OH229152   3.511   4.246  32.369 -0.1033  0.2173  0.4093
 2554TIP3    H129153   3.558   4.168  32.340  0.2729  0.2546  0.9051
 2554TIP3    H229154   3.421   4.215  32.384  0.0156 -0.0969  0.4838
 2555TIP3   OH229155   3.139   1.436   8.378 -0.4209 -0.0512  0.0346
 2555TIP3    H129156   3.046   1.445   8.358 -0.6159 -1.2345  0.3288
 2555TIP3    H229157   3.155   1.342   8.378  0.4113  0.0530  1.5822
 2556TIP3   OH229158   3.516   2.014   6.521 -0.1191 -0.3379 -0.0374
 2556TIP3    H129159   3.471   2.010   6.606 -2.5017  1.2834 -1.1025
 2556TIP3    H229160   3.555   2.101   6.518  1.5643 -1.0556  0.0919
 2557TIP3   OH229161   3.575   3.782   5.046  0.0392  0.3145  0.3256
 2557TIP3    H129162   3.586   3.875   5.026  0.2287  0.2807  0.2713
 2557TIP3    H229163   3.480   3.769   5.049  0.0088  0.6338  0.9074
 2558TIP3   OH229164   4.258   3.706  29.561 -0.4141  0.0616 -0.2474
 2558TIP3    H129165   4.276   3.658  29.641 -2.2951 -1.9305 -0.9304
 2558TIP3    H229166   4.209   3.783  29.590 -0.2919 -0.1684  0.5866
 2559TIP3   OH229167   0.033   4.215  37.963 -0.1274 -0.1079  0.5144
 2559TIP3    H129168   0.049   4.191  37.872 -1.1128  0.6198  0.1364
 2559TIP3    H229169   0.109   4.180  38.011  1.1383  0.7756 -0.7766
 2560TIP3   OH229170   0.531   0.855   3.795 -0.3092  0.2060  0.4934
 2560TIP3    H129171   0.463   0.787   3.799 -1.9869  1.3771 -3.1723
 2560TIP3    H229172   0.488   0.934   3.828  0.3616  0.3172  1.1225
 2561TIP3   OH229173   3.449   1.780   7.978  0.2112  0.5926  0.4015
 2561TIP3    H129174   3.488   1.751   7.895 -0.7961  0.5676 -0.0824
 2561TIP3    H229175   3.439   1.700   8.029 -2.0538  0.0575 -0.7146
 2562TIP3   OH229176   3.947   3.761  28.645 -0.1990  0.0699 -0.4901
 2562TIP3    H129177   3.957   3.671  28.678 -0.8436  0.1390 -0.0604
 2562TIP3    H229178   3.854   3.781  28.661 -0.2126  0.5790 -1.1821
 2563TIP3   OH229179   0.749   2.232  11.241 -0.0646 -0.0951  0.3007
 2563TIP3    H129180   0.757   2.284  11.321 -2.8342  0.6636  0.1901
 2563TIP3    H229181   0.806   2.277  11.178 -0.0792  1.0321  1.0587
 2564TIP3   OH229182   0.145   1.276   4.545  0.7802  0.3475 -0.1873
 2564TIP3    H129183   0.171   1.217   4.475 -0.4933 -0.2917 -0.1599
 2564TIP3    H229184   0.087   1.340   4.503 -0.2942 -0.2608  0.3150
 2565TIP3   OH229185   1.474   1.810  32.571 -0.1458  0.5672  0.7953
 2565TIP3    H129186   1.453   1.722  32.541  0.1255  0.4326  0.9929
 2565TIP3    H229187   1.526   1.797  32.650  1.9537  0.8610 -0.4568
 2566TIP3   OH229188   0.531   2.575  25.954  0.1204 -0.0507  0.0370
 2566TIP3    H129189   0.620   2.611  25.957 -0.4426  1.3359  1.2216
 2566TIP3    H229190   0.516   2.541  26.042  0.6273 -3.4272 -1.0020
 2567TIP3   OH229191   4.267   2.067   4.195  0.0059  0.7507  0.4157
 2567TIP3    H129192   4.280   1.972   4.206 -0.5599  0.5836 -0.2685
 2567TIP3    H229193   4.289   2.083   4.104  0.7559  1.4071  0.7053
 2568TIP3   OH229194   0.598   1.201   6.317  0.4811 -0.7335 -0.2072
 2568TIP3    H129195   0.626   1.135   6.381  3.0637 -1.2092 -1.6981
 2568TIP3    H229196   0.650   1.183   6.239 -2.0536  0.2577 -2.2914
 2569TIP3   OH229197   2.738   3.156   3.175  0.0362 -0.3180  0.2103
 2569TIP3    H129198   2.688   3.081   3.144 -2.8205  1.0678  1.0810
 2569TIP3    H229199   2.826   3.143   3.140 -1.1097 -2.5052 -2.1547
 2570TIP3   OH229200   1.274   3.383   4.401 -0.4775  0.6006 -0.1179
 2570TIP3    H129201   1.321   3.446   4.347  0.5395 -1.0110 -1.2084
 2570TIP3    H229202   1.183   3.411   4.396 -0.0700  1.9267 -0.6203
 2571TIP3   OH229203   1.025   1.803   6.589  0.4085 -0.0289 -0.4220
 2571TIP3    H129204   0.974   1.760   6.658 -1.5706  1.0211 -1.1500
 2571TIP3    H229205   1.082   1.864   6.635  0.2760 -0.4778  0.3522
 2572TIP3   OH229206   2.658   3.988   4.778  0.5851  0.0338 -0.5295
 2572TIP3    H129207   2.567   3.966   4.799  1.2038 -2.1509  0.1353
 2572TIP3    H229208   2.656   4.010   4.685 -0.6869  0.5724 -0.4012
 2573TIP3   OH229209   1.015   0.644  27.984 -0.1376 -0.2970  0.3845
 2573TIP3    H129210   0.956   0.608  27.918  1.2429 -0.6953 -0.6802
 2573TIP3    H229211   1.070   0.570  28.009  1.6335  0.6475 -0.5822
 2574TIP3   OH229212   3.651   0.943  20.750 -0.6398 -0.2967  0.3383
 2574TIP3    H129213   3.607   0.967  20.831 -0.8567 -1.1451  0.4743
 2574TIP3    H229214   3.685   1.026  20.716 -0.4218  0.0421  1.3600
 2575TIP3   OH229215   1.388   2.998  40.185  0.2216  0.2178 -0.4726
 2575TIP3    H129216   1.293   2.989  40.193  0.1128  0.7912 -1.0610
 2575TIP3    H229217   1.408   3.078  40.234  0.6240 -0.7937  1.0724
 2576TIP3   OH229218   0.923   0.943  40.201  0.3707 -0.2608 -0.1953
 2576TIP3    H129219   0.922   0.847  40.192 -0.8521 -0.2402 -0.3555
 2576TIP3    H229220   0.900   0.975  40.114  0.2483  0.1740 -0.0013
 2577TIP3   OH229221   3.518   2.615   4.285  0.0830  0.5246 -0.4358
 2577TIP3    H129222   3.577   2.623   4.360 -1.3315  1.2328  0.6601
 2577TIP3    H229223   3.535   2.692   4.232 -0.1705  0.9825  0.1337
 2578TIP3   OH229224   4.258   0.505   7.245  0.1933  1.0002 -0.1580
 2578TIP3    H129225   4.239   0.440   7.178  1.2625  0.6698 -0.1640
 2578TIP3    H229226   4.207   0.582   7.220 -0.3838  0.4643 -0.6528
 2579TIP3   OH229227   3.229   3.413  10.187 -0.3862 -0.4447 -0.0325
 2579TIP3    H129228   3.163   3.415  10.256  0.5022  0.0994  0.8311
 2579TIP3    H229229   3.230   3.502  10.152 -0.2090 -0.4857 -0.1341
 2580TIP3   OH229230   0.469   1.397  37.486 -0.0056  0.2034  0.1146
 2580TIP3    H129231   0.405   1.444  37.539 -0.5032 -1.1740  0.7911
 2580TIP3    H229232   0.547   1.391  37.542 -0.1031 -0.1760  0.2100
 2581TIP3   OH229233   1.362   0.352  34.794  0.3575  0.2651 -0.5609
 2581TIP3    H129234   1.362   0.273  34.848 -2.1068 -0.3689 -1.3684
 2581TIP3    H229235   1.446   0.349  34.748  0.8334 -1.2474  0.3241
 2582TIP3   OH229236   3.358   2.188   2.021  0.2865  0.2686  0.4155
 2582TIP3    H129237   3.378   2.223   1.935 -4.3356 -0.2785 -1.1594
 2582TIP3    H229238   3.365   2.093   2.011 -0.9129  0.1655  0.3586
 2583TIP3   OH229239   0.431   1.159  36.692  0.1268 -0.3981  0.0737
 2583TIP3    H129240   0.461   1.215  36.621 -1.5328  1.0523  0.4310
 2583TIP3    H229241   0.501   1.163  36.757  1.1399 -0.7978 -0.9653
 2584TIP3   OH229242   2.437   0.125  30.987 -0.2141 -0.2505 -0.0222
 2584TIP3    H129243   2.422   0.165  31.073 -0.3077 -0.0449 -0.1335
 2584TIP3    H229244   2.361   0.068  30.974  0.3176 -1.0998  0.4972
 2585TIP3   OH229245   0.659   0.853  40.888  0.5768  0.6526 -0.0441
 2585TIP3    H129246   0.690   0.794  40.819 -1.3780 -0.4381 -0.0831
 2585TIP3    H229247   0.670   0.940  40.851  0.7569  0.1518 -1.2439
 2586TIP3   OH229248   3.062   4.157   2.282 -0.4983  0.5173 -0.1930
 2586TIP3    H129249   3.055   4.224   2.214  1.0971 -0.5370 -1.4840
 2586TIP3    H229250   3.001   4.185   2.350 -2.0163  1.7432 -1.9560
 2587TIP3   OH229251   3.558   0.972  37.511  0.4058 -0.2185  0.1331
 2587TIP3    H129252   3.549   0.907  37.441  1.3959 -0.1333 -0.0802
 2587TIP3    H229253   3.473   1.014  37.515 -0.4367 -1.8634  0.6012
 2588TIP3   OH229254   4.316   2.889  32.793  0.1619  0.1183  0.2397
 2588TIP3    H129255   4.231   2.932  32.785 -0.9209 -2.0334 -0.7794
 2588TIP3    H229256   4.306   2.834  32.871  1.1835  0.9339  0.9742
 2589TIP3   OH229257   2.336   0.496  37.183  0.4532 -0.3343  0.1947
 2589TIP3    H129258   2.414   0.476  37.235  0.1924 -1.6212  0.1262
 2589TIP3    H229259   2.353   0.583  37.146  0.6029  0.7119  2.5003
 2590TIP3   OH229260   3.993   0.095  10.633  0.4277 -0.0403 -0.4662
 2590TIP3    H129261   4.074   0.129  10.671  0.4554  0.1056 -0.6532
 2590TIP3    H229262   3.990   0.134  10.545  0.2262 -0.1565 -0.5105
 2591TIP3   OH229263   0.129   3.563  34.390 -0.4245  0.0783  0.1851
 2591TIP3    H129264   0.082   3.634  34.432  1.7020  0.7550  1.5552
 2591TIP3    H229265   0.123   3.582  34.296  0.3087  2.2454  0.5298
 2592TIP3   OH229266   3.765   4.342  31.619 -0.0726  0.2598  0.7433
 2592TIP3    H129267   3.680   4.302  31.638  0.6727 -1.1473  1.2825
 2592TIP3    H229268   3.825   4.298  31.679  1.4929 -0.6411 -1.4041
 2593TIP3   OH229269   2.330   3.060   9.520 -0.0476  0.5940 -0.6013
 2593TIP3    H129270   2.263   3.081   9.584 -0.1835 -1.1381 -0.1429
 2593TIP3    H229271   2.282   3.038   9.440  0.0126  0.2217 -0.5352
 2594TIP3   OH229272   1.419   2.175  14.754 -0.2158 -0.3937 -0.1136
 2594TIP3    H129273   1.441   2.264  14.726  0.6888  0.0756  1.9103
 2594TIP3    H229274   1.334   2.184  14.798 -0.4033 -0.6477 -0.4186
 2595TIP3   OH229275   0.648   4.107   8.520  0.0563 -0.1171 -0.3384
 2595TIP3    H129276   0.615   4.197   8.510 -0.9909 -0.5635 -1.1585
 2595TIP3    H229277   0.659   4.096   8.614 -1.5464  0.3001 -0.0747
 2596TIP3   OH229278   2.401   1.687  38.044  0.1169  0.3313  0.4294
 2596TIP3    H129279   2.360   1.711  38.126  0.2732  1.1491  0.2797
 2596TIP3    H229280   2.409   1.770  37.995 -0.4706 -0.2155 -0.6322
 2597TIP3   OH229281   4.299   4.394   8.527  0.0140 -0.1020  0.3685
 2597TIP3    H129282   4.331   4.354   8.446  1.1857  1.5958 -0.0515
 2597TIP3    H229283   4.237   4.330   8.562  0.1858 -1.2908 -1.3737
 2598TIP3   OH229284   2.844   4.166   6.778 -0.1797 -0.0275 -0.2808
 2598TIP3    H129285   2.753   4.137   6.770  0.4320 -1.8773 -1.1590
 2598TIP3    H229286   2.860   4.170   6.873 -1.5291  1.6635 -0.0784
 2599TIP3   OH229287   2.643   0.675  40.038  1.2649  0.3348 -0.9375
 2599TIP3    H129288   2.616   0.712  40.123  1.8456 -0.8712 -0.1996
 2599TIP3    H229289   2.579   0.710  39.976  0.7579  1.1589  0.0085
 2600TIP3   OH229290   2.862   1.083  29.933 -0.1591  0.1322  0.1484
 2600TIP3    H129291   2.812   1.039  29.864  0.0418  0.3952 -0.1693
 2600TIP3    H229292   2.841   1.176  29.923 -1.0731  0.0487  1.2223
 2601TIP3   OH229293   3.218   1.986   4.318 -0.2583 -0.0135  0.3777
 2601TIP3    H129294   3.260   1.984   4.232 -2.4339 -1.2840 -0.7333
 2601TIP3    H229295   3.280   1.942   4.376  1.7015  1.7374 -0.2343
 2602TIP3   OH229296   0.250   2.928   2.118  0.0033  0.0564 -0.0654
 2602TIP3    H129297   0.288   2.841   2.131 -1.9910 -0.6766  1.5366
 2602TIP3    H229298   0.215   2.951   2.204 -2.4090  0.9535 -1.1950
 2603TIP3   OH229299   3.762   4.007   9.483 -0.3571 -1.0099  0.3947
 2603TIP3    H129300   3.693   4.006   9.416 -0.7866 -1.6445  0.8377
 2603TIP3    H229301   3.730   3.948   9.551 -0.9426  1.2299  2.1944
 2604TIP3   OH229302   0.082   1.499   7.554 -0.5447  0.2816  0.6206
 2604TIP3    H129303   0.097   1.422   7.610 -0.3689 -0.6786 -0.6941
 2604TIP3    H229304  -0.011   1.493   7.531 -1.7399  2.9146  3.9559
 2605TIP3   OH229305   3.951   4.130  11.788 -0.2565 -0.3115  1.3134
 2605TIP3    H129306   4.009   4.202  11.765 -1.9540  0.6724 -0.1751
 2605TIP3    H229307   3.902   4.162  11.864  0.0567 -0.5294  1.6105
 2606TIP3   OH229308   0.275   2.557  12.395  0.1315  0.1848 -0.0504
 2606TIP3    H129309   0.278   2.577  12.489  2.8069  1.6441 -0.3671
 2606TIP3    H229310   0.273   2.642  12.352  1.8112 -0.3748 -1.3326
 2607TIP3   OH229311   2.044   2.329   8.188  0.3992  0.0550  0.6407
 2607TIP3    H129312   2.083   2.272   8.254  2.0918  0.8083  0.3633
 2607TIP3    H229313   1.962   2.358   8.226  0.3910 -1.0938  1.5546
 2608TIP3   OH229314   0.357   4.035   7.334  0.0918 -0.5390  0.3185
 2608TIP3    H129315   0.349   4.110   7.392  2.6338 -0.2673  0.4449
 2608TIP3    H229316   0.267   4.006   7.319 -0.7855  0.8874  2.3873
 2609TIP3   OH229317   1.438   3.810   7.098  0.3360 -0.4447  0.0106
 2609TIP3    H129318   1.371   3.756   7.055  0.2167 -0.7358  0.5533
 2609TIP3    H229319   1.449   3.885   7.040 -1.2907  0.1928  0.4709
 2610TIP3   OH229320   2.651   2.265  28.494  0.3225 -0.1862 -0.2357
 2610TIP3    H129321   2.684   2.178  28.470 -0.1185 -0.5300  0.3713
 2610TIP3    H229322   2.608   2.252  28.578 -0.7892  0.3662 -0.6905
 2611TIP3   OH229323   2.266   0.421  35.438  0.4548 -0.0630 -0.1856
 2611TIP3    H129324   2.338   0.374  35.396 -0.1917 -0.4427 -0.8832
 2611TIP3    H229325   2.190   0.364  35.427 -0.0571  0.5463  0.1233
 2612TIP3   OH229326   4.270   1.540  12.304 -0.0695  0.3611  0.8475
 2612TIP3    H129327   4.266   1.536  12.399  0.4020 -0.1625  0.8516
 2612TIP3    H229328   4.277   1.448  12.276 -1.7667  0.3884  0.2261
 2613TIP3   OH229329   3.124   0.532  29.951 -0.2874 -0.5610 -0.3265
 2613TIP3    H129330   3.092   0.601  30.009  0.4777  0.5190 -1.1328
 2613TIP3    H229331   3.162   0.467  30.010 -1.9981 -0.8586  0.5203
 2614TIP3   OH229332   1.231   2.146  17.030  0.1410 -0.2949  0.3381
 2614TIP3    H129333   1.196   2.187  16.951  0.9760 -0.9951 -0.4195
 2614TIP3    H229334   1.168   2.077  17.051 -0.0856 -0.1052  0.2836
 2615TIP3   OH229335   1.484   4.282   5.401 -0.5033 -0.0891  0.1482
 2615TIP3    H129336   1.562   4.312   5.354  0.3164 -1.0316  0.8543
 2615TIP3    H229337   1.414   4.285   5.336 -0.0080  1.2714 -0.3656
 2616TIP3   OH229338   4.340   3.528  10.147 -0.5966 -0.0408  0.2745
 2616TIP3    H129339   4.246   3.539  10.137 -0.5916 -0.9047 -1.0819
 2616TIP3    H229340   4.375   3.537  10.058  0.5857  0.0806  0.7232
 2617TIP3   OH229341   1.067   1.303   1.573  0.2289  0.1826 -0.3083
 2617TIP3    H129342   1.074   1.328   1.665  0.8370  0.9310 -0.5516
 2617TIP3    H229343   1.013   1.224   1.574 -0.3166  0.5540  0.6294
 2618TIP3   OH229344   2.327   3.446  35.056 -0.8911 -0.5742  0.1339
 2618TIP3    H129345   2.280   3.436  34.973  0.4187 -1.7101 -0.5107
 2618TIP3    H229346   2.398   3.507  35.036 -3.1294  2.8303  1.6147
 2619TIP3   OH229347   1.398   3.100  17.617  0.8926 -0.5362  0.3993
 2619TIP3    H129348   1.319   3.078  17.667 -0.2657 -1.3830 -1.6705
 2619TIP3    H229349   1.400   3.196  17.616 -1.2544 -0.4295 -1.0818
 2620TIP3   OH229350   2.096   3.390  31.177 -0.2522  0.6616 -0.2396
 2620TIP3    H129351   2.032   3.338  31.225  1.0559  0.1823  1.0518
 2620TIP3    H229352   2.177   3.339  31.182  1.1496  2.8603  1.2643
 2621TIP3   OH229353   1.995   3.042   3.195  0.1421 -0.2061  0.4338
 2621TIP3    H129354   1.930   3.112   3.195  0.7178  0.4792 -2.4485
 2621TIP3    H229355   1.951   2.968   3.236 -1.4362  1.0509  1.1104
 2622TIP3   OH229356   0.375   0.092  38.896  0.6095  0.6131 -0.1569
 2622TIP3    H129357   0.420   0.125  38.974 -0.0719 -1.4275  1.2113
 2622TIP3    H229358   0.436   0.028  38.859 -0.4364 -1.0240  0.8152
 2623TIP3   OH229359   3.080   2.283  33.893 -0.1559 -0.5280 -0.1398
 2623TIP3    H129360   3.010   2.235  33.938 -1.0125 -0.3306 -1.2158
 2623TIP3    H229361   3.110   2.222  33.826 -0.2497 -0.0951 -0.5752
 2624TIP3   OH229362   1.572   2.400   3.514  0.5058  0.3092 -0.5612
 2624TIP3    H129363   1.503   2.368   3.455  0.8290 -0.7598 -0.3921
 2624TIP3    H229364   1.644   2.422   3.456  0.9826 -1.1605 -0.5687
 2625TIP3   OH229365   1.477   1.165  34.646  0.1888 -0.2873 -0.4763
 2625TIP3    H129366   1.475   1.081  34.693  0.2013 -1.1673 -2.0107
 2625TIP3    H229367   1.387   1.199  34.654  0.4558  0.1472  1.1192
 2626TIP3   OH229368   3.585   0.749   8.929 -0.1571  0.1570  0.3256
 2626TIP3    H129369   3.558   0.681   8.868  0.5701  1.6590 -1.7719
 2626TIP3    H229370   3.536   0.827   8.903  0.4848  0.9569  1.3884
 2627TIP3   OH229371   3.881   3.242  23.104  0.2449  0.4580 -0.4015
 2627TIP3    H129372   3.945   3.259  23.174 -1.0905 -1.9906  1.5812
 2627TIP3    H229373   3.796   3.262  23.144 -0.4505  1.1317 -2.1155
 2628TIP3   OH229374   2.380   3.352  28.203  0.0888  0.1726  0.9694
 2628TIP3    H129375   2.436   3.376  28.277 -0.1391  1.0463  0.8676
 2628TIP3    H229376   2.295   3.392  28.224  0.0211  0.4240  0.2405
 2629TIP3   OH229377   2.171   3.458  29.029 -0.3939 -0.2858 -0.2936
 2629TIP3    H129378   2.183   3.364  29.018  0.9539  0.0898 -2.5262
 2629TIP3    H229379   2.100   3.481  28.970  0.8771  0.4000 -1.6445
 2630TIP3   OH229380   4.109   0.241  13.317  0.0903 -0.2717  0.3532
 2630TIP3    H129381   4.064   0.270  13.238 -1.4283 -0.4270  1.1189
 2630TIP3    H229382   4.200   0.268  13.305  0.0905 -1.0696 -1.8168
 2631TIP3   OH229383   2.227   0.184  37.925 -0.3016 -0.2812 -0.3699
 2631TIP3    H129384   2.303   0.140  37.888 -0.7105 -0.3622 -1.1346
 2631TIP3    H229385   2.152   0.142  37.884 -0.7755 -0.2859  0.4655
 2632TIP3   OH229386   1.221   3.166  28.156  0.0214 -0.4920  0.0475
 2632TIP3    H129387   1.177   3.101  28.101  0.5182 -1.5134  0.8051
 2632TIP3    H229388   1.272   3.113  28.218  1.7026  0.6291 -0.3111
 2633TIP3   OH229389   3.691   2.283  27.707  0.2205 -0.2440  0.0027
 2633TIP3    H129390   3.740   2.221  27.760  0.0801  0.7875  1.3878
 2633TIP3    H229391   3.636   2.228  27.651  0.3389 -1.3758  0.9564
 2634TIP3   OH229392   3.043   3.574   2.515  0.3916 -0.2223 -0.1608
 2634TIP3    H129393   3.065   3.665   2.533  0.4389 -0.4256  0.8677
 2634TIP3    H229394   3.040   3.568   2.420 -0.9695  1.1888 -0.2410
 2635TIP3   OH229395   2.184   2.931  36.417  0.4790  0.2339  0.2230
 2635TIP3    H129396   2.136   2.863  36.369 -0.9287  1.7539 -0.6421
 2635TIP3    H229397   2.117   2.978  36.465  1.5767  0.3387  1.7265
 2636TIP3   OH229398   0.606   2.722  40.383 -0.6116  0.5386  0.2052
 2636TIP3    H129399   0.662   2.646  40.399  1.6799  2.2545  0.8796
 2636TIP3    H229400   0.556   2.699  40.305  0.8189 -1.2142 -0.2616
 2637TIP3   OH229401   2.806   4.314   1.241 -0.4329 -0.0639  0.6149
 2637TIP3    H129402   2.813   4.222   1.217  1.8983  0.2670 -0.2843
 2637TIP3    H229403   2.791   4.359   1.158  1.8119  0.5891  0.4902
 2638TIP3   OH229404   4.350   4.239   9.875  0.1848 -0.5490 -0.1709
 2638TIP3    H129405   4.269   4.190   9.888  1.7283 -2.3682  5.0739
 2638TIP3    H229406   4.417   4.171   9.864  1.5899  0.5596  1.0919
 2639TIP3   OH229407   4.189   2.194  30.211  0.0265  0.1365 -0.3376
 2639TIP3    H129408   4.158   2.240  30.289 -1.5960 -2.0663  0.4270
 2639TIP3    H229409   4.218   2.264  30.152  1.5223  1.8875  2.2596
 2640TIP3   OH229410   1.382   2.553  10.316 -0.4805 -0.1691  0.0396
 2640TIP3    H129411   1.456   2.607  10.346  0.2460 -0.9021 -0.3962
 2640TIP3    H229412   1.375   2.573  10.222  0.8194 -1.9660 -0.4905
 2641TIP3   OH229413   0.084   0.676  31.368 -0.1583 -0.1550 -0.5393
 2641TIP3    H129414   0.149   0.712  31.308 -0.9830  0.2177 -1.2348
 2641TIP3    H229415   0.133   0.652  31.447  0.4170  2.8393  0.1360
 2642TIP3   OH229416   1.498   3.552  31.116  0.1899  0.7050 -0.6702
 2642TIP3    H129417   1.455   3.568  31.200  1.0984  1.2779 -0.3023
 2642TIP3    H229418   1.585   3.520  31.139 -0.3182 -1.3457 -1.4036
 2643TIP3   OH229419   2.839   3.113  33.729 -0.1922  0.0146  0.1378
 2643TIP3    H129420   2.910   3.155  33.680  0.2927  0.9647  1.5979
 2643TIP3    H229421   2.775   3.089  33.662  1.7881 -1.5734 -1.3498
 2644TIP3   OH229422   4.154   0.130   5.730 -0.2309 -0.1852 -0.2705
 2644TIP3    H129423   4.148   0.224   5.749 -0.3730 -0.7335  2.9851
 2644TIP3    H229424   4.065   0.097   5.743  0.0431 -0.9329 -0.2323
 2645TIP3   OH229425   3.014   0.838  31.672 -0.3428  0.4047  0.5363
 2645TIP3    H129426   2.921   0.859  31.667 -0.2551  0.9134  0.9774
 2645TIP3    H229427   3.057   0.910  31.624 -0.0932  0.8439  1.4044
 2646TIP3   OH229428   1.294   1.263  33.142 -0.2596 -0.0181  0.6860
 2646TIP3    H129429   1.306   1.285  33.049 -1.6532  1.2913  0.7789
 2646TIP3    H229430   1.380   1.279  33.181  0.3372 -0.5516 -0.3597
 2647TIP3   OH229431   0.151   3.179  22.636  0.6476 -0.1722 -0.2033
 2647TIP3    H129432   0.115   3.191  22.548  2.2183 -0.7248 -0.9505
 2647TIP3    H229433   0.161   3.267  22.670  0.7537  0.0867 -0.8830
 2648TIP3   OH229434   3.994   0.189  30.789  0.1787  0.3134 -0.7105
 2648TIP3    H129435   4.037   0.190  30.703  0.5059  1.8569 -0.5679
 2648TIP3    H229436   3.904   0.217  30.770  0.5993  1.9865 -0.4349
 2649TIP3   OH229437   3.776   1.199  24.358  0.6060 -0.0335 -0.3464
 2649TIP3    H129438   3.859   1.179  24.316  0.8302  0.4569 -0.1375
 2649TIP3    H229439   3.717   1.130  24.327  0.4810  0.8783 -2.2698
 2650TIP3   OH229440   4.372   2.198  33.091  0.5186  0.5274 -0.2049
 2650TIP3    H129441   4.398   2.200  32.999  1.0732  0.2351 -0.0596
 2650TIP3    H229442   4.278   2.214  33.090  0.7562  1.9584 -0.7168
 2651TIP3   OH229443   4.049   0.860   5.708  0.0923 -0.2509  0.8070
 2651TIP3    H129444   4.018   0.897   5.625  0.1280 -0.6882  0.5960
 2651TIP3    H229445   4.012   0.772   5.710  1.2121 -0.7353  0.6149
 2652TIP3   OH229446   3.328   2.895  38.911  0.1825 -0.3993  0.0778
 2652TIP3    H129447   3.244   2.895  38.865  0.2525  1.3344 -0.0933
 2652TIP3    H229448   3.392   2.918  38.843  0.6509 -0.5970  0.4499
 2653TIP3   OH229449   4.247   1.901   8.790 -0.2203  0.1294  0.3235
 2653TIP3    H129450   4.311   1.832   8.767 -2.2696 -0.9709 -2.6386
 2653TIP3    H229451   4.186   1.858   8.849  1.3043  1.0171  2.6814
 2654TIP3   OH229452   2.308   1.878  10.199  0.9258  0.2750 -0.8525
 2654TIP3    H129453   2.378   1.846  10.257  0.9016  0.6208 -0.6319
 2654TIP3    H229454   2.349   1.879  10.112  1.5641  1.5549 -0.5613
 2655TIP3   OH229455   0.256   4.087   7.031 -0.1082 -0.5740 -0.1634
 2655TIP3    H129456   0.342   4.074   6.991  0.3486 -1.4542  1.0621
 2655TIP3    H229457   0.196   4.038   6.974  0.2840 -0.4506 -0.6903
 2656TIP3   OH229458   2.178   3.553   8.053 -0.3084 -0.3654  0.0356
 2656TIP3    H129459   2.140   3.632   8.015  0.9245  0.2607  0.0657
 2656TIP3    H229460   2.125   3.535   8.130  0.0213  1.0335  0.6185
 2657TIP3   OH229461   2.553   1.082  26.991  0.1275  0.2084 -0.1065
 2657TIP3    H129462   2.582   1.072  27.081  1.5145 -0.2033 -0.5700
 2657TIP3    H229463   2.484   1.148  26.994  0.0492  0.0774  1.2630
 2658TIP3   OH229464   1.707   1.432  38.181 -0.4273  0.5316 -0.0812
 2658TIP3    H129465   1.613   1.436  38.163 -0.3314 -0.6856 -0.9718
 2658TIP3    H229466   1.749   1.460  38.100 -0.0150  1.3425  0.4021
 2659TIP3   OH229467   1.383   0.508  29.748  0.0809 -0.7011  0.3320
 2659TIP3    H129468   1.447   0.516  29.676 -0.0097  0.9214  0.4049
 2659TIP3    H229469   1.428   0.545  29.824 -1.2910  1.5064  0.1377
 2660TIP3   OH229470   0.291   2.820   4.531 -0.3334  0.1249  0.1042
 2660TIP3    H129471   0.381   2.816   4.499  0.0934  1.2021  1.0877
 2660TIP3    H229472   0.255   2.734   4.511  0.3118  0.2673 -2.0001
 2661TIP3   OH229473   2.479   1.019  37.866  0.5892 -0.0780  0.1096
 2661TIP3    H129474   2.460   0.928  37.841  1.1339 -0.2321  0.2383
 2661TIP3    H229475   2.406   1.044  37.923 -0.3347  0.0538 -1.0763
 2662TIP3   OH229476   1.883   3.435  38.088  0.6403 -0.2073  0.2505
 2662TIP3    H129477   1.866   3.527  38.069 -1.1884 -0.9153 -2.0080
 2662TIP3    H229478   1.978   3.425  38.080  1.0544  1.6979  1.9698
 2663TIP3   OH229479   3.187   0.711  29.338  0.3525  0.5327 -0.2355
 2663TIP3    H129480   3.279   0.729  29.359  0.6894 -2.1244  1.0721
 2663TIP3    H229481   3.145   0.700  29.424 -0.3808 -1.5472 -0.7952
 2664TIP3   OH229482   3.282   4.018  33.070  0.2870  0.4600 -0.3608
 2664TIP3    H129483   3.315   3.931  33.091 -0.3266 -0.2036 -1.9527
 2664TIP3    H229484   3.311   4.074  33.143  1.9607 -0.7622 -0.0335
 2665TIP3   OH229485   0.339   3.754  32.361 -0.6383 -0.0538 -0.1279
 2665TIP3    H129486   0.390   3.835  32.347 -2.2772  1.2912  1.1868
 2665TIP3    H229487   0.377   3.716  32.440 -0.9580  0.3634  0.2308
 2666TIP3   OH229488   1.228   1.505  32.790  0.1739  0.5594 -0.9381
 2666TIP3    H129489   1.168   1.558  32.738 -3.0207 -0.9020  1.0055
 2666TIP3    H229490   1.199   1.415  32.778  1.9305 -0.2279  0.1983
 2667TIP3   OH229491   0.965   1.259  32.568 -0.2885  0.0421 -0.4029
 2667TIP3    H129492   1.040   1.224  32.520 -0.3243 -0.3668 -0.1582
 2667TIP3    H229493   0.888   1.230  32.518 -0.4141 -1.6918  0.6954
 2668TIP3   OH229494   3.777   2.382  39.873 -0.0879 -0.4044 -0.1192
 2668TIP3    H129495   3.733   2.326  39.808 -0.1941 -1.9639  1.2292
 2668TIP3    H229496   3.784   2.327  39.951  0.3584  1.3004  1.0941
 2669TIP3   OH229497   0.306   2.203  35.029 -0.0460  0.2451 -0.0333
 2669TIP3    H129498   0.368   2.235  34.963  0.7339  2.1982  1.5363
 2669TIP3    H229499   0.358   2.146  35.086 -0.5123 -0.7546 -0.5897
 2670TIP3   OH229500   3.031   0.324  37.180 -0.0016 -0.5469 -0.2361
 2670TIP3    H129501   2.998   0.234  37.192  1.8559 -1.1623  0.5865
 2670TIP3    H229502   3.126   0.316  37.187  0.2601  1.3758 -1.0651
 2671TIP3   OH229503   2.809   1.138  30.440 -0.2019 -0.5149  0.1165
 2671TIP3    H129504   2.843   1.086  30.367  1.0806 -0.6776  0.8108
 2671TIP3    H229505   2.754   1.077  30.489  0.1777 -0.8332  0.1514
 2672TIP3   OH229506   1.798   3.578  40.243 -0.0297  0.5470 -0.1831
 2672TIP3    H129507   1.765   3.491  40.263  1.9579 -0.3483 -0.5186
 2672TIP3    H229508   1.734   3.615  40.182  0.1772 -1.5810 -1.8094
 2673TIP3   OH229509   4.042   2.053  34.974 -1.0035  0.4901 -0.0156
 2673TIP3    H129510   4.051   1.958  34.985 -0.4638  0.3846 -1.2438
 2673TIP3    H229511   3.985   2.080  35.046 -0.6590 -0.6705  0.7174
 2674TIP3   OH229512   1.572   2.746  38.521 -0.2317 -0.5217 -0.4455
 2674TIP3    H129513   1.484   2.711  38.505 -0.3702  0.1141 -1.1754
 2674TIP3    H229514   1.587   2.733  38.614 -0.8435 -1.2210 -0.4383
 2675TIP3   OH229515   2.954   0.931   5.801 -0.0216  0.5272 -0.0173
 2675TIP3    H129516   3.028   0.946   5.860  0.6307  3.0836 -1.3844
 2675TIP3    H229517   2.917   1.017   5.785 -1.7458 -0.3977 -1.4150
 2676TIP3   OH229518   1.364   2.385  36.281 -0.5863 -0.3323 -0.2157
 2676TIP3    H129519   1.302   2.381  36.208  0.7551 -0.4862 -1.3865
 2676TIP3    H229520   1.380   2.293  36.303 -1.4597 -0.2830  0.7316
 2677TIP3   OH229521   2.462   2.596  10.561 -0.1564 -0.1741  0.1802
 2677TIP3    H129522   2.390   2.533  10.551  0.5154 -0.9826  0.3281
 2677TIP3    H229523   2.462   2.617  10.654  1.6744 -2.5190  0.8089
 2678TIP3   OH229524   4.037   4.129  38.095  0.0305  0.5340 -0.0894
 2678TIP3    H129525   4.068   4.056  38.149 -2.4980 -0.0430  0.7344
 2678TIP3    H229526   4.054   4.102  38.005 -2.1487 -1.8466  0.0988
 2679TIP3   OH229527   1.392   1.485  15.571 -0.3867  0.3919 -0.6783
 2679TIP3    H129528   1.311   1.435  15.576 -1.0326  1.1339 -2.7744
 2679TIP3    H229529   1.451   1.430  15.520  0.9298 -0.6536  1.7677
 2680TIP3   OH229530   4.258   2.965   2.655 -0.2895 -0.0327  0.2608
 2680TIP3    H129531   4.321   3.023   2.698  0.4845 -1.2668  0.8410
 2680TIP3    H229532   4.201   2.935   2.726 -1.0695  0.4716 -0.1353
 2681TIP3   OH229533   0.006   3.440   0.995  0.1958  0.4091 -0.3557
 2681TIP3    H129534  -0.081   3.406   1.013  0.4208 -0.0645 -0.1513
 2681TIP3    H229535   0.060   3.362   0.983  0.8018  0.6754  0.5190
 2682TIP3   OH229536   0.605   3.135  30.184  0.1351 -0.3907  0.3182
 2682TIP3    H129537   0.633   3.226  30.177 -0.1579 -0.3402 -0.1894
 2682TIP3    H229538   0.510   3.138  30.181  0.1169 -0.6991  0.5013
 2683TIP3   OH229539   4.248   1.655  32.303  0.1709 -0.4813  0.2217
 2683TIP3    H129540   4.322   1.631  32.357 -0.0723 -2.2016 -0.1472
 2683TIP3    H229541   4.171   1.641  32.359  0.0965  2.5621  1.0600
 2684TIP3   OH229542   2.858   1.473   3.796 -0.2143 -0.3520  0.4887
 2684TIP3    H129543   2.804   1.523   3.734 -0.6411  0.0035  1.1448
 2684TIP3    H229544   2.922   1.537   3.828 -1.1193 -0.0582  1.7622
 2685TIP3   OH229545   3.495   2.996  10.382 -0.2591 -0.3963  0.0752
 2685TIP3    H129546   3.431   2.974  10.450 -0.6357 -0.4458 -0.2846
 2685TIP3    H229547   3.441   3.026  10.308  0.1649  0.1111 -0.0322
 2686TIP3   OH229548   3.778   0.817  30.495 -0.2585  0.8226 -0.1780
 2686TIP3    H129549   3.829   0.736  30.506 -1.1928  0.2016 -0.3450
 2686TIP3    H229550   3.844   0.884  30.475  0.4717 -0.0078 -0.6080
 2687TIP3   OH229551   1.607   3.406  13.715 -0.0152 -0.1568 -0.0071
 2687TIP3    H129552   1.528   3.385  13.764 -0.3165 -0.4268 -0.6022
 2687TIP3    H229553   1.675   3.353  13.755 -0.4164 -0.9692 -0.3713
 2688TIP3   OH229554   3.710   1.067   3.492  0.6171  0.2226  0.1552
 2688TIP3    H129555   3.790   1.017   3.510 -0.0492 -0.7821  0.4041
 2688TIP3    H229556   3.668   1.078   3.577 -0.6122 -1.2141 -0.2101
 2689TIP3   OH229557   1.466   3.602   9.466  0.4019  0.2229 -0.3884
 2689TIP3    H129558   1.434   3.513   9.457 -0.5603  0.5105  0.0541
 2689TIP3    H229559   1.399   3.647   9.519  1.7978  0.7159  1.0328
 2690TIP3   OH229560   1.700   3.738  35.210 -0.0171  0.4578  0.7439
 2690TIP3    H129561   1.737   3.803  35.269  1.2406 -0.3962  0.9272
 2690TIP3    H229562   1.629   3.699  35.260  2.3330 -1.7371  2.6384
 2691TIP3   OH229563   4.040   2.492  32.982 -0.2035 -0.0639 -0.3211
 2691TIP3    H129564   4.086   2.438  32.918  2.3924  2.9124 -1.2053
 2691TIP3    H229565   3.952   2.503  32.945 -0.0295 -1.6808 -1.2883
 2692TIP3   OH229566   3.147   2.422  29.094 -0.7770  0.2803  0.2856
 2692TIP3    H129567   3.216   2.481  29.122 -0.5379 -0.1818  0.6820
 2692TIP3    H229568   3.117   2.458  29.010 -0.4282  0.7837  0.3755
 2693TIP3   OH229569   1.336   1.104  34.309  0.4708 -0.5174 -0.4990
 2693TIP3    H129570   1.329   1.023  34.359  1.6591 -0.3279 -0.0156
 2693TIP3    H229571   1.424   1.137  34.327  0.9187 -0.3918 -2.6514
 2694TIP3   OH229572   3.989   4.168  41.103  0.2886 -0.1570  0.2755
 2694TIP3    H129573   4.005   4.080  41.137 -0.4837 -0.6445 -0.5761
 2694TIP3    H229574   3.948   4.215  41.176  0.2407 -0.6587  0.5731
 2695TIP3   OH229575   4.184   3.322  30.948 -0.2099  0.5988 -0.2524
 2695TIP3    H129576   4.236   3.269  30.887 -1.2113  1.1862 -1.6702
 2695TIP3    H229577   4.238   3.399  30.964  0.2001  0.2904 -0.1290
 2696TIP3   OH229578   3.504   0.889  39.193  0.0223 -0.1267  0.0066
 2696TIP3    H129579   3.569   0.940  39.145 -1.3041  2.4867  0.8003
 2696TIP3    H229580   3.550   0.860  39.272  1.2232 -1.5082 -1.1577
 2697TIP3   OH229581   2.581   4.316   5.479  0.2598  0.7257  0.1085
 2697TIP3    H129582   2.505   4.274   5.519  1.9241  0.9576  3.9683
 2697TIP3    H229583   2.554   4.407   5.466 -0.5643  0.4943  0.1461
 2698TIP3   OH229584   2.722   4.111  35.233  0.5326  0.2149  0.7141
 2698TIP3    H129585   2.781   4.036  35.239  0.9582  0.2514 -1.9210
 2698TIP3    H229586   2.756   4.163  35.160 -1.9866  0.9281 -0.0616
 2699TIP3   OH229587   1.050   2.648  34.495 -0.8479 -0.1001  0.0553
 2699TIP3    H129588   1.127   2.608  34.535  0.1314  1.3665 -0.2730
 2699TIP3    H229589   1.002   2.686  34.568  0.4446  1.7574 -0.0145
 2700TIP3   OH229590   0.724   4.402  37.713  0.0552  0.8165 -0.2136
 2700TIP3    H129591   0.777   4.348  37.655 -0.7891 -0.0764 -0.1807
 2700TIP3    H229592   0.772   4.402  37.796 -0.0004  0.0066 -0.1773
 2701TIP3   OH229593   0.681   4.349   1.523  0.0813 -0.2266  0.0168
 2701TIP3    H129594   0.608   4.315   1.574  1.1189 -1.7760  0.5371
 2701TIP3    H229595   0.668   4.312   1.435 -0.3493  0.4135 -0.1969
 2702TIP3   OH229596   3.508   1.335  30.129  0.6368 -0.2449 -0.3698
 2702TIP3    H129597   3.502   1.347  30.224 -2.1795  0.0318 -0.4847
 2702TIP3    H229598   3.538   1.244  30.119  0.8960 -0.3079  0.7782
 2703TIP3   OH229599   1.277   2.087   3.673  0.2134  0.0897 -0.7503
 2703TIP3    H129600   1.307   2.055   3.589 -1.6190  0.4539 -1.5976
 2703TIP3    H229601   1.202   2.143   3.652  0.2153  0.8490  1.0558
 2704TIP3   OH229602   3.368   2.853  34.990 -0.0434 -0.2432  0.5647
 2704TIP3    H129603   3.444   2.846  34.932  0.0195  2.7509  0.1678
 2704TIP3    H229604   3.294   2.863  34.931 -0.4226 -0.5849  0.9776
 2705TIP3   OH229605   3.085   4.319  29.682  0.1813  0.0477 -0.2328
 2705TIP3    H129606   3.001   4.277  29.700  0.2731  0.3702  1.0442
 2705TIP3    H229607   3.084   4.336  29.588 -1.5822  0.8760 -0.0964
 2706TIP3   OH229608   2.872   0.751  32.475 -0.5971 -0.6622 -0.3924
 2706TIP3    H129609   2.854   0.674  32.529  0.4596 -1.1911 -0.7658
 2706TIP3    H229610   2.844   0.725  32.387  0.0184 -0.7279 -0.5697
 2707TIP3   OH229611   1.176   3.753   3.149  0.8031  0.1346 -0.5256
 2707TIP3    H129612   1.244   3.815   3.177  0.4022 -0.8120  3.0948
 2707TIP3    H229613   1.104   3.768   3.210  0.3196 -3.1883 -0.1045
 2708TIP3   OH229614   0.227   2.466  40.332  0.3646 -0.3212 -0.3911
 2708TIP3    H129615   0.186   2.401  40.390  1.2989 -1.0457 -0.5100
 2708TIP3    H229616   0.286   2.414  40.277  3.1944  0.8849  1.3008
 2709TIP3   OH229617   2.121   1.510  38.370 -1.0298  0.5870 -0.0907
 2709TIP3    H129618   2.122   1.563  38.450  0.1541 -0.3054  0.5259
 2709TIP3    H229619   2.065   1.558  38.309  0.8632  3.1216  0.0386
 2710TIP3   OH229620   2.827   1.873  32.415 -1.0668  0.3518  0.5710
 2710TIP3    H129621   2.792   1.826  32.339 -1.4959  0.6078  0.6058
 2710TIP3    H229622   2.750   1.913  32.456 -0.7404  0.8799  0.6809
 2711TIP3   OH229623   0.074   2.494   0.019  0.3411 -0.8820  0.2974
 2711TIP3    H129624   0.156   2.444   0.014  1.5156  1.0380 -1.1035
 2711TIP3    H229625   0.051   2.494   0.112  2.2031 -1.0800  0.8005
 2712TIP3   OH229626   3.869   0.019  24.069 -0.1498  0.3604  0.3784
 2712TIP3    H129627   3.818   0.042  24.147 -0.3684  1.6956 -0.1298
 2712TIP3    H229628   3.832  -0.065  24.041  0.4845 -0.5671  2.1588
 2713TIP3   OH229629   3.980   2.442   6.045 -0.3669 -0.3826  0.7338
 2713TIP3    H129630   3.942   2.370   5.994  0.4391 -0.1564 -0.2218
 2713TIP3    H229631   3.942   2.521   6.005  0.5069 -0.1893  0.2456
 2714TIP3   OH229632   1.328   3.578  12.805  0.2945 -0.5520  0.3057
 2714TIP3    H129633   1.415   3.562  12.842  0.8498 -0.2237 -0.8131
 2714TIP3    H229634   1.270   3.519  12.853  1.4802 -2.3208 -0.3447
 2715TIP3   OH229635   0.903   3.622  18.441  0.4713  0.7021 -0.1899
 2715TIP3    H129636   0.970   3.558  18.464 -0.3059 -0.3414 -0.7247
 2715TIP3    H229637   0.913   3.692  18.506 -0.1552 -1.0512  1.9350
 2716TIP3   OH229638   0.409   2.667  36.079 -0.3649  0.4353 -0.1646
 2716TIP3    H129639   0.348   2.601  36.112  0.3993  0.3154  1.0811
 2716TIP3    H229640   0.413   2.651  35.984  0.4834 -1.9021  0.2078
 2717TIP3   OH229641   1.308   4.378   3.923 -0.1557  0.3587 -0.3711
 2717TIP3    H129642   1.226   4.425   3.908 -0.0480  1.3280  1.7035
 2717TIP3    H229643   1.282   4.287   3.936 -0.8386  0.5476 -0.3841
 2718TIP3   OH229644   0.578   1.882  34.712 -0.3089 -0.2812  0.6058
 2718TIP3    H129645   0.549   1.815  34.650 -0.4926  0.1177  0.2603
 2718TIP3    H229646   0.673   1.886  34.699 -0.0556 -1.6096  1.7709
 2719TIP3   OH229647   1.510   2.913  37.148  0.3221  0.1690 -0.7163
 2719TIP3    H129648   1.463   2.870  37.220  0.5454  0.1463 -0.5827
 2719TIP3    H229649   1.579   2.963  37.191 -0.3341  1.1901 -0.8234
 2720TIP3   OH229650   3.186   3.700  39.648 -0.2025  0.1805 -0.2897
 2720TIP3    H129651   3.266   3.753  39.655  0.9563 -1.4687 -0.3233
 2720TIP3    H229652   3.218   3.611  39.633 -2.0049 -0.7809  1.1103
 2721TIP3   OH229653   1.904   1.792  12.812 -0.1147  0.4468 -0.7302
 2721TIP3    H129654   1.844   1.858  12.847  1.6138  2.6158 -1.6085
 2721TIP3    H229655   1.981   1.798  12.868  0.8600  0.6748 -2.0387
 2722TIP3   OH229656   0.551   3.297  13.573 -0.0641 -0.0113 -0.4697
 2722TIP3    H129657   0.507   3.370  13.527  0.8088 -0.4390 -2.0732
 2722TIP3    H229658   0.481   3.234  13.590 -0.6535  0.7603  0.0598
 2723TIP3   OH229659   4.008   0.379   5.285 -0.0421 -0.0400  0.5542
 2723TIP3    H129660   3.991   0.472   5.272 -1.3247 -0.2681  0.5145
 2723TIP3    H229661   3.979   0.338   5.204 -0.4330 -0.5856  0.9639
 2724TIP3   OH229662   1.366   3.283  30.422  0.4514  0.5558  0.1543
 2724TIP3    H129663   1.392   3.300  30.512  1.3168 -0.9194  0.2083
 2724TIP3    H229664   1.317   3.201  30.425 -0.3620  0.9993 -0.5842
 2725TIP3   OH229665   2.474   0.087  39.997 -0.6308 -0.0457  0.0687
 2725TIP3    H129666   2.438   0.088  40.086 -1.2945 -1.4427 -0.1664
 2725TIP3    H229667   2.547   0.148  40.001 -2.2340  1.9587  0.8880
 2726TIP3   OH229668   3.649   0.177  34.514 -0.7767  0.0321 -0.1678
 2726TIP3    H129669   3.639   0.198  34.422  0.0912  0.8161 -0.1014
 2726TIP3    H229670   3.598   0.244  34.560  1.3808  1.6798  0.0130
 2727TIP3   OH229671   0.163   4.292   6.764 -0.1795 -0.2417  0.3227
 2727TIP3    H129672   0.118   4.315   6.845  0.1450  2.1388 -0.1169
 2727TIP3    H229673   0.256   4.290   6.788 -0.1205 -0.0146  0.1116
 2728TIP3   OH229674   0.173   1.893  25.241  0.3156  0.0158  0.0931
 2728TIP3    H129675   0.128   1.946  25.306  1.1803 -1.2299  1.7987
 2728TIP3    H229676   0.169   1.945  25.161  0.8310  2.5160  1.5550
 2729TIP3   OH229677   0.057   1.832  12.502 -0.2570  0.3858  0.0006
 2729TIP3    H129678   0.081   1.741  12.486  0.1219  0.4253  0.3104
 2729TIP3    H229679   0.001   1.829  12.579 -0.2442  0.4134  0.0107
 2730TIP3   OH229680   1.321   1.492  36.928  0.2009 -0.1698  0.3543
 2730TIP3    H129681   1.354   1.504  37.017 -1.4275  3.8844  0.6273
 2730TIP3    H229682   1.226   1.496  36.937 -0.0039  0.0166 -1.5293
 2731TIP3   OH229683   1.644   2.677   2.703 -0.2812 -0.0143  0.8549
 2731TIP3    H129684   1.662   2.583   2.709  0.5070  0.0516 -0.1656
 2731TIP3    H229685   1.665   2.711   2.790 -0.0713 -0.7029  1.0795
 2732TIP3   OH229686   2.131   2.426  18.279 -0.5855 -0.7747  0.1516
 2732TIP3    H129687   2.095   2.514  18.281 -0.6593 -0.7849 -0.5953
 2732TIP3    H229688   2.208   2.432  18.223  0.9063 -0.6478  2.0941
 2733TIP3   OH229689   3.844   0.997  24.916  0.0118  0.4151  0.3402
 2733TIP3    H129690   3.857   0.906  24.890  0.8924  0.8564 -0.8854
 2733TIP3    H229691   3.834   0.995  25.011 -0.5431 -1.0092  0.2703
 2734TIP3   OH229692   1.615   1.602   0.822  0.6252 -0.0462 -0.0630
 2734TIP3    H129693   1.671   1.652   0.763  1.3649  0.6222  1.1547
 2734TIP3    H229694   1.672   1.533   0.857  0.7770  0.7159  1.2846
 2735TIP3   OH229695   3.412   2.876  35.710  0.5665  0.3197  0.3649
 2735TIP3    H129696   3.357   2.909  35.781  0.7710 -0.7954  1.0742
 2735TIP3    H229697   3.353   2.871  35.635 -0.3354 -0.8268  1.1043
 2736TIP3   OH229698   3.667   4.163   2.431  0.2413  0.7162 -0.6418
 2736TIP3    H129699   3.662   4.097   2.361  0.7788 -0.0261  0.0071
 2736TIP3    H229700   3.704   4.116   2.505 -0.0127  1.5880  0.0448
 2737TIP3   OH229701   2.273   0.894  34.293 -0.0256 -0.4394  0.7742
 2737TIP3    H129702   2.205   0.940  34.244 -0.1450  0.1817  1.4921
 2737TIP3    H229703   2.353   0.910  34.243 -0.0051  0.8564  1.1634
 2738TIP3   OH229704   4.406   2.322  35.460  0.0194 -0.0272  0.2740
 2738TIP3    H129705   4.396   2.229  35.438 -1.0357  0.2052 -0.3115
 2738TIP3    H229706   4.462   2.357  35.390 -0.6994  0.0447 -0.2806
 2739TIP3   OH229707   2.335   1.566   5.388  0.3606  0.7491  0.0290
 2739TIP3    H129708   2.318   1.629   5.318 -1.3512 -0.5644 -0.8007
 2739TIP3    H229709   2.269   1.498   5.377  0.1434  0.3695  2.8198
 2740TIP3   OH229710   1.957   3.578  29.641  0.1634  0.5408 -0.7186
 2740TIP3    H129711   1.986   3.493  29.609 -1.9228 -0.2537 -0.6316
 2740TIP3    H229712   2.007   3.591  29.722 -0.2040 -1.0794 -0.2007
 2741TIP3   OH229713   3.987   1.917   2.681 -0.4425  0.0811  0.6088
 2741TIP3    H129714   3.911   1.903   2.738  0.1307  0.1839  1.4256
 2741TIP3    H229715   4.041   1.838   2.692 -0.3919  0.0371  0.0901
 2742TIP3   OH229716   0.935   0.377  15.034 -0.1691  0.4692 -0.3091
 2742TIP3    H129717   0.864   0.344  15.089  0.7295  1.2468  1.4043
 2742TIP3    H229718   1.013   0.369  15.089  0.5213  2.8008 -0.8340
 2743TIP3   OH229719   3.172   2.172  36.454 -0.0056  0.5167 -0.2489
 2743TIP3    H129720   3.141   2.173  36.364  1.1440  2.3015 -0.6712
 2743TIP3    H229721   3.122   2.242  36.497  2.2480  2.4727 -0.5917
 2744TIP3   OH229722   3.894   3.135  12.037  0.0350  0.8655 -0.4040
 2744TIP3    H129723   3.925   3.110  11.950  0.3302  2.1399 -0.6936
 2744TIP3    H229724   3.867   3.226  12.027  0.3687  1.1314  0.9171
 2745TIP3   OH229725   0.937   3.153  30.008  0.9521  0.2246 -0.6627
 2745TIP3    H129726   0.892   3.095  30.071 -1.7196  0.0352 -2.5561
 2745TIP3    H229727   0.983   3.093  29.950  1.7545  0.2939 -0.1191
 2746TIP3   OH229728   1.822   3.371  38.339  0.3743 -0.1702 -0.4823
 2746TIP3    H129729   1.842   3.387  38.247 -0.2619 -0.8614 -0.7514
 2746TIP3    H229730   1.779   3.285  38.340 -0.2100  0.1212  0.3860
 2747TIP3   OH229731   2.133   2.682   2.305  0.1520  0.6970 -0.6136
 2747TIP3    H129732   2.048   2.705   2.269 -0.3183  0.8243  0.5575
 2747TIP3    H229733   2.152   2.595   2.270 -0.9959  0.1708  0.0365
 2748TIP3   OH229734   0.401   3.563  33.122  0.0704  0.3656 -0.0130
 2748TIP3    H129735   0.322   3.549  33.070  0.2289  1.8519 -0.7029
 2748TIP3    H229736   0.459   3.491  33.098 -0.4414  0.1935 -0.7546
 2749TIP3   OH229737   3.807   0.638  13.115  0.4811  0.1284 -0.3718
 2749TIP3    H129738   3.780   0.684  13.194  0.8524 -2.9501  1.6872
 2749TIP3    H229739   3.791   0.701  13.045  0.7827  3.2704  2.1532
 2750TIP3   OH229740   1.896   3.774  32.175  0.3532 -0.3633 -0.2179
 2750TIP3    H129741   1.868   3.686  32.149  0.7019 -1.0539  1.6181
 2750TIP3    H229742   1.937   3.762  32.260  2.1606  1.2956 -0.7725
 2751TIP3   OH229743   0.777   1.107  29.006  0.3782  0.0256  0.7715
 2751TIP3    H129744   0.864   1.099  29.044 -0.2529 -0.8747  2.0927
 2751TIP3    H229745   0.727   1.156  29.071 -0.2105  0.1972  0.1979
 2752TIP3   OH229746   1.252   0.656  34.974 -0.6062 -0.1833 -0.6863
 2752TIP3    H129747   1.216   0.568  34.964  0.5297 -0.6557 -0.7997
 2752TIP3    H229748   1.347   0.645  34.960  0.1307  0.4164  2.9230
 2753TIP3   OH229749   2.792   4.142   7.268  0.5793 -0.2607  0.2415
 2753TIP3    H129750   2.717   4.139   7.209  0.5019  0.2578  0.3056
 2753TIP3    H229751   2.773   4.077   7.335 -0.3097  0.5862  0.8386
 2754TIP3   OH229752   0.669   2.126  10.935  0.3876  0.6021 -0.0173
 2754TIP3    H129753   0.652   2.057  10.999  0.2760  1.2823  0.7047
 2754TIP3    H229754   0.762   2.116  10.914 -0.2002 -1.4812 -2.0098
 2755TIP3   OH229755   0.871   0.864  28.405  0.3613 -0.0396 -0.2298
 2755TIP3    H129756   0.943   0.805  28.387  0.6672  0.4189 -0.5172
 2755TIP3    H229757   0.819   0.818  28.471  1.0950 -0.2264  0.2294
 2756TIP3   OH229758   0.695   1.491   0.045 -0.3176  0.4221 -0.0038
 2756TIP3    H129759   0.739   1.514  -0.036  1.1280 -3.1751 -0.4256
 2756TIP3    H229760   0.621   1.436   0.018 -0.6985  0.3862  1.0600
 2757TIP3   OH229761   3.458   4.269   0.588  0.0314 -0.0449 -0.2586
 2757TIP3    H129762   3.463   4.363   0.572  0.2672  0.4702  2.3998
 2757TIP3    H229763   3.546   4.244   0.616 -0.8017 -0.2598  2.4817
 2758TIP3   OH229764   0.550   0.162  38.078  0.5972 -0.4881 -0.5048
 2758TIP3    H129765   0.644   0.178  38.072  0.4176  0.5017 -0.9163
 2758TIP3    H229766   0.542   0.068  38.095  1.6916 -0.3664  0.8093
 2759TIP3   OH229767   0.997   2.521   2.952 -0.0759 -0.1620  0.5343
 2759TIP3    H129768   1.024   2.583   3.020 -1.9095 -0.2629  1.4047
 2759TIP3    H229769   1.053   2.542   2.877 -0.0448  1.9341  1.0958
 2760TIP3   OH229770   3.493   0.288  41.015  0.6767  0.4777  0.3412
 2760TIP3    H129771   3.531   0.354  41.073  0.1883  0.7831  0.3295
 2760TIP3    H229772   3.464   0.219  41.074  0.9097  0.4166  0.3853
 2761TIP3   OH229773   2.291   0.864  10.818  0.1311  0.0332  0.4616
 2761TIP3    H129774   2.276   0.811  10.740  1.7324  3.0804 -2.1385
 2761TIP3    H229775   2.361   0.820  10.864  0.6556 -0.7310 -1.0067
 2762TIP3   OH229776   0.771   3.809   9.088  0.1490  0.4960 -0.0347
 2762TIP3    H129777   0.820   3.743   9.038  1.2181  0.8810  0.4782
 2762TIP3    H229778   0.759   3.768   9.174 -2.0168 -0.3227 -0.6645
 2763TIP3   OH229779   4.167   2.071   6.787  0.1934  0.3950  0.0962
 2763TIP3    H129780   4.248   2.117   6.766  0.0921  0.4404 -0.2011
 2763TIP3    H229781   4.183   1.980   6.762  0.0145  0.4814 -0.3407
 2764TIP3   OH229782   1.801   2.225  33.245  0.1045  0.2073 -0.4081
 2764TIP3    H129783   1.726   2.174  33.214 -1.4598  1.4119  1.2079
 2764TIP3    H229784   1.767   2.314  33.254  2.0152  0.9902 -0.5583
 2765TIP3   OH229785   0.205   4.205  32.140 -0.0821 -0.1371 -0.0887
 2765TIP3    H129786   0.128   4.223  32.085 -0.2822  0.2818  0.3272
 2765TIP3    H229787   0.239   4.123  32.105 -0.2151  0.1094 -0.8358
 2766TIP3   OH229788   2.871   2.475   5.303 -0.5099  0.2256  0.2965
 2766TIP3    H129789   2.852   2.560   5.264  1.4377  0.1364 -0.9513
 2766TIP3    H229790   2.811   2.469   5.378 -0.8844  2.5525  0.2379
 2767TIP3   OH229791   2.608   0.911   8.938 -0.3886  0.7306 -0.0027
 2767TIP3    H129792   2.568   0.832   8.903 -0.2410  0.7035 -0.1111
 2767TIP3    H229793   2.539   0.977   8.933 -0.9552  0.2858  1.3411
 2768TIP3   OH229794   1.703   3.346  12.004 -0.9979  0.6371 -0.5493
 2768TIP3    H129795   1.715   3.320  12.095  1.1165 -0.3795 -1.0511
 2768TIP3    H229796   1.772   3.411  11.988  0.1732 -0.8678 -1.9747
 2769TIP3   OH229797   1.881   3.269  32.188  0.0217 -0.7480 -0.6909
 2769TIP3    H129798   1.897   3.176  32.175  3.5415 -0.2648 -0.8577
 2769TIP3    H229799   1.840   3.275  32.274  1.3595 -2.3710  0.1034
 2770TIP3   OH229800   2.085   0.583  10.031 -0.3143 -0.7656  0.2966
 2770TIP3    H129801   2.091   0.676  10.052  1.5314 -1.0932  1.4609
 2770TIP3    H229802   1.998   0.558  10.061 -1.4199  0.8373 -1.3504
 2771TIP3   OH229803   0.285   3.239  27.694  0.1297 -0.5562 -0.3884
 2771TIP3    H129804   0.190   3.254  27.703 -0.1707 -3.1603  3.2416
 2771TIP3    H229805   0.292   3.149  27.662  1.3436 -0.5569 -0.1693
 2772TIP3   OH229806   3.468   1.653  34.404  0.0098 -0.4432 -0.0881
 2772TIP3    H129807   3.458   1.665  34.310  0.4827 -0.0925 -0.0981
 2772TIP3    H229808   3.548   1.600  34.413  2.2264  2.6347  0.2171
 2773TIP3   OH229809   3.342   0.218   8.693  0.7808  0.2899 -0.5455
 2773TIP3    H129810   3.270   0.238   8.632 -0.1592  0.1356  0.4778
 2773TIP3    H229811   3.372   0.304   8.723  1.9757  0.4163 -2.0103
 2774TIP3   OH229812   4.130   2.743   7.965 -0.0589  0.3945 -0.3800
 2774TIP3    H129813   4.185   2.720   8.040 -1.0787 -0.2801  0.1827
 2774TIP3    H229814   4.168   2.825   7.933  0.9261  0.2462  0.3305
 2775TIP3   OH229815   3.753   1.469   7.780 -0.0573 -0.0694 -0.1939
 2775TIP3    H129816   3.800   1.504   7.704  0.1581 -0.7571 -0.3847
 2775TIP3    H229817   3.767   1.535   7.849  0.4522  0.1571 -0.5028
 2776TIP3   OH229818   2.994   3.450   4.772  0.5638  0.6900 -0.0424
 2776TIP3    H129819   3.075   3.456   4.721  1.5117 -0.0485  1.3275
 2776TIP3    H229820   2.974   3.356   4.774  1.9101  0.3432  2.8908
 2777TIP3   OH229821   2.216   3.887  32.729 -0.7497 -0.0076 -0.3581
 2777TIP3    H129822   2.302   3.927  32.737 -0.3302 -0.5527 -1.8139
 2777TIP3    H229823   2.231   3.808  32.676 -2.2129  0.1561 -1.0665
 2778TIP3   OH229824   2.035   1.470   0.408  0.3688 -0.2545 -0.3729
 2778TIP3    H129825   2.115   1.436   0.367  1.9020  1.0852  1.3462
 2778TIP3    H229826   2.038   1.564   0.392 -0.2248 -0.0294  0.7624
 2779TIP3   OH229827   0.411   1.323  10.133  0.2216  0.1307 -0.1485
 2779TIP3    H129828   0.492   1.332  10.183  0.4147 -0.4237 -0.3533
 2779TIP3    H229829   0.402   1.229  10.118 -1.3802 -0.0215  1.3836
 2780TIP3   OH229830   1.852   4.234  10.375  0.5460 -0.1765  0.2015
 2780TIP3    H129831   1.829   4.326  10.361 -0.0059  0.3320  3.5616
 2780TIP3    H229832   1.939   4.236  10.414  1.3084 -1.2703 -1.3346
 2781TIP3   OH229833   2.857   1.824  41.593  0.4645  0.5360 -0.0151
 2781TIP3    H129834   2.782   1.844  41.650 -1.1713  0.7187 -2.0952
 2781TIP3    H229835   2.860   1.897  41.532  1.3064 -0.3050 -1.0000
 2782TIP3   OH229836   3.973   1.450  22.643 -0.2741 -0.3529  0.1613
 2782TIP3    H129837   3.959   1.378  22.705 -1.4495  0.4187  0.8195
 2782TIP3    H229838   3.909   1.517  22.669 -0.4881  0.1663 -1.6167
 2783TIP3   OH229839   3.183   4.191  41.457 -0.3511  0.1255  0.6175
 2783TIP3    H129840   3.158   4.111  41.411 -1.5059  0.3541  0.8122
 2783TIP3    H229841   3.266   4.217  41.416  1.2296 -2.3087  1.9659
 2784TIP3   OH229842   4.245   1.193   6.134 -0.6100  0.6067 -0.2673
 2784TIP3    H129843   4.237   1.219   6.225  0.0142  0.8180 -0.2687
 2784TIP3    H229844   4.200   1.262   6.085 -0.0969  1.0166 -0.1787
 2785TIP3   OH229845   3.400   2.649  30.374 -0.0605  0.3267 -0.5973
 2785TIP3    H129846   3.355   2.698  30.443 -2.1664 -1.5532 -0.5062
 2785TIP3    H229847   3.470   2.603  30.419  0.6318  1.5982 -0.3324
 2786TIP3   OH229848   1.872   3.118  34.984 -0.3779  0.0201 -0.1649
 2786TIP3    H129849   1.957   3.158  35.003 -0.2167 -0.5838  0.4173
 2786TIP3    H229850   1.834   3.175  34.917  0.2487  0.6060 -0.0423
 2787TIP3   OH229851   1.489   1.726  27.739  0.1844  0.5235 -0.0908
 2787TIP3    H129852   1.541   1.660  27.693  0.5108  0.0158  0.9737
 2787TIP3    H229853   1.551   1.797  27.757  0.1722  0.5130 -0.0081
 2788TIP3   OH229854   4.031   0.828  35.361  0.0588 -0.0837 -0.4487
 2788TIP3    H129855   4.066   0.861  35.278 -0.6445 -2.6506 -1.8658
 2788TIP3    H229856   4.005   0.738  35.342 -0.4234 -0.6681  2.5073
 2789TIP3   OH229857   0.068   3.084   9.808  0.3583 -0.8386 -0.1140
 2789TIP3    H129858   0.114   3.123   9.733  1.6209 -0.4975  0.8031
 2789TIP3    H229859   0.130   3.021   9.844 -1.1657 -2.8286 -0.7852
 2790TIP3   OH229860   2.254   1.130   7.531 -0.2401 -0.0128  0.5099
 2790TIP3    H129861   2.218   1.053   7.576 -1.4690  0.1878 -0.0841
 2790TIP3    H229862   2.329   1.155   7.584 -0.4589 -0.9815  1.3207
 2791TIP3   OH229863   1.132   2.066   4.582 -0.0312 -0.2618  0.9181
 2791TIP3    H129864   1.173   2.005   4.644  1.8583  0.9679  0.9538
 2791TIP3    H229865   1.069   2.012   4.535  0.3754 -1.8574  2.0891
 2792TIP3   OH229866   3.591   2.948   0.060 -0.0820  0.4495 -0.2919
 2792TIP3    H129867   3.576   3.038   0.031 -0.3990  0.9078  1.1939
 2792TIP3    H229868   3.539   2.894   0.001 -0.5491  1.3064 -0.6747
 2793TIP3   OH229869   3.811   1.422   7.154  0.5201  0.6346  0.4576
 2793TIP3    H129870   3.770   1.508   7.161 -0.8141  0.1262 -0.4969
 2793TIP3    H229871   3.819   1.406   7.060  0.4579 -0.3899  0.6071
 2794TIP3   OH229872   3.138   3.169  38.975 -0.0482  0.0689  0.6575
 2794TIP3    H129873   3.122   3.094  39.031 -1.3302 -0.0220  0.2042
 2794TIP3    H229874   3.174   3.132  38.894  0.8786  0.1098  1.0427
 2795TIP3   OH229875   2.142   3.394  38.049  0.5330 -0.5592  0.5895
 2795TIP3    H129876   2.184   3.401  37.963 -3.9863  1.2406 -1.8389
 2795TIP3    H229877   2.127   3.300  38.061 -0.3311 -0.7636 -1.6061
 2796TIP3   OH229878   2.004   2.688  32.565 -0.2718  0.3908  0.9019
 2796TIP3    H129879   1.920   2.670  32.523 -0.2405 -0.0942  1.0378
 2796TIP3    H229880   2.049   2.603  32.564  1.2994  1.1353 -1.5452
 2797TIP3   OH229881   0.893   0.258  40.084  0.0392  0.0214 -0.0011
 2797TIP3    H129882   0.869   0.214  40.166  1.3545 -0.4522  0.1624
 2797TIP3    H229883   0.987   0.244  40.077 -0.1077 -0.3361 -1.8240
 2798TIP3   OH229884   4.150   3.996  40.427 -1.0047 -0.1322  0.0395
 2798TIP3    H129885   4.069   3.974  40.381 -0.6155 -1.9520  0.1456
 2798TIP3    H229886   4.208   3.922  40.410  1.2056  1.7562 -1.2759
 2799TIP3   OH229887   2.278   0.854  36.938  0.2171  0.3377 -0.1859
 2799TIP3    H129888   2.362   0.815  36.962  0.3490  0.8229  0.1517
 2799TIP3    H229889   2.266   0.926  37.000 -0.4390  0.2832 -0.2411
 2800TIP3   OH229890   2.257   1.689  35.592  0.3700 -0.2274  0.3822
 2800TIP3    H129891   2.206   1.753  35.641  1.6180  0.8910  0.2858
 2800TIP3    H229892   2.192   1.627  35.559 -0.9761  1.2714  0.0440
 2801TIP3   OH229893   2.465   2.340  37.681  0.2975  0.6918 -0.6598
 2801TIP3    H129894   2.406   2.402  37.639  0.7406 -0.0249 -2.4172
 2801TIP3    H229895   2.536   2.394  37.716  0.9411  1.1658 -2.6055
 2802TIP3   OH229896   3.290   3.658  37.712  0.0632  0.5691 -0.8031
 2802TIP3    H129897   3.298   3.710  37.792  2.7392 -0.1201 -0.5282
 2802TIP3    H229898   3.260   3.572  37.742 -0.2307  0.6962 -0.7265
 2803TIP3   OH229899   2.898   1.012   4.205 -0.0188 -0.5982  0.4280
 2803TIP3    H129900   2.940   0.957   4.271 -1.3174 -0.6585  1.2301
 2803TIP3    H229901   2.920   0.969   4.122  0.3687 -1.3822  0.9152
 2804TIP3   OH229902   0.108   2.968  37.883 -0.4701 -0.3504  0.3484
 2804TIP3    H129903   0.189   3.011  37.855  0.2485 -1.3806  0.8104
 2804TIP3    H229904   0.045   2.990  37.815  0.4574 -0.3180 -0.5233
 2805TIP3   OH229905   1.479   1.484  39.689  0.0236  0.1146  0.5128
 2805TIP3    H129906   1.452   1.455  39.601 -2.2655  2.1000  0.4712
 2805TIP3    H229907   1.558   1.536  39.674  0.3207 -0.5273 -0.2102
 2806TIP3   OH229908   2.367   3.652  16.774  1.0691  0.2656  0.1249
 2806TIP3    H129909   2.339   3.717  16.837  0.9279  1.5193 -1.1806
 2806TIP3    H229910   2.355   3.568  16.819 -1.0425  0.9808  1.0125
 2807TIP3   OH229911   2.883   0.138  35.964 -0.3312 -0.2657  0.4328
 2807TIP3    H129912   2.953   0.176  35.911 -0.5475  0.0813  0.3904
 2807TIP3    H229913   2.919   0.136  36.053 -1.5232  3.3773  1.1781
 2808TIP3   OH229914   3.636   1.245  21.967  0.3279 -0.1551 -0.0024
 2808TIP3    H129915   3.635   1.218  22.059  1.2820  0.2633  0.1484
 2808TIP3    H229916   3.682   1.329  21.967 -1.9631  1.1997 -0.5365
 2809TIP3   OH229917   2.368   3.415  12.040  0.3451 -0.0383 -0.5007
 2809TIP3    H129918   2.306   3.372  11.981 -1.7537 -0.7545  2.0239
 2809TIP3    H229919   2.335   3.504  12.050 -0.3206 -0.4019  0.8040
 2810TIP3   OH229920   2.491   0.239   4.803 -0.1547  0.2001  0.2626
 2810TIP3    H129921   2.496   0.227   4.708 -2.9938  3.6312 -0.5023
 2810TIP3    H229922   2.430   0.172   4.832 -1.4014  0.8317 -0.8180
 2811TIP3   OH229923   4.325   3.216   4.009  0.1565 -0.0904 -0.2882
 2811TIP3    H129924   4.391   3.147   4.004 -0.7096 -0.8618 -3.4967
 2811TIP3    H229925   4.242   3.169   4.019 -0.2915  0.5699 -0.8189
 2812TIP3   OH229926   1.862   1.641  16.314 -0.5073  0.3016 -0.4199
 2812TIP3    H129927   1.817   1.557  16.313 -1.0340  0.5764 -0.4182
 2812TIP3    H229928   1.821   1.691  16.242 -0.3938  0.6519 -0.2438
 2813TIP3   OH229929   1.599   0.140  40.495  0.7585 -0.2333  0.2666
 2813TIP3    H129930   1.691   0.142  40.519  0.5222  1.7022  1.1456
 2813TIP3    H229931   1.553   0.173  40.572 -0.4546  1.2328 -1.0302
 2814TIP3   OH229932   2.190   3.095  29.523 -0.1084 -0.4022 -0.4706
 2814TIP3    H129933   2.174   3.042  29.601 -1.5172 -0.3158 -0.6756
 2814TIP3    H229934   2.135   3.055  29.455  1.4478 -0.7690 -1.5717
 2815TIP3   OH229935   3.955   3.567   4.055 -0.0701 -0.3007 -0.2280
 2815TIP3    H129936   3.951   3.480   4.015 -0.9982 -0.2263 -0.3382
 2815TIP3    H229937   3.926   3.627   3.985  1.4171  0.2123 -0.4379
 2816TIP3   OH229938   0.894   3.785  36.708  0.0895  0.3548 -0.3106
 2816TIP3    H129939   0.890   3.735  36.789 -0.1772  0.6540 -0.1393
 2816TIP3    H229940   0.901   3.876  36.735 -0.2964  0.4788 -0.6209
 2817TIP3   OH229941   0.639   2.494  32.261 -0.2696  0.1674  0.3284
 2817TIP3    H129942   0.615   2.586  32.248 -0.6800 -0.2005 -1.8376
 2817TIP3    H229943   0.634   2.482  32.356 -2.6629  1.7275  0.4892
 2818TIP3   OH229944   3.917   4.078  39.377  0.3371  0.0851 -0.8034
 2818TIP3    H129945   3.860   4.154  39.382 -0.9744 -0.9119  0.1315
 2818TIP3    H229946   3.861   4.008  39.342  1.4524 -0.5124 -1.4682
 2819TIP3   OH229947   2.644   3.093  11.110 -0.0481  0.2004 -0.1969
 2819TIP3    H129948   2.593   3.110  11.031  1.8207 -0.2017 -1.5375
 2819TIP3    H229949   2.602   3.147  11.177 -1.9590  0.1997 -1.3142
 2820TIP3   OH229950   4.405   2.339  39.926  0.5180 -0.5594  0.1203
 2820TIP3    H129951   4.396   2.410  39.989 -0.3540 -0.0743 -0.5249
 2820TIP3    H229952   4.461   2.375  39.857 -0.9218 -0.0150 -0.8257
 2821TIP3   OH229953   0.782   1.035  22.833 -0.1406  0.0875 -0.1533
 2821TIP3    H129954   0.823   1.117  22.806  1.0809  0.1489  1.7337
 2821TIP3    H229955   0.811   0.971  22.768  3.9675 -0.0935  1.5759
 2822TIP3   OH229956   4.163   2.568   1.668  0.6849  0.6697 -0.0755
 2822TIP3    H129957   4.082   2.617   1.656  0.2292 -0.0697 -0.1184
 2822TIP3    H229958   4.228   2.633   1.694 -0.2632  1.0703  1.4112
 2823TIP3   OH229959   3.730   2.402   8.885 -0.2759  0.1255 -0.0766
 2823TIP3    H129960   3.808   2.377   8.934 -0.6990 -0.9213  0.1040
 2823TIP3    H229961   3.681   2.459   8.946 -0.4619 -0.5998  0.4718
 2824TIP3   OH229962   0.936   2.678  34.738  0.5190 -0.5078 -0.1203
 2824TIP3    H129963   0.849   2.639  34.729 -0.3141  1.3180 -0.5365
 2824TIP3    H229964   0.967   2.649  34.824 -0.8455 -0.5355  0.3878
 2825TIP3   OH229965   0.423   3.746  25.969  0.3908 -0.2971  0.3850
 2825TIP3    H129966   0.454   3.764  25.881 -0.8969  1.2631  0.1940
 2825TIP3    H229967   0.436   3.828  26.016  0.1313 -0.7993  1.3637
 2826TIP3   OH229968   3.490   2.940  36.664 -0.1271  0.2911  0.1542
 2826TIP3    H129969   3.577   2.924  36.629 -0.0929  1.3015 -0.2804
 2826TIP3    H229970   3.438   2.865  36.636  0.7581 -0.7057  1.0676
 2827TIP3   OH229971   2.123   2.314   5.443 -0.1029  0.4186  0.2220
 2827TIP3    H129972   2.101   2.241   5.386  1.8398  0.2985 -0.4580
 2827TIP3    H229973   2.166   2.273   5.518 -1.9250  0.6429  1.4604
 2828TIP3   OH229974   4.369   2.020  27.150 -0.3169  0.1071 -0.4851
 2828TIP3    H129975   4.456   2.056  27.166 -0.7249  0.3150  1.5425
 2828TIP3    H229976   4.312   2.068  27.210 -1.6883 -0.6203 -1.1630
 2829TIP3   OH229977   3.895   1.196  13.429 -0.1712 -0.3057  0.6411
 2829TIP3    H129978   3.850   1.149  13.358 -0.0684  1.2877 -0.5398
 2829TIP3    H229979   3.828   1.255  13.465 -0.0537 -0.6760  1.4802
 2830TIP3   OH229980   0.618   1.400  39.629 -0.2360  0.3023 -0.4920
 2830TIP3    H129981   0.616   1.369  39.538 -2.0447 -1.5722  0.1061
 2830TIP3    H229982   0.677   1.338  39.673  0.1231  0.8187 -0.2397
 2831TIP3   OH229983   1.563   1.959  13.338 -0.0414  0.2498  0.1267
 2831TIP3    H129984   1.648   1.987  13.303 -0.6405  2.9950  0.6330
 2831TIP3    H229985   1.503   1.969  13.264 -0.0786 -1.0022 -0.0305
 2832TIP3   OH229986   1.495   2.519  40.378  0.1187 -0.4972  0.2086
 2832TIP3    H129987   1.466   2.545  40.466  1.1892  0.3210  0.3410
 2832TIP3    H229988   1.477   2.596  40.324  1.2560 -0.2763  0.1290
 2833TIP3   OH229989   2.875   3.404  34.121 -0.0564  0.4116  0.8664
 2833TIP3    H129990   2.872   3.456  34.040  3.7901 -0.8340 -0.3306
 2833TIP3    H229991   2.834   3.321  34.097  0.1882  0.4024  0.4546
 2834TIP3   OH229992   1.553   1.064  28.833 -0.3140  0.0430  0.1929
 2834TIP3    H129993   1.468   1.093  28.865 -0.7338 -1.7667  0.8646
 2834TIP3    H229994   1.569   1.115  28.754 -1.5825  1.0716  0.5835
 2835TIP3   OH229995   1.110   2.736  16.485  0.4422 -0.2232 -0.1315
 2835TIP3    H129996   1.200   2.750  16.457  0.2297  2.3012  0.2181
 2835TIP3    H229997   1.107   2.645  16.512  2.5050 -0.7659 -1.4918
 2836TIP3   OH229998   2.233   3.479  30.655  0.8368  0.3963 -0.1036
 2836TIP3    H129999   2.314   3.459  30.609  0.9965 -2.3031  1.1343
 2836TIP3    H230000   2.203   3.394  30.688 -1.7687  1.5175  0.6572
 2837TIP3   OH230001   2.014   1.098  13.929 -0.0637  0.0179  0.2279
 2837TIP3    H130002   2.056   1.145  14.001  0.5617  1.5431 -1.0630
 2837TIP3    H230003   1.955   1.163  13.890 -0.6907 -0.9047 -0.3851
 2838TIP3   OH230004   4.075   1.080  29.209  0.3534  0.1398 -0.2000
 2838TIP3    H130005   4.142   1.145  29.230  1.4380 -0.8649 -0.3953
 2838TIP3    H230006   4.023   1.120  29.139  1.9870  0.1978 -1.4425
 2839TIP3   OH230007   3.847   1.768   3.111 -0.0400 -0.5328 -0.2290
 2839TIP3    H130008   3.795   1.838   3.150  1.8010  0.0758  1.2305
 2839TIP3    H230009   3.937   1.788   3.135  0.6929 -2.5944 -1.0600
 2840TIP3   OH230010   2.431   2.807   2.957 -0.3095 -0.8872  0.1474
 2840TIP3    H130011   2.510   2.803   3.012  0.3338  2.2939 -0.3946
 2840TIP3    H230012   2.456   2.761   2.877  0.4162 -1.2717  0.5781
 2841TIP3   OH230013   4.101   3.858  36.257  0.0294 -0.0571 -0.4922
 2841TIP3    H130014   4.023   3.906  36.285  1.4782  1.8289  0.6064
 2841TIP3    H230015   4.126   3.898  36.174 -0.1141 -0.6131 -0.8099
 2842TIP3   OH230016   2.443   0.235  33.858  0.0722  0.0387 -0.3551
 2842TIP3    H130017   2.465   0.259  33.948 -0.2075 -1.8991  0.2722
 2842TIP3    H230018   2.349   0.219  33.860  0.1991 -0.8184 -0.7791
 2843TIP3   OH230019   3.391   1.619  35.966  0.4193  0.1434 -0.6319
 2843TIP3    H130020   3.396   1.617  36.062 -1.8378  1.2582 -0.4414
 2843TIP3    H230021   3.411   1.529  35.939  3.3341  0.2833  0.6806
 2844TIP3   OH230022   1.120   3.520   5.985  0.5412  0.6655  0.0213
 2844TIP3    H130023   1.186   3.462   5.948  2.3568  2.6049 -0.0012
 2844TIP3    H230024   1.112   3.591   5.921 -1.0432  0.8524  0.3848
 2845TIP3   OH230025   2.988   3.662  31.509 -0.0913  0.0191 -0.0684
 2845TIP3    H130026   2.918   3.597  31.507 -0.7906  0.7804 -1.1334
 2845TIP3    H230027   2.973   3.710  31.591 -0.2252 -0.4398  0.1814
 2846TIP3   OH230028   0.741   0.355  11.227 -0.3752 -0.7725 -0.0712
 2846TIP3    H130029   0.799   0.429  11.246 -0.6128 -0.2380 -1.3233
 2846TIP3    H230030   0.789   0.278  11.257  0.6770 -0.2770 -0.4239
 2847TIP3   OH230031   3.236   4.404   8.855 -0.4509  0.3362 -0.0145
 2847TIP3    H130032   3.229   4.457   8.935  0.9760  1.1220 -0.3628
 2847TIP3    H230033   3.267   4.466   8.789  1.0817 -0.8695 -0.4860
 2848TIP3   OH230034   2.231   3.265  34.599  0.7741 -0.7820 -0.2060
 2848TIP3    H130035   2.294   3.322  34.555  1.4684 -0.1566  1.4903
 2848TIP3    H230036   2.229   3.186  34.546  0.8104  0.2961 -1.8733
 2849TIP3   OH230037   3.621   1.728  10.942  0.0288  0.0569  0.5291
 2849TIP3    H130038   3.587   1.656  10.996 -0.7228  1.0892  1.4687
 2849TIP3    H230039   3.715   1.711  10.938  0.0907 -0.1665  2.0262
 2850TIP3   OH230040   2.675   4.040  30.305 -0.4475 -0.0456  0.2132
 2850TIP3    H130041   2.749   4.100  30.296 -0.8756  0.3139 -1.1840
 2850TIP3    H230042   2.714   3.954  30.314  0.1446  0.2458  0.4619
 2851TIP3   OH230043   4.167   1.355   2.917 -0.0033 -0.1684 -0.3438
 2851TIP3    H130044   4.186   1.276   2.967 -0.6643  0.1564  0.4424
 2851TIP3    H230045   4.075   1.374   2.935  0.4465  1.4612  0.4920
 2852TIP3   OH230046   3.680   0.659  40.003 -0.2407 -0.3541 -0.7304
 2852TIP3    H130047   3.774   0.665  40.017 -0.2347 -1.2002 -0.3496
 2852TIP3    H230048   3.669   0.675  39.909  0.6248 -3.2685 -1.4208
 2853TIP3   OH230049   1.100   3.965  35.573 -0.1350 -0.3353  0.0526
 2853TIP3    H130050   1.086   4.059  35.575 -0.4044 -0.3578 -0.5120
 2853TIP3    H230051   1.195   3.955  35.578 -0.1521 -0.0773  1.0920
 2854TIP3   OH230052   1.897   1.664  27.788  0.5339 -0.0496  0.1637
 2854TIP3    H130053   1.966   1.728  27.774 -0.5296  1.3689  1.0979
 2854TIP3    H230054   1.834   1.680  27.718  0.9252 -1.0443 -0.4333
 2855TIP3   OH230055   1.192   2.486   1.349  0.1263 -0.2265  0.3825
 2855TIP3    H130056   1.197   2.569   1.395  0.9496 -0.9904  1.7467
 2855TIP3    H230057   1.101   2.457   1.360  0.3683 -0.5165  1.8012
 2856TIP3   OH230058   2.803   0.869  35.246 -0.3202 -0.0300 -0.1191
 2856TIP3    H130059   2.844   0.938  35.298 -0.9174  0.1097  0.1811
 2856TIP3    H230060   2.719   0.853  35.290  0.0700 -1.3839  0.1887
 2857TIP3   OH230061   4.120   2.657  24.446 -0.4916 -0.1485 -0.5463
 2857TIP3    H130062   4.045   2.687  24.395 -1.1481 -0.7116  0.0747
 2857TIP3    H230063   4.194   2.707  24.411 -1.5101  2.1167  0.3298
 2858TIP3   OH230064   1.440   4.071   2.459  0.1721  0.3296  0.2050
 2858TIP3    H130065   1.452   4.076   2.554 -0.3355 -1.4520  0.3891
 2858TIP3    H230066   1.345   4.074   2.447  0.2399  0.6933 -0.2719
 2859TIP3   OH230067   1.785   2.202  16.695  0.1209 -0.0006  0.0606
 2859TIP3    H130068   1.753   2.291  16.680 -1.8168 -0.8970 -1.4893
 2859TIP3    H230069   1.710   2.156  16.733  1.1301 -0.9730  0.9382
 2860TIP3   OH230070   3.882   2.860  11.302 -0.5345  0.1844  0.1907
 2860TIP3    H130071   3.915   2.780  11.260 -2.3396 -0.0923 -0.8407
 2860TIP3    H230072   3.937   2.930  11.266  0.2892 -0.4628  0.1644
 2861TIP3   OH230073   1.716   3.551   8.875 -0.3583  0.1366 -0.0501
 2861TIP3    H130074   1.687   3.503   8.952  1.2796  0.0702  0.5631
 2861TIP3    H230075   1.790   3.604   8.906  0.8598 -0.4992 -1.7097
 2862TIP3   OH230076   4.315   1.148  10.831 -0.0415 -0.0402 -0.0434
 2862TIP3    H130077   4.403   1.177  10.855 -0.5367  1.8345 -0.2780
 2862TIP3    H230078   4.328   1.069  10.779  1.4460 -0.1714  0.4915
 2863TIP3   OH230079   0.006   3.827  34.879  0.0186 -0.9160  0.0411
 2863TIP3    H130080   0.048   3.757  34.930  0.6833 -1.0787 -0.7052
 2863TIP3    H230081  -0.086   3.802  34.877 -0.2034 -0.3783  1.9877
 2864TIP3   OH230082   4.369   2.741   6.405  0.1113 -0.0269 -0.4542
 2864TIP3    H130083   4.326   2.826   6.414  2.0084  0.8912  0.5199
 2864TIP3    H230084   4.341   2.709   6.319 -1.1227  1.2907 -0.5789
 2865TIP3   OH230085   2.486   2.820  13.671  0.2549 -0.2598  0.4513
 2865TIP3    H130086   2.461   2.902  13.712  0.6332  1.2244 -2.0607
 2865TIP3    H230087   2.579   2.830  13.651  0.5350 -1.6947  0.9343
 2866TIP3   OH230088   2.061   0.927  38.649 -0.4082  0.2420  0.2287
 2866TIP3    H130089   2.120   0.879  38.590  0.6929 -0.6146  1.9360
 2866TIP3    H230090   2.090   1.018  38.644  1.3127 -0.2055  1.2309
 2867TIP3   OH230091   4.346   3.733   9.024  0.1426 -0.1537 -0.3919
 2867TIP3    H130092   4.422   3.717   9.080 -0.2713  1.9902  0.9225
 2867TIP3    H230093   4.308   3.646   9.010  2.4274 -1.1952 -0.5507
 2868TIP3   OH230094   0.367   0.621   4.489 -0.1796  0.0307  0.1071
 2868TIP3    H130095   0.318   0.587   4.564  1.1906  1.4791  1.7418
 2868TIP3    H230096   0.324   0.704   4.468 -2.2282 -1.5419 -2.5455
 2869TIP3   OH230097   4.000   1.340   6.963  0.0228 -0.2324 -0.1865
 2869TIP3    H130098   4.001   1.248   6.989 -1.0178  0.0757  1.0207
 2869TIP3    H230099   4.093   1.364   6.956  0.3283 -0.9232  1.1647
 2870TIP3   OH230100   4.311   3.026  24.105  0.1799  0.2199 -0.5130
 2870TIP3    H130101   4.257   2.971  24.048 -1.1779  1.0152 -0.0333
 2870TIP3    H230102   4.333   3.102  24.052 -1.8797  1.4261  0.2153
 2871TIP3   OH230103   0.158   2.740  37.657 -0.0759  0.1921 -0.0301
 2871TIP3    H130104   0.139   2.665  37.714 -3.3130 -0.0246 -1.1732
 2871TIP3    H230105   0.076   2.789  37.654  1.2020  2.4216 -1.3410
 2872TIP3   OH230106   1.602   3.383  34.549  0.2009  0.0146 -0.1745
 2872TIP3    H130107   1.543   3.421  34.483  0.7019 -0.3095 -0.8162
 2872TIP3    H230108   1.678   3.441  34.549  0.4940 -0.3732 -0.3625
 2873TIP3   OH230109   1.966   2.958   0.271  0.0365 -0.6722 -0.3073
 2873TIP3    H130110   1.958   2.877   0.220  1.1572 -0.9906 -0.0123
 2873TIP3    H230111   1.955   3.028   0.207 -0.8397 -1.0532 -0.5872
 2874TIP3   OH230112   0.835   1.798  40.928  0.0273 -0.1305 -0.4427
 2874TIP3    H130113   0.803   1.729  40.986 -1.8803  0.5737 -0.5844
 2874TIP3    H230114   0.801   1.774  40.841  0.0769  0.5472 -0.6555
 2875TIP3   OH230115   3.819   1.524   9.608 -0.0879  0.0834 -0.2319
 2875TIP3    H130116   3.794   1.445   9.560  1.2557 -0.8344  0.5161
 2875TIP3    H230117   3.837   1.588   9.540 -0.9606 -0.3103 -0.8584
 2876TIP3   OH230118   0.851   0.325   9.981 -0.2495 -0.1453 -0.0258
 2876TIP3    H130119   0.908   0.276   9.922  0.8471  1.4155 -0.3201
 2876TIP3    H230120   0.769   0.335   9.932  0.1996  0.0158 -0.7598
 2877TIP3   OH230121   3.252   2.399  12.529 -0.1668 -0.2484 -0.1284
 2877TIP3    H130122   3.336   2.392  12.574 -0.3710  1.0990  0.5116
 2877TIP3    H230123   3.273   2.444  12.447 -0.1806 -0.4458 -0.2409
 2878TIP3   OH230124   3.178   2.689  10.020 -0.1189 -0.5540 -0.2546
 2878TIP3    H130125   3.131   2.615  10.058 -0.0182 -0.5680 -0.1566
 2878TIP3    H230126   3.165   2.761  10.083  1.0391 -0.9026  0.4143
 2879TIP3   OH230127   3.786   3.243  37.797  0.0656  0.1330  0.2645
 2879TIP3    H130128   3.792   3.174  37.864  0.3114  2.2107  2.4988
 2879TIP3    H230129   3.720   3.304  37.830 -0.0372  1.0872 -1.5718
 2880TIP3   OH230130   1.515   1.971  28.943  0.3909 -0.2904 -0.5452
 2880TIP3    H130131   1.486   2.063  28.949  1.1515  0.1326 -2.4587
 2880TIP3    H230132   1.434   1.922  28.926  0.0574  0.0978 -0.1108
 2881TIP3   OH230133   1.777   4.134   0.622 -0.0085 -0.6089 -0.8212
 2881TIP3    H130134   1.827   4.082   0.686 -0.1539  1.5405  1.1552
 2881TIP3    H230135   1.835   4.139   0.545  1.6845 -0.4221  0.4026
 2882TIP3   OH230136   3.450   4.031   5.776 -0.0619  0.2179 -0.7141
 2882TIP3    H130137   3.394   4.109   5.777  0.3177  0.4905  0.1608
 2882TIP3    H230138   3.450   4.000   5.866  0.5266 -0.2637 -0.8703
 2883TIP3   OH230139   2.111   1.290   6.154  0.2416  0.0570  0.3926
 2883TIP3    H130140   2.089   1.349   6.082  0.8098 -0.3925 -0.1690
 2883TIP3    H230141   2.085   1.203   6.121  0.1791 -0.1075  0.8765
 2884TIP3   OH230142   3.561   3.812   3.714 -0.1726  0.0429  0.2994
 2884TIP3    H130143   3.546   3.752   3.641  0.6069  2.2517 -1.7962
 2884TIP3    H230144   3.478   3.811   3.763 -0.8821 -1.1444 -0.8753
 2885TIP3   OH230145   3.503   1.140  36.809  0.9544  0.2172 -0.1172
 2885TIP3    H130146   3.435   1.089  36.853  0.7578  0.0365 -0.6272
 2885TIP3    H230147   3.582   1.124  36.861  0.4824  0.9427  0.8544
 2886TIP3   OH230148   1.432   0.098   7.810  0.7916  0.1854  0.3383
 2886TIP3    H130149   1.455   0.012   7.776  0.2767 -0.4129  1.4476
 2886TIP3    H230150   1.368   0.133   7.748  0.8933 -0.2973 -0.0382
 2887TIP3   OH230151   2.147   4.367   6.031  0.0561 -0.6664  0.1750
 2887TIP3    H130152   2.135   4.277   6.000  1.9722 -0.4640 -1.3765
 2887TIP3    H230153   2.093   4.420   5.973 -0.5161 -0.7254  0.6389
 2888TIP3   OH230154   2.185   0.375  35.007 -0.0425 -0.0946  0.1397
 2888TIP3    H130155   2.146   0.462  35.019  0.4059 -0.0835  1.7634
 2888TIP3    H230156   2.276   0.386  35.032 -0.0065 -1.0608  0.4569
 2889TIP3   OH230157   2.614   0.457  27.790  0.2626 -0.3356 -0.1214
 2889TIP3    H130158   2.520   0.473  27.798  0.4921  2.0891 -1.5487
 2889TIP3    H230159   2.624   0.364  27.811 -2.2873 -0.4050  1.1389
 2890TIP3   OH230160   4.319   2.301  34.251  0.0033  0.0345  0.5025
 2890TIP3    H130161   4.269   2.293  34.170 -2.6011 -0.5127  2.0630
 2890TIP3    H230162   4.266   2.357  34.307 -0.0910 -2.4008  3.0782
 2891TIP3   OH230163   1.175   0.766  27.161 -0.7358 -0.1184 -0.3167
 2891TIP3    H130164   1.205   0.677  27.179 -1.4478 -0.3653 -0.3472
 2891TIP3    H230165   1.227   0.793  27.084  0.5092  0.0344  0.5388
 2892TIP3   OH230166   2.801   3.493  38.409 -0.0831  0.5091  0.0050
 2892TIP3    H130167   2.834   3.553  38.343  0.9184 -0.2932 -0.2538
 2892TIP3    H230168   2.784   3.411  38.362 -1.1873  0.4934  0.3904
 2893TIP3   OH230169   1.286   2.727   1.922 -0.6221 -0.2849  0.0948
 2893TIP3    H130170   1.377   2.754   1.912 -1.2596  1.1333 -2.5637
 2893TIP3    H230171   1.263   2.755   2.011  1.0475  0.7620  0.2449
 2894TIP3   OH230172   0.553   0.279   6.020  0.4101  0.1203  0.3127
 2894TIP3    H130173   0.558   0.212   6.089  2.7165  0.7750  0.8666
 2894TIP3    H230174   0.562   0.231   5.939 -0.7076 -0.4954  0.5316
 2895TIP3   OH230175   1.052   4.094   6.230 -0.0644  0.1847  0.1168
 2895TIP3    H130176   1.133   4.050   6.256 -0.1842 -0.3179 -0.3461
 2895TIP3    H230177   1.063   4.112   6.137 -1.1406 -1.3773 -0.3640
 2896TIP3   OH230178   4.030   3.302  40.384 -0.2512 -0.5901 -0.6167
 2896TIP3    H130179   3.998   3.221  40.424  0.0995 -0.6933 -0.5434
 2896TIP3    H230180   4.108   3.325  40.435 -1.0779  0.4892  0.1883
 2897TIP3   OH230181   0.962   1.185  15.632  0.3988 -0.4186  0.2372
 2897TIP3    H130182   0.887   1.204  15.576  0.6177 -1.0997 -0.2872
 2897TIP3    H230183   0.945   1.235  15.712 -1.4543 -1.8679  0.8186
 2898TIP3   OH230184   4.141   0.466  35.232  0.3049  0.0574 -0.1890
 2898TIP3    H130185   4.097   0.382  35.248 -1.1752  0.5997 -1.1906
 2898TIP3    H230186   4.183   0.487  35.315 -1.9799 -0.1547  1.1141
 2899TIP3   OH230187   0.452   4.143  26.974 -0.3946  0.2615 -0.0513
 2899TIP3    H130188   0.392   4.216  26.965  1.4629  1.9537  0.6399
 2899TIP3    H230189   0.525   4.164  26.916  0.2761 -0.9616  0.3036
 2900TIP3   OH230190   3.553   3.407   9.069 -0.2307 -0.2424 -0.1204
 2900TIP3    H130191   3.631   3.379   9.023 -1.0099 -2.6952 -0.0947
 2900TIP3    H230192   3.578   3.408   9.162 -0.0742 -0.4562 -0.1612
 2901TIP3   OH230193   0.622   0.169   4.615  0.4698  0.2666  0.0400
 2901TIP3    H130194   0.659   0.124   4.539 -0.3481  0.1434 -0.2992
 2901TIP3    H230195   0.527   0.165   4.601  0.1837 -1.4656  2.0343
 2902TIP3   OH230196   2.416   0.841   0.734 -0.2474  0.2918  0.5081
 2902TIP3    H130197   2.460   0.892   0.666 -0.3904  0.0854  0.2621
 2902TIP3    H230198   2.485   0.788   0.774 -0.1944  0.2898  0.4129
 2903TIP3   OH230199   1.674   0.154  29.271  0.4016 -0.0608 -0.8826
 2903TIP3    H130200   1.648   0.071  29.312  2.0121 -0.6879 -1.0584
 2903TIP3    H230201   1.603   0.173  29.210 -1.7297  0.5255  1.5774
 2904TIP3   OH230202   2.171   2.466   6.915 -0.0219 -0.1667 -0.0394
 2904TIP3    H130203   2.173   2.560   6.936  1.1613 -0.1082 -0.3355
 2904TIP3    H230204   2.250   2.431   6.957 -0.1204 -0.9119 -0.4705
 2905TIP3   OH230205   3.077   3.296  29.919  0.3363 -0.2280 -0.1472
 2905TIP3    H130206   3.073   3.212  29.872  0.3373  0.0274 -0.6095
 2905TIP3    H230207   3.132   3.352  29.864 -0.8252  0.5266 -0.5820
 2906TIP3   OH230208   2.836   2.772  11.667  0.2227 -0.4873  0.3617
 2906TIP3    H130209   2.799   2.859  11.680  0.5368  0.2049 -2.6379
 2906TIP3    H230210   2.930   2.784  11.678  0.2102 -0.5664  0.5480
 2907TIP3   OH230211   0.712   3.023  37.289 -0.3325  0.0199 -0.4217
 2907TIP3    H130212   0.788   3.082  37.291 -1.0178  0.9154 -0.3392
 2907TIP3    H230213   0.691   3.006  37.381 -0.1116 -0.3997 -0.4442
 2908TIP3   OH230214   2.546   2.266  40.317 -0.1741 -0.0567 -0.3595
 2908TIP3    H130215   2.514   2.283  40.405 -2.4439 -0.6074 -1.0252
 2908TIP3    H230216   2.550   2.170  40.311  1.2737 -0.0112 -0.4437
 2909TIP3   OH230217   0.815   0.747  12.566  0.2698 -0.0805  0.5037
 2909TIP3    H130218   0.872   0.824  12.564  1.6733 -1.0911 -0.1307
 2909TIP3    H230219   0.872   0.674  12.544 -1.1155 -1.2671  0.6655
 2910TIP3   OH230220   1.027   4.045  30.097  0.0440 -0.0383  0.5328
 2910TIP3    H130221   0.986   4.131  30.092 -0.3433 -0.2668 -0.6578
 2910TIP3    H230222   1.112   4.061  30.137  0.1485  0.9666 -0.0454
 2911TIP3   OH230223   3.515   1.792  27.456 -0.2803 -0.5670  0.5042
 2911TIP3    H130224   3.440   1.805  27.515 -0.6552  0.7682 -0.2141
 2911TIP3    H230225   3.476   1.783  27.369  0.3762  1.5230 -0.0810
 2912TIP3   OH230226   2.495   0.426  30.683 -0.3116 -0.5468  0.2899
 2912TIP3    H130227   2.418   0.396  30.732 -0.6856 -0.6041 -0.3153
 2912TIP3    H230228   2.459   0.486  30.618  0.1854 -0.4130  0.1378
 2913TIP3   OH230229   3.836   3.224  10.711 -0.4793 -0.4794  0.0388
 2913TIP3    H130230   3.741   3.230  10.725 -0.3133  0.4893  0.9062
 2913TIP3    H230231   3.848   3.243  10.618 -1.1099 -0.3029 -0.0110
 2914TIP3   OH230232   0.851   2.168  16.221 -0.2139 -0.0852 -0.4931
 2914TIP3    H130233   0.780   2.104  16.227 -0.9088  0.6173 -1.0864
 2914TIP3    H230234   0.924   2.126  16.267 -0.7553 -1.1534 -0.5689
 2915TIP3   OH230235   1.645   4.349  31.880  0.0320  0.8439  0.3737
 2915TIP3    H130236   1.617   4.272  31.830 -0.3893  1.0088  0.3507
 2915TIP3    H230237   1.726   4.322  31.923  0.5862  0.7953 -0.6558
 2916TIP3   OH230238   1.259   0.810  15.689  0.1388  0.2860  0.2016
 2916TIP3    H130239   1.216   0.888  15.653  0.1091  0.0859 -0.1999
 2916TIP3    H230240   1.345   0.809  15.646 -0.4821 -0.8318 -1.0751
 2917TIP3   OH230241   0.865   3.115  27.233  0.0409  0.2614  0.0418
 2917TIP3    H130242   0.833   3.198  27.196  1.2709  0.0240 -1.6715
 2917TIP3    H230243   0.929   3.084  27.170  0.0902 -1.6955  0.9879
 2918TIP3   OH230244   4.338   1.490  31.825 -0.0975 -0.0472  0.2534
 2918TIP3    H130245   4.335   1.575  31.868  1.8544 -0.0643  0.5601
 2918TIP3    H230246   4.255   1.482  31.779 -1.6317  0.6865  2.6891
 2919TIP3   OH230247   1.745   1.463   2.232  0.2510  0.5149 -0.6056
 2919TIP3    H130248   1.760   1.412   2.153 -2.9093 -2.3839  0.4224
 2919TIP3    H230249   1.665   1.512   2.215 -0.3228  0.0570  0.6253
 2920TIP3   OH230250   3.930   1.298  30.196 -0.0575 -0.1400 -0.3074
 2920TIP3    H130251   3.972   1.359  30.256  2.0534 -2.6915  1.0320
 2920TIP3    H230252   3.841   1.287  30.231  0.0054  0.9990  0.2551
 2921TIP3   OH230253   3.192   4.023  28.861 -0.1912  0.0095  0.1868
 2921TIP3    H130254   3.159   3.979  28.783 -0.1906  0.3703 -0.0168
 2921TIP3    H230255   3.163   4.113  28.852 -0.1706  0.0569  0.5919
 2922TIP3   OH230256   0.344   2.016   9.369  0.0802  0.0808  0.1781
 2922TIP3    H130257   0.413   1.970   9.321 -0.0681  0.2069 -0.1615
 2922TIP3    H230258   0.384   2.041   9.452  0.4061  0.0485  0.0309
 2923TIP3   OH230259   2.173   2.721  27.300 -0.5865 -0.0784  0.5175
 2923TIP3    H130260   2.145   2.809  27.326 -1.1588 -0.2958  0.6422
 2923TIP3    H230261   2.093   2.678  27.270 -0.1267 -0.1913 -0.6143
 2924TIP3   OH230262   3.884   2.102   4.014 -0.3251  0.4119  0.6204
 2924TIP3    H130263   3.807   2.154   3.992 -0.1557  0.1919 -0.5519
 2924TIP3    H230264   3.857   2.012   3.999 -0.1479  0.2586  1.1904
 2925TIP3   OH230265   3.492   1.529  32.406 -0.2025  0.0089  0.4105
 2925TIP3    H130266   3.450   1.513  32.490  0.4983 -0.2227  0.7292
 2925TIP3    H230267   3.438   1.482  32.343 -1.6676  1.5071  0.4779
 2926TIP3   OH230268   0.889   3.592  10.348  0.2276 -0.2193  0.3629
 2926TIP3    H130269   0.949   3.518  10.363  0.6935  0.0710 -0.0272
 2926TIP3    H230270   0.838   3.598  10.429 -0.5122 -1.5919  0.0451
 2927TIP3   OH230271   3.417   2.438  10.249  0.2075  0.0292  0.9502
 2927TIP3    H130272   3.386   2.419  10.161  0.2823  2.9114  0.1823
 2927TIP3    H230273   3.385   2.366  10.302  1.2367 -2.4834 -1.5973
 2928TIP3   OH230274   0.548   3.964   9.036  0.2111 -0.0788 -0.1957
 2928TIP3    H130275   0.612   3.901   9.067  0.8468  0.6217 -0.0678
 2928TIP3    H230276   0.536   4.024   9.109 -0.5428 -0.1608 -0.2436
 2929TIP3   OH230277   3.977   3.273  11.419 -0.0449 -0.3944 -0.5557
 2929TIP3    H130278   4.072   3.283  11.413  0.0746  0.8428  1.9982
 2929TIP3    H230279   3.965   3.196  11.475 -0.5742 -0.9870 -1.4709
 2930TIP3   OH230280   2.272   2.077   6.167 -0.0844  0.0176 -0.5630
 2930TIP3    H130281   2.360   2.080   6.128  0.8485 -2.6032  1.0477
 2930TIP3    H230282   2.277   2.135   6.243  0.3971 -0.4340 -0.2451
 2931TIP3   OH230283   2.732   2.573   4.287  0.2580 -0.2595 -0.2493
 2931TIP3    H130284   2.746   2.483   4.316  0.6046  0.1088  0.7627
 2931TIP3    H230285   2.811   2.619   4.313 -0.0703  0.4237 -0.4416
 2932TIP3   OH230286   0.778   0.065   4.428  0.3147 -0.3403 -0.2876
 2932TIP3    H130287   0.869   0.071   4.399  0.5481  0.7379  0.5935
 2932TIP3    H230288   0.753  -0.026   4.412  2.5110 -1.4825  2.1960
 2933TIP3   OH230289   1.607   1.454  34.299  0.3264 -0.1965  0.5638
 2933TIP3    H130290   1.620   1.467  34.393 -0.3183 -1.2651  0.8294
 2933TIP3    H230291   1.520   1.490  34.281  0.3546 -0.1973  0.4201
 2934TIP3   OH230292   3.037   1.339  29.588 -0.1229 -0.3193 -0.5092
 2934TIP3    H130293   3.110   1.369  29.535 -0.6148 -0.3728 -1.2357
 2934TIP3    H230294   2.964   1.395  29.561  0.0770  1.1192  1.6160
 2935TIP3   OH230295   1.259   0.935  27.363 -0.3265 -0.3798  0.1634
 2935TIP3    H130296   1.205   0.880  27.307 -2.3499  0.3937  1.2428
 2935TIP3    H230297   1.348   0.919  27.334 -1.2557  0.2477 -3.5223
 2936TIP3   OH230298   2.984   2.396   2.032 -0.0536 -0.0057  0.1389
 2936TIP3    H130299   3.039   2.473   2.046 -0.4667  0.5668 -1.2398
 2936TIP3    H230300   2.989   2.380   1.938  0.0101 -1.6728  0.3910
 2937TIP3   OH230301   1.884   3.430  27.795  0.2935  0.1127 -0.1748
 2937TIP3    H130302   1.848   3.501  27.742  1.4919  0.5000 -0.5114
 2937TIP3    H230303   1.808   3.381  27.826 -0.4971  0.8922 -0.8549
 2938TIP3   OH230304   2.841   0.915  12.205  0.2013  0.1221  0.0736
 2938TIP3    H130305   2.831   1.010  12.204 -0.2688  0.1017 -1.6942
 2938TIP3    H230306   2.933   0.900  12.226  0.4956  1.0134 -0.5191
 2939TIP3   OH230307   2.002   1.799   5.451  0.0950  0.0782  0.0509
 2939TIP3    H130308   1.913   1.824   5.425 -0.1321 -0.8387 -0.0616
 2939TIP3    H230309   2.016   1.713   5.411  1.3291  0.5559 -0.6116
 2940TIP3   OH230310   1.381   2.758   0.594 -0.3387  0.8840  0.1223
 2940TIP3    H130311   1.304   2.767   0.539  1.0350 -1.3708 -2.3894
 2940TIP3    H230312   1.452   2.797   0.543  1.0278 -1.4807  0.0724
 2941TIP3   OH230313   2.139   2.925  11.541  0.0578  0.6096 -0.3380
 2941TIP3    H130314   2.095   2.851  11.583 -0.9392  1.3680 -0.0046
 2941TIP3    H230315   2.160   2.893  11.453 -1.0609  0.1697 -0.4626
 2942TIP3   OH230316   2.346   3.796  10.691  0.5598 -0.6070 -0.0050
 2942TIP3    H130317   2.323   3.889  10.683 -0.0504 -0.8498 -1.3356
 2942TIP3    H230318   2.439   3.796  10.713  0.8576  0.3184 -1.1606
 2943TIP3   OH230319   1.913   4.305   1.585 -0.2268 -0.1013  0.3968
 2943TIP3    H130320   1.931   4.383   1.533 -1.6103 -0.7112 -1.0857
 2943TIP3    H230321   1.972   4.239   1.549 -2.1483 -0.9138 -1.4956
 2944TIP3   OH230322   0.488   4.399  11.597 -0.0645  0.9136 -0.6332
 2944TIP3    H130323   0.518   4.489  11.583 -1.2827  1.2457 -1.2654
 2944TIP3    H230324   0.393   4.404  11.588 -0.2178 -0.3056  0.1171
 2945TIP3   OH230325   0.757   2.418  12.070 -0.3167  0.0622 -0.0327
 2945TIP3    H130326   0.804   2.460  11.998 -0.9748 -0.1687 -0.6029
 2945TIP3    H230327   0.698   2.486  12.102  0.3714  0.3464  0.6740
 2946TIP3   OH230328   3.495   2.606  38.423 -0.0902  0.1625  0.7367
 2946TIP3    H130329   3.409   2.635  38.393  0.1457  2.2880  1.8825
 2946TIP3    H230330   3.541   2.580  38.343 -1.9783 -1.7182  0.1815
 2947TIP3   OH230331   3.952   4.274   7.664  0.4226 -0.1947 -0.0177
 2947TIP3    H130332   3.942   4.324   7.745 -0.7058  0.2736 -0.4284
 2947TIP3    H230333   4.013   4.326   7.611 -0.0707  0.3037 -0.0980
 2948TIP3   OH230334   0.184   2.339   3.105  0.6777 -1.0027 -0.0379
 2948TIP3    H130335   0.145   2.264   3.060 -0.4453 -0.7648  0.4907
 2948TIP3    H230336   0.276   2.316   3.115  1.0766 -0.8988 -2.7620
 2949TIP3   OH230337   0.082   0.539  21.676  0.3257  0.0777 -0.0889
 2949TIP3    H130338   0.075   0.561  21.769  1.3300 -1.0569  0.2910
 2949TIP3    H230339   0.177   0.540  21.659  0.4054 -2.9292 -0.2433
 2950TIP3   OH230340   1.006   0.548  11.449  0.1297 -0.3791 -0.5863
 2950TIP3    H130341   0.911   0.559  11.453  0.3438  2.2722 -0.5786
 2950TIP3    H230342   1.035   0.611  11.382  2.0167  0.4177  0.8694
 2951TIP3   OH230343   2.643   0.441  10.173 -0.1501 -0.5219 -0.1351
 2951TIP3    H130344   2.652   0.449  10.078 -0.6948  1.3524 -0.0703
 2951TIP3    H230345   2.726   0.472  10.209 -0.8102  1.1079  0.0390
 2952TIP3   OH230346   1.972   3.130  11.861  0.0347 -0.2852  0.1380
 2952TIP3    H130347   2.058   3.116  11.902 -0.3410 -0.5745  0.8629
 2952TIP3    H230348   1.910   3.112  11.932 -0.5918  1.5406  0.1021
 2953TIP3   OH230349   4.208   4.077  12.684  0.4224 -0.1750  0.4373
 2953TIP3    H130350   4.174   4.002  12.635 -0.1545  1.0502 -1.1548
 2953TIP3    H230351   4.303   4.072  12.674  0.3502 -0.3708 -0.1569
 2954TIP3   OH230352   3.853   1.875  26.119 -0.1062  0.0060  0.4839
 2954TIP3    H130353   3.805   1.957  26.122  0.6412  0.4133  2.1807
 2954TIP3    H230354   3.914   1.879  26.192  1.4017 -1.1900 -0.6387
 2955TIP3   OH230355   4.199   4.191   7.344 -0.1018 -0.3375 -0.1627
 2955TIP3    H130356   4.119   4.176   7.396 -0.2719  3.5854  1.0410
 2955TIP3    H230357   4.266   4.210   7.409  0.9842 -0.2344 -1.2828
 2956TIP3   OH230358   1.016   1.237   2.240  0.3673 -0.0797  0.4405
 2956TIP3    H130359   1.026   1.279   2.325 -0.7667  0.8483  0.1429
 2956TIP3    H230360   0.924   1.210   2.238  0.3716 -0.0427 -0.5045
 2957TIP3   OH230361   1.228   1.840   0.769  0.3021 -0.5229  0.1455
 2957TIP3    H130362   1.164   1.771   0.752 -0.5431  0.6780 -1.9619
 2957TIP3    H230363   1.190   1.892   0.840 -1.0106  0.0682 -0.9594
 2958TIP3   OH230364   3.157   3.666  10.108 -0.7264 -0.5636 -0.1759
 2958TIP3    H130365   3.224   3.664  10.040 -0.8454  0.0214 -0.3224
 2958TIP3    H230366   3.076   3.686  10.061 -0.6140  1.1000  0.2450
 2959TIP3   OH230367   1.197   2.590   3.325  0.1749 -0.1401 -0.7525
 2959TIP3    H130368   1.252   2.526   3.280  1.7262  0.3229  0.4147
 2959TIP3    H230369   1.216   2.579   3.418 -1.5101  0.2476 -0.3113
 2960TIP3   OH230370   2.624   2.064  11.669 -0.6379 -0.6000 -0.3006
 2960TIP3    H130371   2.598   2.072  11.577  0.1898 -0.8082 -0.5636
 2960TIP3    H230372   2.640   1.971  11.682  1.3780 -0.3335 -0.5740
 2961TIP3   OH230373   0.604   2.580  27.658 -0.0045 -0.0833  0.1272
 2961TIP3    H130374   0.611   2.658  27.604 -0.5061  0.9039  1.4159
 2961TIP3    H230375   0.607   2.613  27.748 -1.2408 -1.4413  0.7149
 2962TIP3   OH230376   3.644   1.029  10.430  0.2261  0.2378  0.5595
 2962TIP3    H130377   3.592   0.953  10.456  1.2795 -0.1854  1.4913
 2962TIP3    H230378   3.605   1.103  10.477 -0.0650  0.0774  0.5717
 2963TIP3   OH230379   0.039   1.266   2.427 -0.6498 -0.2452  0.0407
 2963TIP3    H130380   0.079   1.335   2.375  2.7930 -1.7211  0.4862
 2963TIP3    H230381   0.069   1.282   2.516  0.2645 -2.2400  0.1577
 2964TIP3   OH230382   4.026   2.549   3.358 -0.2623 -0.3836  0.0078
 2964TIP3    H130383   4.066   2.463   3.373  2.1821  0.2655 -2.2075
 2964TIP3    H230384   4.061   2.604   3.428 -0.4622 -0.7637  0.4127
 2965TIP3   OH230385   0.271   1.005  35.643 -0.5291  0.6395 -0.4649
 2965TIP3    H130386   0.225   1.010  35.727  0.8439  2.3866  0.2633
 2965TIP3    H230387   0.363   0.997  35.668 -0.1765  0.2827 -1.8256
 2966TIP3   OH230388   4.137   2.984   9.074 -0.0308  0.3451 -0.2568
 2966TIP3    H130389   4.050   3.012   9.046  0.4445  1.3797 -0.7279
 2966TIP3    H230390   4.175   2.941   8.998  0.2261  0.7413 -0.3574
 2967TIP3   OH230391   1.525   0.242  27.930  0.2881 -0.2527  0.0712
 2967TIP3    H130392   1.574   0.184  27.873  0.8045 -0.2544  0.5131
 2967TIP3    H230393   1.592   0.294  27.975 -0.1609  0.7117 -0.3450
 2968TIP3   OH230394   4.381   0.914   7.978  0.2815 -0.1327 -0.0908
 2968TIP3    H130395   4.462   0.948   7.940 -0.6089  1.3333 -0.7660
 2968TIP3    H230396   4.341   0.990   8.021 -0.7761 -0.8168  0.1743
 2969TIP3   OH230397   0.418   2.403  27.616 -0.0231  0.2940  0.3073
 2969TIP3    H130398   0.354   2.426  27.683 -0.1937 -0.5350  0.4387
 2969TIP3    H230399   0.493   2.461  27.634  0.2486 -0.4450  1.7205
 2970TIP3   OH230400   0.258   0.530  36.416  0.0899 -0.3340 -0.2991
 2970TIP3    H130401   0.167   0.557  36.400 -0.4935 -0.8461  1.7807
 2970TIP3    H230402   0.256   0.493  36.504  2.3769 -0.1528 -0.1184
 2971TIP3   OH230403   0.027   0.704   3.253  0.4070  0.6317  0.2807
 2971TIP3    H130404   0.093   0.731   3.189 -0.7298  0.5246 -0.9771
 2971TIP3    H230405  -0.055   0.741   3.220 -0.7102 -1.7900  0.0897
 2972TIP3   OH230406   0.182   1.934   0.393  0.0118 -0.1065  0.3502
 2972TIP3    H130407   0.152   2.010   0.444  0.3182  0.6806 -0.6169
 2972TIP3    H230408   0.277   1.941   0.394  0.0105  0.7844 -1.5541
 2973TIP3   OH230409   2.511   1.878   5.806 -0.1525 -0.1228  0.0034
 2973TIP3    H130410   2.485   1.830   5.727 -2.3321 -1.0449  1.1922
 2973TIP3    H230411   2.597   1.914   5.785  0.3613 -2.2454 -1.9724
 2974TIP3   OH230412   0.321   3.403  24.562 -0.0822 -0.3359  0.0309
 2974TIP3    H130413   0.316   3.326  24.618 -0.2630  0.0169  0.5064
 2974TIP3    H230414   0.394   3.454  24.598 -0.8280  0.3674  0.5607
 2975TIP3   OH230415   1.800   1.080  16.880 -0.0361 -0.0773 -0.3877
 2975TIP3    H130416   1.874   1.070  16.820  0.4893  2.1625 -0.1832
 2975TIP3    H230417   1.840   1.083  16.967 -0.6537 -1.6411 -0.0139
 2976TIP3   OH230418   3.938   3.034   8.908  0.0770  0.2233  0.9069
 2976TIP3    H130419   3.978   2.952   8.877 -1.8376 -0.1702 -0.7396
 2976TIP3    H230420   3.925   3.086   8.829 -0.4161  1.3535  1.7001
 2977TIP3   OH230421   1.143   4.221  33.715  0.1263  0.4340  0.3795
 2977TIP3    H130422   1.049   4.217  33.727  0.1763  1.1389  1.0794
 2977TIP3    H230423   1.175   4.276  33.786  1.3559 -1.6940  1.5724
 2978TIP3   OH230424   3.993   3.078  36.593 -0.2353  0.1018  0.4328
 2978TIP3    H130425   4.053   3.068  36.667  0.6360 -0.5409 -0.3366
 2978TIP3    H230426   3.983   3.173  36.584  0.7134  0.2290  0.5564
 2979TIP3   OH230427   3.888   1.324   2.279 -0.8238 -0.0811  0.4669
 2979TIP3    H130428   3.899   1.368   2.195 -0.5626 -0.5942  0.2320
 2979TIP3    H230429   3.966   1.270   2.288 -0.5277  0.4766  1.3481
 2980TIP3   OH230430   4.086   2.746  32.483  0.4345  0.7152 -0.0091
 2980TIP3    H130431   4.139   2.711  32.555 -1.2452 -0.4452  0.7184
 2980TIP3    H230432   4.076   2.673  32.422 -0.9487  0.6732  0.2430
 2981TIP3   OH230433   2.091   0.299  12.570 -0.0097 -0.5279 -1.0417
 2981TIP3    H130434   2.038   0.329  12.496 -0.6292 -0.0580 -0.4318
 2981TIP3    H230435   2.057   0.348  12.645  1.3859 -0.1247 -0.6431
 2982TIP3   OH230436   0.074   2.491  29.053  0.6101  0.3439 -0.6332
 2982TIP3    H130437   0.111   2.429  29.116  0.0314 -0.0967 -0.7242
 2982TIP3    H230438   0.032   2.558  29.108  0.4399  0.1667 -0.5475
 2983TIP3   OH230439   3.916   3.561   3.559  0.3253 -0.1732 -0.4617
 2983TIP3    H130440   3.969   3.511   3.620 -0.6170 -1.6334 -0.7748
 2983TIP3    H230441   3.970   3.636   3.535  1.0364 -0.0259  1.4915
 2984TIP3   OH230442   3.047   2.225   2.633  0.6392  0.5832  0.1254
 2984TIP3    H130443   3.056   2.207   2.726  0.3949  1.2559  0.2835
 2984TIP3    H230444   2.953   2.218   2.616  0.6957  0.3422 -0.1008
 2985TIP3   OH230445   2.332   4.367   2.985  0.3971  0.2565 -0.1493
 2985TIP3    H130446   2.266   4.345   2.919 -0.6596  1.3347  0.5036
 2985TIP3    H230447   2.386   4.434   2.943 -2.3982  3.5890  1.1229
 2986TIP3   OH230448   1.834   3.734  14.395  0.2802 -0.1949 -0.4370
 2986TIP3    H130449   1.855   3.713  14.305  0.2147  2.7816 -1.2344
 2986TIP3    H230450   1.751   3.782  14.390  0.6495  0.6787  1.1045
 2987TIP3   OH230451   3.263   1.310   3.209 -0.0403  0.0899 -0.2562
 2987TIP3    H130452   3.316   1.252   3.263 -0.5864  1.5191  1.9199
 2987TIP3    H230453   3.272   1.396   3.250 -2.9309  0.6563 -0.6119
 2988TIP3   OH230454   2.801   2.848   4.706 -0.3293 -0.3749 -0.3785
 2988TIP3    H130455   2.831   2.771   4.657  0.6778 -2.8756  3.7156
 2988TIP3    H230456   2.717   2.821   4.744  0.5192  0.0845  1.9387
 2989TIP3   OH230457   0.369   0.294  36.974  0.1921 -0.5869 -0.2145
 2989TIP3    H130458   0.419   0.225  37.016  0.1828 -0.5318 -0.1126
 2989TIP3    H230459   0.377   0.369  37.033 -1.2986 -1.0312  0.5969
 2990TIP3   OH230460   2.570   0.720   8.612  0.3522  0.2688  0.5253
 2990TIP3    H130461   2.624   0.647   8.583 -0.1984  0.4360 -1.0727
 2990TIP3    H230462   2.535   0.693   8.697  1.0167 -0.8546  0.4548
 2991TIP3   OH230463   0.915   3.118  37.898 -0.8434  0.5462 -0.1118
 2991TIP3    H130464   0.910   3.151  37.988  0.3961  0.7434 -0.0955
 2991TIP3    H230465   0.994   3.157  37.863 -1.1632  0.2373 -1.2068
 2992TIP3   OH230466   0.016   0.408  10.147  0.6870  0.0228  0.0552
 2992TIP3    H130467  -0.022   0.470  10.085 -0.9322 -0.8419  0.1347
 2992TIP3    H230468   0.013   0.453  10.231 -1.8229 -0.5871  0.3871
 2993TIP3   OH230469   0.275   4.019  35.954 -0.5041 -0.4461 -0.2473
 2993TIP3    H130470   0.210   4.088  35.961  0.4134  0.5410 -0.9637
 2993TIP3    H230471   0.321   4.038  35.872  0.0804 -1.6416 -0.2219
 2994TIP3   OH230472   1.694   1.493   2.524  0.4915  0.5400 -0.2701
 2994TIP3    H130473   1.659   1.454   2.444  0.7648 -0.2222 -0.0335
 2994TIP3    H230474   1.754   1.426   2.558 -0.3779  0.4197  1.1051
 2995TIP3   OH230475   3.062   1.757   8.812  0.3800  0.5211 -0.1261
 2995TIP3    H130476   2.999   1.720   8.751  1.2159  2.0967 -2.0582
 2995TIP3    H230477   3.147   1.722   8.784  0.7659  1.1759  0.1849
 2996TIP3   OH230478   2.609   2.283  31.975 -0.1091  0.4141 -0.7040
 2996TIP3    H130479   2.538   2.233  31.934 -0.3749  1.2546 -1.3028
 2996TIP3    H230480   2.633   2.348  31.909  0.0763  1.2152  0.1404
 2997TIP3   OH230481   2.518   3.956  12.306 -0.2443 -0.1429 -0.7058
 2997TIP3    H130482   2.440   3.992  12.262 -0.4905 -1.1561 -1.1200
 2997TIP3    H230483   2.589   4.014  12.278 -0.8114  0.6890 -0.4634
 2998TIP3   OH230484   3.474   3.452  37.034 -0.0888  0.9112 -0.2499
 2998TIP3    H130485   3.402   3.516  37.039 -0.1422  0.8212  0.1910
 2998TIP3    H230486   3.461   3.395  37.110  0.7672  1.2350  0.1537
 2999TIP3   OH230487   0.755   1.874  38.272  0.1370  0.2103 -0.7657
 2999TIP3    H130488   0.736   1.806  38.336 -0.0136  1.6746  0.8363
 2999TIP3    H230489   0.843   1.855  38.241  0.3508 -0.3552  0.1524
 3000TIP3   OH230490   4.150   4.396  38.680 -0.5487  0.4206  0.1566
 3000TIP3    H130491   4.057   4.375  38.694 -0.5283 -0.2874 -0.6986
 3000TIP3    H230492   4.177   4.339  38.608  0.4556  0.8935  0.1434
 3001TIP3   OH230493   0.490   2.088  35.768 -0.0936 -0.3287  0.3158
 3001TIP3    H130494   0.561   2.149  35.747 -0.0119  0.0744  1.7118
 3001TIP3    H230495   0.451   2.123  35.848 -3.2093  0.6245 -1.4580
 3002TIP3   OH230496   2.902   0.032  10.662  0.5194 -0.7327  0.1636
 3002TIP3    H130497   2.928   0.046  10.753  0.3137  1.2125 -0.0504
 3002TIP3    H230498   2.807   0.022  10.665  0.3022  1.0587  0.0075
 3003TIP3   OH230499   0.890   2.231  30.381 -0.4597  0.2181  0.1068
 3003TIP3    H130500   0.833   2.186  30.318 -0.1625  0.3711 -0.2749
 3003TIP3    H230501   0.884   2.323  30.357  0.7369  0.1255 -0.5782
 3004TIP3   OH230502   0.688   2.678  10.825  0.0665  0.3763  0.0309
 3004TIP3    H130503   0.668   2.770  10.809  1.3656  0.4247 -1.5815
 3004TIP3    H230504   0.621   2.630  10.775 -0.4226  0.4407  0.6190
 3005TIP3   OH230505   2.125   2.288   1.124  0.5693  0.2578  0.3478
 3005TIP3    H130506   2.031   2.296   1.142  0.6247  0.2794  0.6409
 3005TIP3    H230507   2.165   2.353   1.183  0.8764 -0.7594  1.2892
 3006TIP3   OH230508   3.928   1.971   7.462  0.2715  0.8149 -0.2934
 3006TIP3    H130509   3.913   2.066   7.458 -1.2124  0.5753 -1.0656
 3006TIP3    H230510   4.023   1.962   7.462  0.5464  2.2585 -3.3693
 3007TIP3   OH230511   3.664   0.965  11.466 -0.0744 -0.8581 -0.5285
 3007TIP3    H130512   3.731   0.900  11.446 -1.1030 -1.9686 -0.4460
 3007TIP3    H230513   3.644   0.951  11.558 -1.7102 -1.7941 -0.9937
 3008TIP3   OH230514   0.876   1.797  16.717  0.5848 -0.5100 -0.3318
 3008TIP3    H130515   0.850   1.812  16.808  2.1982 -1.4506  0.3211
 3008TIP3    H230516   0.813   1.848  16.666  0.8168  1.6412  1.3816
 3009TIP3   OH230517   4.078   4.017  32.758  0.2527  0.5368 -0.5697
 3009TIP3    H130518   3.997   4.067  32.750 -0.8432 -1.4117 -2.7330
 3009TIP3    H230519   4.106   4.031  32.849 -2.8056  0.8631  0.4350
 3010TIP3   OH230520   1.201   2.734  13.829 -0.0857  0.5462 -0.2046
 3010TIP3    H130521   1.199   2.639  13.831  0.5016  0.5174 -0.7245
 3010TIP3    H230522   1.173   2.757  13.741 -0.8747  0.8886  0.1204
 3011TIP3   OH230523   2.943   2.392  35.589 -0.3680  0.0246 -0.2102
 3011TIP3    H130524   2.894   2.471  35.564  1.6125  1.1274 -0.8139
 3011TIP3    H230525   2.876   2.325  35.599 -1.8547  0.9397 -3.0071
 3012TIP3   OH230526   4.253   3.182   2.859 -0.1586 -0.2259 -0.0976
 3012TIP3    H130527   4.251   3.158   2.952  0.3507 -2.7979 -0.6723
 3012TIP3    H230528   4.336   3.228   2.848 -1.4362  2.6070  1.1876
 3013TIP3   OH230529   1.784   1.051  35.138 -0.1743 -0.1834  0.1136
 3013TIP3    H130530   1.757   0.978  35.194 -0.7804  0.1286  0.2407
 3013TIP3    H230531   1.721   1.121  35.158 -0.4489 -0.0946 -1.0147
 3014TIP3   OH230532   1.781   1.722  28.442 -0.3007 -0.0029  0.2427
 3014TIP3    H130533   1.695   1.755  28.416 -0.2994  0.0546  0.3133
 3014TIP3    H230534   1.786   1.739  28.536 -0.1402  0.1545  0.2072
 3015TIP3   OH230535   1.951   3.463  37.016 -0.0788  0.6487  0.1231
 3015TIP3    H130536   1.978   3.424  37.099  1.1324  0.3802 -0.3813
 3015TIP3    H230537   2.003   3.543  37.010  1.9705 -0.7053 -1.6429
 3016TIP3   OH230538   0.685   2.189  40.888 -0.4139  0.3814 -0.8409
 3016TIP3    H130539   0.680   2.213  40.795 -0.2576  1.4425 -0.5900
 3016TIP3    H230540   0.651   2.265  40.934  0.6745  0.3619  0.0276
 3017TIP3   OH230541   4.079   0.628  20.696  0.6023 -0.0947  0.4923
 3017TIP3    H130542   4.001   0.680  20.676  0.9153 -0.2995 -1.4675
 3017TIP3    H230543   4.145   0.693  20.720  0.2760  0.2039  0.5956
 3018TIP3   OH230544   2.006   4.123   0.811 -0.2708 -0.1680  0.2567
 3018TIP3    H130545   2.050   4.158   0.889  0.0161  0.3382 -0.1246
 3018TIP3    H230546   2.057   4.045   0.788 -0.6301 -0.5779  0.8378
 3019TIP3   OH230547   3.871   0.692  41.316  0.2692  0.2774 -0.0929
 3019TIP3    H130548   3.868   0.609  41.362 -0.0943 -0.4718 -1.4143
 3019TIP3    H230549   3.843   0.757  41.381 -2.5065 -1.0251  0.1455
 3020TIP3   OH230550   2.375   4.289   2.353 -0.1952  0.0921  0.0814
 3020TIP3    H130551   2.315   4.220   2.326 -0.9230  1.0524 -0.8378
 3020TIP3    H230552   2.407   4.261   2.439 -0.5490 -1.3225 -0.2252
 3021TIP3   OH230553   4.265   4.385  12.451 -0.3417  0.2784 -0.0259
 3021TIP3    H130554   4.248   4.476  12.475  0.4492  1.1171 -2.3858
 3021TIP3    H230555   4.181   4.354  12.416 -0.5770  0.1149  0.6632
 3022TIP3   OH230556   3.566   1.579  25.145 -0.1623  0.0489  0.0353
 3022TIP3    H130557   3.546   1.536  25.229 -2.0702 -0.9888 -0.8659
 3022TIP3    H230558   3.558   1.672  25.164 -0.1516 -0.1456  1.1106
 3023TIP3   OH230559   1.000   1.670   1.002 -0.6244 -0.3191  0.1292
 3023TIP3    H130560   0.964   1.583   0.986  0.5423 -0.8011 -0.0284
 3023TIP3    H230561   1.015   1.672   1.097  1.0536 -1.0231 -0.0859
 3024TIP3   OH230562   1.756   0.094  41.081 -0.7040 -0.0492  0.1469
 3024TIP3    H130563   1.753   0.082  41.176  1.3325  1.7271  0.5031
 3024TIP3    H230564   1.793   0.011  41.049 -0.4813 -0.2945  0.9933
 3025TIP3   OH230565   1.356   1.655  11.503 -0.0560 -0.1783 -0.7051
 3025TIP3    H130566   1.372   1.599  11.427  0.6540 -1.0952  0.0992
 3025TIP3    H230567   1.421   1.628  11.567 -0.0043  1.2680 -0.1149
 3026TIP3   OH230568   2.345   4.120  27.409  0.4369  0.5873  0.3109
 3026TIP3    H130569   2.383   4.034  27.389  0.2941  0.8815 -1.3140
 3026TIP3    H230570   2.295   4.106  27.490  0.1305 -0.9417 -0.1204
 3027TIP3   OH230571   3.209   1.714  40.144 -0.1375 -0.1318 -0.1523
 3027TIP3    H130572   3.145   1.768  40.099  1.1322  0.2209 -1.6197
 3027TIP3    H230573   3.270   1.776  40.183  1.8483 -0.3690 -2.6041
 3028TIP3   OH230574   0.140   2.508   4.807  0.2965  0.1017 -0.2256
 3028TIP3    H130575   0.068   2.460   4.847  1.1645  0.1598  1.4845
 3028TIP3    H230576   0.159   2.460   4.726  0.6400 -2.0446  1.0449
 3029TIP3   OH230577   0.972   0.730  34.194 -0.1241  0.2418  0.4882
 3029TIP3    H130578   0.995   0.738  34.287 -0.8100  0.3980  0.6496
 3029TIP3    H230579   0.911   0.657  34.192  0.0107  0.1385  0.1302
 3030TIP3   OH230580   1.633   0.692   3.766 -0.3489  0.0566  1.0909
 3030TIP3    H130581   1.689   0.674   3.690 -1.9810  0.0663 -0.1744
 3030TIP3    H230582   1.638   0.786   3.778 -1.6635  0.3566 -0.3606
 3031TIP3   OH230583   0.912   1.190   3.055  0.0182  0.3767  0.2523
 3031TIP3    H130584   0.948   1.156   3.137 -0.0471  1.3263  0.6820
 3031TIP3    H230585   0.819   1.206   3.073 -0.3638 -0.8307 -0.4687
 3032TIP3   OH230586   3.199   2.406  12.928  0.1682 -0.2209 -0.0190
 3032TIP3    H130587   3.286   2.369  12.943  0.0253 -0.2043  0.8839
 3032TIP3    H230588   3.171   2.439  13.014 -0.7622 -0.2960 -0.2799
 3033TIP3   OH230589   1.951   4.328  41.328  0.5277  0.1623  0.2687
 3033TIP3    H130590   1.880   4.277  41.289 -0.1066  0.8478  0.5003
 3033TIP3    H230591   2.004   4.358  41.254  0.1515  0.2665  0.0432
 3034TIP3   OH230592   0.926   0.589   0.337  0.0482 -0.1139  0.3890
 3034TIP3    H130593   0.900   0.555   0.251  0.3691 -0.5908  0.4758
 3034TIP3    H230594   0.881   0.531   0.399  0.1953 -0.0617  0.5416
 3035TIP3   OH230595   2.711   3.919  31.773 -0.2377  0.0795  0.2298
 3035TIP3    H130596   2.624   3.879  31.766  0.9367 -2.5279 -0.7866
 3035TIP3    H230597   2.706   3.998  31.719 -1.1731 -1.6210 -2.3523
 3036TIP3   OH230598   1.324   1.033  13.040 -0.0507  0.1883  0.3579
 3036TIP3    H130599   1.265   1.088  12.988  1.3990  2.2439  0.7758
 3036TIP3    H230600   1.345   0.960  12.983  0.2213  1.5435 -1.3772
 3037TIP3   OH230601   2.883   3.002  10.584  0.1901  0.5017 -0.1963
 3037TIP3    H130602   2.960   3.017  10.530  0.4305 -1.7976 -0.6370
 3037TIP3    H230603   2.811   2.994  10.521 -0.1329  1.0911  0.0904
 3038TIP3   OH230604   1.714   3.356   5.799  0.9464 -0.5861 -0.1929
 3038TIP3    H130605   1.746   3.399   5.879 -0.0194  0.1013 -0.1632
 3038TIP3    H230606   1.768   3.394   5.729  0.2424  0.5735 -0.1409
 3039TIP3   OH230607   4.395   1.373  39.850  0.1474  0.3233  0.3807
 3039TIP3    H130608   4.374   1.462  39.879  0.9693  1.2210 -1.6421
 3039TIP3    H230609   4.313   1.341  39.810  0.2895  0.7858 -0.2985
 3040TIP3   OH230610   0.152   2.707  37.990  0.3086 -0.2843  0.1613
 3040TIP3    H130611   0.112   2.786  37.954  0.0954  0.0083  1.0129
 3040TIP3    H230612   0.156   2.646  37.916 -0.1049  0.2993 -0.3512
 3041TIP3   OH230613   2.391   0.324  34.548  0.0287 -0.7921  0.3980
 3041TIP3    H130614   2.308   0.339  34.593  0.4338  0.5941  0.7176
 3041TIP3    H230615   2.453   0.383  34.591  0.3884  0.7759 -2.1240
 3042TIP3   OH230616   0.625   3.448   4.253 -0.6201  0.5185 -0.0092
 3042TIP3    H130617   0.650   3.436   4.345 -0.4156  0.6583 -0.0468
 3042TIP3    H230618   0.662   3.372   4.208 -0.2015  0.7573 -0.0756
 3043TIP3   OH230619   3.059   2.011  34.011  0.5421  0.5026  0.4300
 3043TIP3    H130620   2.975   2.026  33.968  1.8169  1.5514 -1.8340
 3043TIP3    H230621   3.060   2.074  34.083 -1.4514 -0.9838  1.8796
 3044TIP3   OH230622   3.267   1.799  34.195  0.3983  0.2552  0.1101
 3044TIP3    H130623   3.187   1.835  34.157  0.5205  0.3680 -0.0419
 3044TIP3    H230624   3.275   1.842  34.281  0.2735  0.2101  0.1440
 3045TIP3   OH230625   0.633   3.715   6.047  0.3762 -0.1720 -0.1321
 3045TIP3    H130626   0.663   3.686   6.133 -1.2970 -0.9214  0.2325
 3045TIP3    H230627   0.609   3.807   6.060  0.6792 -0.1180  0.0495
 3046TIP3   OH230628   1.889   0.657  15.881 -0.0744 -0.7253  0.0597
 3046TIP3    H130629   1.914   0.569  15.909  0.4178  0.2753  3.1604
 3046TIP3    H230630   1.796   0.664  15.903 -0.3182 -0.7023 -0.9259
 3047TIP3   OH230631   0.450   1.226  40.830 -0.4187  0.1008  0.1467
 3047TIP3    H130632   0.509   1.197  40.760 -1.0219 -2.2341  0.5149
 3047TIP3    H230633   0.363   1.225  40.790 -0.7899 -1.4151  0.9177
 3048TIP3   OH230634   2.110   3.479  34.376 -0.1386  0.7087 -0.2696
 3048TIP3    H130635   2.150   3.551  34.424  3.2631 -1.4954  0.5770
 3048TIP3    H230636   2.164   3.469  34.297  0.8334 -2.0599  0.6186
 3049TIP3   OH230637   1.905   0.494  18.602 -0.2881  0.3730 -0.1669
 3049TIP3    H130638   1.951   0.544  18.535  2.0035  0.9911  1.7177
 3049TIP3    H230639   1.847   0.436  18.553  1.2438  0.7840 -2.6688
 3050TIP3   OH230640   0.290   2.552  28.066 -0.2473 -0.0983  0.1996
 3050TIP3    H130641   0.253   2.571  28.152  1.6285  0.0311  1.0334
 3050TIP3    H230642   0.313   2.637  28.030  2.6516 -0.2835  1.3606
 3051TIP3   OH230643   2.035   3.075  35.692 -0.3193 -0.1137 -0.1692
 3051TIP3    H130644   2.039   3.091  35.786  2.8962  1.0312 -0.3573
 3051TIP3    H230645   1.979   3.145  35.658 -0.7604  0.0097  0.7866
 3052TIP3   OH230646   2.278   0.637  12.337 -0.1044 -0.0349 -0.4206
 3052TIP3    H130647   2.327   0.680  12.267 -1.2780  0.7678 -0.7721
 3052TIP3    H230648   2.259   0.707  12.399  0.7900 -0.7060  0.6611
 3053TIP3   OH230649   0.700   1.881   3.272 -0.1654 -0.3306 -0.2516
 3053TIP3    H130650   0.792   1.857   3.282 -0.0080  1.0430  2.5062
 3053TIP3    H230651   0.701   1.961   3.220  0.0760 -0.9101 -1.1611
 3054TIP3   OH230652   0.513   2.021  10.223  0.1572 -0.7541 -0.1975
 3054TIP3    H130653   0.574   2.088  10.192  0.3032 -0.9139 -0.2557
 3054TIP3    H230654   0.561   1.939  10.212  0.3683 -0.7753  0.8475
 3055TIP3   OH230655   2.322   2.168  12.286  0.0060 -0.1675 -0.4685
 3055TIP3    H130656   2.261   2.210  12.225  0.4057 -2.7174 -2.8485
 3055TIP3    H230657   2.273   2.092  12.319  0.6521 -0.1849  0.4806
 3056TIP3   OH230658   2.664   2.857  31.815 -0.2535 -0.0359  0.7072
 3056TIP3    H130659   2.609   2.935  31.809  1.1240  0.8775 -0.7956
 3056TIP3    H230660   2.622   2.793  31.756 -0.1048  0.4235  0.0879
 3057TIP3   OH230661   4.107   2.821   4.839  0.3171 -0.1006 -0.3886
 3057TIP3    H130662   4.117   2.878   4.763 -2.1833 -0.9740 -1.5032
 3057TIP3    H230663   4.127   2.733   4.807  0.7565 -0.3085  0.4039
 3058TIP3   OH230664   0.261   3.888  34.820 -0.1863 -0.1796 -0.1764
 3058TIP3    H130665   0.303   3.925  34.898  0.9835 -0.4375 -0.6725
 3058TIP3    H230666   0.170   3.875  34.847 -0.0599  0.7720  0.7841
 3059TIP3   OH230667   2.715   0.407   0.393  0.1976 -0.3484 -0.7455
 3059TIP3    H130668   2.714   0.457   0.312 -0.4651 -0.6565 -0.9328
 3059TIP3    H230669   2.652   0.336   0.379 -0.3311 -0.0868  0.2331
 3060TIP3   OH230670   1.661   0.440  31.099 -0.9434 -0.3944  0.3567
 3060TIP3    H130671   1.640   0.372  31.163 -2.0642  0.1044  0.5422
 3060TIP3    H230672   1.627   0.521  31.138 -2.0061 -0.1350 -1.0225
 3061TIP3   OH230673   1.349   0.058   2.403  0.1005  0.0588  0.5951
 3061TIP3    H130674   1.442   0.051   2.384 -0.3605 -0.3733 -1.9195
 3061TIP3    H230675   1.310  -0.019   2.361 -1.3717  0.0496  1.8645
 3062TIP3   OH230676   3.342   3.407  35.413 -0.5874 -0.1247 -0.5371
 3062TIP3    H130677   3.362   3.314  35.426  0.6288  0.3492  1.1792
 3062TIP3    H230678   3.246   3.411  35.415 -0.7072 -1.4694 -1.7985
 3063TIP3   OH230679   0.175   0.704  33.070  0.1626  0.1473 -0.0507
 3063TIP3    H130680   0.109   0.639  33.044 -1.0464  1.4981 -0.5060
 3063TIP3    H230681   0.182   0.695  33.165 -1.3854  0.5793  0.1300
 3064TIP3   OH230682   1.186   1.843  31.043 -0.0305  0.0465 -0.1342
 3064TIP3    H130683   1.263   1.823  31.097 -0.9880 -0.6787  1.0159
 3064TIP3    H230684   1.178   1.938  31.047  0.7034  0.1127 -0.1243
 3065TIP3   OH230685   3.925   0.126  12.322  0.0371 -0.5328 -0.6125
 3065TIP3    H130686   3.939   0.064  12.393 -0.1386  1.4725  1.2558
 3065TIP3    H230687   4.007   0.174  12.314 -1.2506  2.2107  1.3077
 3066TIP3   OH230688   2.381   1.928   6.504 -0.0477  0.3709  0.2987
 3066TIP3    H130689   2.313   1.975   6.456 -0.6296 -0.6013  0.1494
 3066TIP3    H230690   2.336   1.853   6.542  0.8383  0.0085  0.6565
 3067TIP3   OH230691   3.399   1.538  36.629  0.4540  0.1923 -0.2775
 3067TIP3    H130692   3.476   1.585  36.661  0.2560 -0.1539  0.7689
 3067TIP3    H230693   3.387   1.467  36.693 -0.0861 -0.4109 -1.0417
 3068TIP3   OH230694   1.288   4.249   7.629 -0.3921 -0.1887  0.5602
 3068TIP3    H130695   1.252   4.161   7.616 -0.0462 -0.5323  1.8262
 3068TIP3    H230696   1.257   4.276   7.715 -0.9272  1.1634 -0.0332
 3069TIP3   OH230697   3.968   1.903  36.754  0.0236  0.2233  0.5830
 3069TIP3    H130698   3.924   1.988  36.753 -1.1501 -0.3032  2.4236
 3069TIP3    H230699   3.972   1.877  36.662 -1.8429  1.1500  0.1970
 3070TIP3   OH230700   2.449   1.661  37.104 -0.7680  0.2245  0.6608
 3070TIP3    H130701   2.450   1.662  37.009 -1.2774 -2.9736  0.5064
 3070TIP3    H230702   2.541   1.653  37.129 -0.6341  1.0580  0.4808
 3071TIP3   OH230703   3.541   2.971   5.434  0.0530 -0.4772  0.0641
 3071TIP3    H130704   3.611   2.914   5.400 -0.3458  0.0794 -1.7895
 3071TIP3    H230705   3.568   2.991   5.524  1.7404 -1.1231 -0.2649
 3072TIP3   OH230706   1.526   3.967   4.948 -0.0559  0.0421  0.1408
 3072TIP3    H130707   1.556   3.898   4.889  0.7148 -0.3510  0.9799
 3072TIP3    H230708   1.432   3.975   4.929 -0.3761 -1.8957  0.6872
 3073TIP3   OH230709   1.997   3.928  27.712 -0.2292 -0.5067 -0.1405
 3073TIP3    H130710   1.941   3.920  27.634 -0.2258  1.1417 -0.3682
 3073TIP3    H230711   2.075   3.974  27.680 -0.2581  0.2478  0.8272
 3074TIP3   OH230712   4.298   2.958  36.290 -0.6807  0.7066  0.0754
 3074TIP3    H130713   4.386   2.973  36.258 -0.8512  0.4743 -0.5110
 3074TIP3    H230714   4.306   2.883  36.350 -0.7790 -0.5942 -1.4693
 3075TIP3   OH230715   3.494   1.546  24.875 -0.4773 -0.3191 -0.1071
 3075TIP3    H130716   3.548   1.567  24.950 -1.4185  2.2255 -0.0442
 3075TIP3    H230717   3.465   1.631  24.842 -0.4049 -1.3608 -3.1375
 3076TIP3   OH230718   1.002   1.708  36.876  0.0325  0.3272 -0.3560
 3076TIP3    H130719   0.943   1.646  36.834  0.1790  0.8063 -1.3047
 3076TIP3    H230720   0.986   1.791  36.830 -0.2888  1.0446  1.0074
 3077TIP3   OH230721   0.224   4.031   5.099 -0.7797  0.5287 -0.0657
 3077TIP3    H130722   0.170   4.014   5.176  0.4392  0.3947  0.7905
 3077TIP3    H230723   0.162   4.034   5.027 -2.1041  1.7995  1.0533
 3078TIP3   OH230724   1.843   0.670  18.784 -0.0856 -0.7472  0.6457
 3078TIP3    H130725   1.795   0.625  18.853  2.0364 -3.0535  0.7581
 3078TIP3    H230726   1.857   0.604  18.717  0.2599  0.7012 -0.7710
 3079TIP3   OH230727   3.478   3.338  36.737  0.0428  0.1958 -0.6620
 3079TIP3    H130728   3.507   3.284  36.811 -0.0969 -1.3979 -1.7379
 3079TIP3    H230729   3.496   3.428  36.765  0.7981 -0.4207  0.9532
 3080TIP3   OH230730   0.477   0.670  40.974 -0.3014  0.5239  0.0396
 3080TIP3    H130731   0.428   0.639  40.898  0.9931  0.2779 -0.7267
 3080TIP3    H230732   0.541   0.732  40.938  0.9510 -0.2933  0.7767
 3081TIP3   OH230733   3.702   1.892   3.944  0.1082  0.8829 -0.7993
 3081TIP3    H130734   3.640   1.950   3.899 -2.9810  0.8975  2.9858
 3081TIP3    H230735   3.653   1.811   3.958  2.1949 -0.4076 -0.5256
 3082TIP3   OH230736   2.868   0.118  31.170  0.3932  0.0443 -0.6701
 3082TIP3    H130737   2.831   0.195  31.212  0.6896 -0.7962  1.2370
 3082TIP3    H230738   2.938   0.152  31.114  1.6631  1.0739  1.4275
 3083TIP3   OH230739   3.375   0.935  36.607  0.1489 -0.5954 -0.2456
 3083TIP3    H130740   3.407   0.887  36.531  0.2128 -0.3974 -0.3444
 3083TIP3    H230741   3.440   1.004  36.621 -0.3637 -0.0420 -0.5966
 3084TIP3   OH230742   0.496   1.375  35.162 -0.8049 -0.3703 -0.2848
 3084TIP3    H130743   0.572   1.421  35.127  0.5932 -2.4571 -0.1675
 3084TIP3    H230744   0.506   1.381  35.257  0.1421 -1.9699 -0.2437
 3085TIP3   OH230745   1.705   2.255  28.192  0.1304  0.0171  0.4301
 3085TIP3    H130746   1.699   2.266  28.097  1.3272  0.1777  0.3551
 3085TIP3    H230747   1.726   2.343  28.225 -0.1386 -0.0666  0.8293
 3086TIP3   OH230748   3.437   1.095  11.358  0.0042 -0.0795  0.7096
 3086TIP3    H130749   3.486   1.014  11.349  0.3554  0.2030 -0.0194
 3086TIP3    H230750   3.362   1.072  11.413  0.9853 -0.5011  1.9154
 3087TIP3   OH230751   1.067   1.209  37.371  0.1406  0.1376  0.7492
 3087TIP3    H130752   0.996   1.207  37.436  1.1484 -0.5162  1.8674
 3087TIP3    H230753   1.114   1.291  37.390 -0.7385  0.9657 -0.4977
 3088TIP3   OH230754   2.607   1.272  34.818 -0.0019 -0.0002  0.6128
 3088TIP3    H130755   2.598   1.317  34.902 -2.1522  2.6292 -0.8568
 3088TIP3    H230756   2.539   1.204  34.821  0.3093 -0.2948  1.1921
 3089TIP3   OH230757   1.925   4.387  31.764  0.0151  0.5764 -0.0311
 3089TIP3    H130758   1.937   4.324  31.835 -3.8129  0.8509  1.0944
 3089TIP3    H230759   1.943   4.472  31.804 -2.4153  0.7573  0.8504
 3090TIP3   OH230760   2.926   3.196   3.571  0.1313  0.0845 -0.0486
 3090TIP3    H130761   2.985   3.263   3.536 -0.0469  0.1731 -0.1792
 3090TIP3    H230762   2.866   3.245   3.628 -1.8667  0.5288 -2.3562
 3091TIP3   OH230763   0.316   0.560  30.338  0.1615  0.0287 -0.1795
 3091TIP3    H130764   0.347   0.621  30.406  1.6798 -1.2457  0.3331
 3091TIP3    H230765   0.338   0.473  30.372 -2.9522 -0.9553 -0.3807
 3092TIP3   OH230766   1.899   0.742  13.000  0.3870  0.2645 -0.7489
 3092TIP3    H130767   1.851   0.781  12.926 -0.1273  1.1622  0.0419
 3092TIP3    H230768   1.991   0.744  12.972  0.2124  0.7178 -1.3139
 3093TIP3   OH230769   3.920   1.114  36.745 -0.2460  0.1893 -0.0932
 3093TIP3    H130770   3.975   1.114  36.824  0.9752 -2.5474 -0.8347
 3093TIP3    H230771   3.852   1.050  36.763  1.7960 -2.8607 -2.2183
 3094TIP3   OH230772   3.281   1.288   5.149 -0.3251  0.2768  0.0453
 3094TIP3    H130773   3.187   1.275   5.156 -0.1678 -1.0197  0.0198
 3094TIP3    H230774   3.316   1.257   5.232  0.2397 -1.2545 -0.7193
 3095TIP3   OH230775   0.988   0.909  15.703  0.2679 -0.2264  0.2518
 3095TIP3    H130776   0.936   0.857  15.642 -0.1782  1.1002 -0.5344
 3095TIP3    H230777   0.960   0.999  15.688  1.8008  0.3719  0.8150
 3096TIP3   OH230778   3.194   3.480  33.496  0.7061  0.2541  0.4431
 3096TIP3    H130779   3.236   3.479  33.582  2.0609  0.9938 -0.1738
 3096TIP3    H230780   3.123   3.544  33.504  0.6144  0.0710  1.0959
 3097TIP3   OH230781   0.377   2.757  38.584  0.1989  0.7988 -0.5647
 3097TIP3    H130782   0.432   2.679  38.582 -1.5286 -0.7797  3.1531
 3097TIP3    H230783   0.293   2.727  38.549 -0.7113  0.6349  1.6029
 3098TIP3   OH230784   0.963   3.195  11.857 -0.3589  0.1516  0.2615
 3098TIP3    H130785   1.031   3.134  11.887  0.7744  1.6911  0.9491
 3098TIP3    H230786   0.933   3.238  11.937 -1.3713  0.2755 -0.1806
 3099TIP3   OH230787   1.993   0.621   2.443 -0.2579 -0.1584 -0.7666
 3099TIP3    H130788   1.996   0.671   2.361  0.2737 -0.3834 -0.8930
 3099TIP3    H230789   1.946   0.677   2.504  0.8536  0.7734 -0.7313
 3100TIP3   OH230790   1.539   1.112  38.485  0.4875 -0.0945  0.2537
 3100TIP3    H130791   1.572   1.201  38.473  2.1099 -0.7301 -0.2659
 3100TIP3    H230792   1.582   1.061  38.416  1.2519 -1.6963  1.8489
 3101TIP3   OH230793   2.543   1.510   2.271  0.4916  0.5555 -0.0406
 3101TIP3    H130794   2.622   1.497   2.219  0.0915  1.9040 -1.0364
 3101TIP3    H230795   2.475   1.461   2.224 -0.1943  2.9473 -1.6995
 3102TIP3   OH230796   2.475   0.713   7.305  0.2944  0.9450 -0.2887
 3102TIP3    H130797   2.453   0.806   7.300 -0.4318  0.7571 -0.7520
 3102TIP3    H230798   2.401   0.673   7.351  0.9499  0.6982  0.5862
 3103TIP3   OH230799   4.069   0.476  24.981  0.3030  0.1049  0.5539
 3103TIP3    H130800   4.089   0.416  24.909 -1.2563 -0.2091  0.3524
 3103TIP3    H230801   3.978   0.457  25.004  0.1716  1.5220  1.3347
 3104TIP3   OH230802   2.334   2.395   2.974  0.2259 -0.0129 -0.1854
 3104TIP3    H130803   2.312   2.481   2.939  0.3566 -0.3343 -1.0718
 3104TIP3    H230804   2.363   2.413   3.064 -0.3106  0.7963 -0.1573
 3105TIP3   OH230805   0.410   1.374   1.918 -0.2842  0.3237  0.1376
 3105TIP3    H130806   0.437   1.401   2.006  3.2893 -0.1393 -0.6956
 3105TIP3    H230807   0.488   1.384   1.864 -1.9553 -0.8054 -2.7232
 3106TIP3   OH230808   2.022   2.976  31.455 -0.1514 -0.2032  0.0247
 3106TIP3    H130809   1.991   2.900  31.504  0.9633 -0.1358  0.8735
 3106TIP3    H230810   1.985   3.051  31.501  0.3916 -0.1644  0.4083
 3107TIP3   OH230811   3.278   1.332  38.752  0.3293  0.3095 -0.6971
 3107TIP3    H130812   3.351   1.270  38.753  1.8776  2.0492 -0.1368
 3107TIP3    H230813   3.308   1.404  38.698 -1.3288  0.7206 -1.1189
 3108TIP3   OH230814   3.487   0.446   3.589 -0.4300 -0.5272 -0.2654
 3108TIP3    H130815   3.569   0.458   3.541 -0.7800 -0.9392 -0.9908
 3108TIP3    H230816   3.494   0.503   3.665  1.2424 -1.7928  0.5934
 3109TIP3   OH230817   1.830   2.980  32.142 -0.6971  0.0999 -0.6102
 3109TIP3    H130818   1.777   2.957  32.219 -0.7297 -1.8400 -1.1395
 3109TIP3    H230819   1.916   2.941  32.160  0.1443  1.9598 -0.4083
 3110TIP3   OH230820   4.016   1.008  33.772 -0.1295  0.0136 -0.1442
 3110TIP3    H130821   3.979   1.068  33.836 -2.3521 -0.3730 -0.9642
 3110TIP3    H230822   3.944   0.991  33.711  1.2663 -1.2925 -1.5248
 3111TIP3   OH230823   1.369   3.153  39.764  0.1540 -0.6740 -0.2072
 3111TIP3    H130824   1.454   3.143  39.722  0.1230 -0.5917 -0.2882
 3111TIP3    H230825   1.389   3.156  39.858  0.4467  1.2965 -0.2838
 3112TIP3   OH230826   0.401   3.372  27.322 -0.9732  0.0224  0.1097
 3112TIP3    H130827   0.469   3.402  27.383 -0.5873  1.6465 -1.0320
 3112TIP3    H230828   0.450   3.330  27.251 -1.1751  0.6225 -0.4011
 3113TIP3   OH230829   2.518   2.246   0.103  0.0436  0.4121 -0.2117
 3113TIP3    H130830   2.495   2.207   0.019 -0.3475  0.6547 -0.2182
 3113TIP3    H230831   2.506   2.340   0.091  1.6278  0.6245 -0.4002
 3114TIP3   OH230832   0.662   1.025  10.018 -0.6934 -0.2078 -0.4974
 3114TIP3    H130833   0.688   0.952   9.963  0.1780 -0.4237  0.1863
 3114TIP3    H230834   0.566   1.023  10.016 -0.6787 -1.1473 -0.7536
 3115TIP3   OH230835   1.027   4.049  40.467  0.3522 -0.0974 -0.4279
 3115TIP3    H130836   1.029   3.972  40.410  0.4874 -0.4865  0.0983
 3115TIP3    H230837   1.094   4.107  40.432 -0.8839  0.5366 -1.8616
 3116TIP3   OH230838   2.648   0.325  32.530 -0.2841 -0.3103  0.2536
 3116TIP3    H130839   2.678   0.244  32.489  1.2190 -0.2503  1.1577
 3116TIP3    H230840   2.692   0.326  32.615 -0.6848  1.2083  0.4659
 3117TIP3   OH230841   3.417   2.207   9.611  0.1224 -0.5447  0.5947
 3117TIP3    H130842   3.442   2.297   9.590 -1.6963 -0.4861 -1.7800
 3117TIP3    H230843   3.491   2.154   9.581  0.0026 -0.0064 -0.7220
 3118TIP3   OH230844   0.943   3.504  14.174 -0.2076 -0.4276 -0.4939
 3118TIP3    H130845   0.895   3.423  14.187  0.0837 -0.3409  1.4473
 3118TIP3    H230846   1.032   3.483  14.203  0.4084  0.0068 -1.9998
 3119TIP3   OH230847   4.277   4.259  24.567 -0.2245 -0.5184 -0.1013
 3119TIP3    H130848   4.295   4.234  24.476 -1.2162 -1.3856 -0.0745
 3119TIP3    H230849   4.337   4.205  24.619  1.6741  1.2864 -0.2718
 3120TIP3   OH230850   1.602   0.562  11.248 -0.1717  0.0596 -0.3801
 3120TIP3    H130851   1.660   0.489  11.227 -0.2999 -0.0170 -0.4687
 3120TIP3    H230852   1.608   0.621  11.173 -0.5125 -0.1401 -0.5647
 3121TIP3   OH230853   2.705   4.164  12.282 -0.1448 -0.1709 -0.2625
 3121TIP3    H130854   2.654   4.230  12.329 -0.5778  0.5199 -1.6625
 3121TIP3    H230855   2.794   4.176  12.314 -0.2901  0.8369 -0.2023
 3122TIP3   OH230856   2.834   1.944  38.389  0.8152 -0.1853  0.8848
 3122TIP3    H130857   2.802   1.900  38.310 -0.4128  1.3025  0.5120
 3122TIP3    H230858   2.759   1.943  38.448  0.3029  2.4428  0.3938
 3123TIP3   OH230859   0.342   2.066   0.897  0.2976 -0.3539  0.1408
 3123TIP3    H130860   0.351   2.017   0.979 -0.3017  1.3649  1.2891
 3123TIP3    H230861   0.427   2.055   0.854  0.5674 -1.4336  0.8891
 3124TIP3   OH230862   3.870   0.023   8.739  0.2452 -0.2857 -0.3092
 3124TIP3    H130863   3.776   0.041   8.737 -0.1252 -1.9852 -2.5520
 3124TIP3    H230864   3.887  -0.024   8.657  2.6684 -1.8607  0.9594
 3125TIP3   OH230865   3.815   1.491  11.522  0.3056  0.1574 -0.0288
 3125TIP3    H130866   3.909   1.488  11.509  0.7561  3.1489  1.7782
 3125TIP3    H230867   3.779   1.506  11.435  1.5336 -0.0664 -0.5965
 3126TIP3   OH230868   2.988   2.191   4.867 -0.0468 -1.0512  0.3391
 3126TIP3    H130869   2.917   2.143   4.824 -0.5225 -1.6569  1.7162
 3126TIP3    H230870   3.034   2.235   4.796 -2.3779  0.1624 -0.5544
 3127TIP3   OH230871   4.355   3.001  30.126 -0.0846  0.2660 -0.6363
 3127TIP3    H130872   4.381   3.075  30.182 -0.8217 -0.5436  0.8524
 3127TIP3    H230873   4.361   3.035  30.037  1.8224  1.4066 -0.1428
 3128TIP3   OH230874   2.656   1.455   4.488 -0.0400 -0.1764  0.3430
 3128TIP3    H130875   2.593   1.435   4.557 -0.0153  2.1174  1.0848
 3128TIP3    H230876   2.682   1.545   4.504 -0.7109  0.7865 -3.2166
 3129TIP3   OH230877   1.266   0.060  39.377 -0.4912  0.1052  0.1634
 3129TIP3    H130878   1.329  -0.010  39.359 -0.4895  0.0910  0.2264
 3129TIP3    H230879   1.183   0.028  39.341 -0.2861  0.4697 -0.6619
 3130TIP3   OH230880   4.319   1.906  37.779 -0.1403 -0.5123  0.0008
 3130TIP3    H130881   4.318   1.853  37.859 -1.2223 -1.6782 -0.7456
 3130TIP3    H230882   4.252   1.973  37.795  1.6846  1.1555  1.2174
 3131TIP3   OH230883   2.403   1.383   7.261 -0.4212  0.3394  1.0756
 3131TIP3    H130884   2.315   1.359   7.288 -0.3950  1.0375  1.8364
 3131TIP3    H230885   2.440   1.428   7.337  0.2871  0.8038  0.4735
 3132TIP3   OH230886   2.225   2.168   5.657  0.3345 -0.8620  0.2864
 3132TIP3    H130887   2.153   2.107   5.643 -0.4981 -0.2705  1.8247
 3132TIP3    H230888   2.209   2.205   5.743  1.8792  0.1182  0.1862
 3133TIP3   OH230889   3.381   1.875   9.400  0.2289 -0.0530  0.1113
 3133TIP3    H130890   3.342   1.954   9.363  0.5165 -0.6907 -1.6545
 3133TIP3    H230891   3.473   1.896   9.412  0.3583 -0.1875 -0.6074
 3134TIP3   OH230892   0.627   0.731   8.812 -0.0014 -0.2510  0.0917
 3134TIP3    H130893   0.564   0.772   8.871 -0.3860 -0.2346 -0.3242
 3134TIP3    H230894   0.708   0.725   8.863 -0.8735 -2.1491  1.3761
 3135TIP3   OH230895   0.552   4.316   0.244 -0.0039 -0.0334 -0.2166
 3135TIP3    H130896   0.545   4.249   0.176  3.5346  1.2031 -2.0428
 3135TIP3    H230897   0.489   4.384   0.218  0.3860 -0.1577 -1.5515
 3136TIP3   OH230898   2.069   4.103  29.445  0.4124 -0.1436  0.1427
 3136TIP3    H130899   2.000   4.038  29.433 -1.1037  1.3817  0.2698
 3136TIP3    H230900   2.062   4.160  29.369  1.2188  0.3308  0.4117
 3137TIP3   OH230901   2.969   0.823  27.471 -0.1731  0.2883  0.0887
 3137TIP3    H130902   2.953   0.913  27.500  1.8331  0.0332  2.2525
 3137TIP3    H230903   2.936   0.768  27.542  0.6209 -0.5883 -0.1906
 3138TIP3   OH230904   0.631   3.657  39.824  0.1140 -0.0708 -0.2818
 3138TIP3    H130905   0.718   3.622  39.806  0.4307 -0.8172  2.2548
 3138TIP3    H230906   0.571   3.589  39.793  0.5298 -0.4284 -0.3191
 3139TIP3   OH230907   1.649   1.493  28.362 -0.0349  0.7527 -0.5613
 3139TIP3    H130908   1.584   1.562  28.352 -1.2072  0.0003  1.3548
 3139TIP3    H230909   1.731   1.539  28.382 -0.2487  1.6463 -1.6525
 3140TIP3   OH230910   0.052   1.834  11.691 -0.0422  0.3093  0.2161
 3140TIP3    H130911   0.013   1.747  11.686 -0.8818  0.6132  1.0706
 3140TIP3    H230912  -0.004   1.881  11.753  1.1763  1.0464  0.7930
 3141TIP3   OH230913   1.604   1.210   0.358 -0.2798  0.0324  0.1010
 3141TIP3    H130914   1.510   1.196   0.344 -0.2475  0.4631 -0.6179
 3141TIP3    H230915   1.621   1.175   0.445 -0.7953 -1.4986 -0.3917
 3142TIP3   OH230916   0.504   1.783  38.815 -0.1606 -0.4102 -0.5975
 3142TIP3    H130917   0.459   1.756  38.735 -0.6121  0.2275 -0.5703
 3142TIP3    H230918   0.544   1.703  38.849 -1.0954 -0.9425 -0.7388
 3143TIP3   OH230919   2.696   0.999  30.706 -0.0973  0.3674 -0.1442
 3143TIP3    H130920   2.669   0.915  30.744  1.7293 -0.7109 -1.0603
 3143TIP3    H230921   2.630   1.018  30.640 -0.4707 -0.4183 -0.0093
 3144TIP3   OH230922   4.343   3.728   0.805 -0.1928  0.2227  0.2853
 3144TIP3    H130923   4.290   3.781   0.864  0.4756  1.6677 -0.3427
 3144TIP3    H230924   4.432   3.762   0.816  0.1629 -0.3897 -0.5733
 3145TIP3   OH230925   3.680   0.515  28.930 -0.3314  0.5460  0.1453
 3145TIP3    H130926   3.612   0.449  28.919  0.0830 -0.1942  1.7394
 3145TIP3    H230927   3.634   0.598  28.919 -0.9972  0.0212 -1.1983
 3146TIP3   OH230928   1.704   1.624  39.714  0.4934 -0.2788  0.0425
 3146TIP3    H130929   1.750   1.545  39.743  1.1594  0.2330  0.4127
 3146TIP3    H230930   1.754   1.696  39.752 -0.0203  0.3282 -0.4114
 3147TIP3   OH230931   3.763   2.234  33.241  0.0869  0.1389  0.0750
 3147TIP3    H130932   3.701   2.187  33.186 -0.2568  0.9130 -0.1978
 3147TIP3    H230933   3.711   2.300  33.286  0.7017  0.7676 -0.1231
 3148TIP3   OH230934   1.435   2.564  30.531 -0.2998 -0.1185  0.2818
 3148TIP3    H130935   1.413   2.618  30.454 -1.3920  0.2906  0.8571
 3148TIP3    H230936   1.530   2.558  30.530 -0.3158 -0.6012 -1.4352
 3149TIP3   OH230937   2.899   0.978   9.197 -0.4093 -0.7317  0.4240
 3149TIP3    H130938   2.845   1.049   9.161 -0.1914 -0.5327  0.4872
 3149TIP3    H230939   2.962   1.022   9.253  0.3856 -0.8777 -0.3361
 3150TIP3   OH230940   4.070   0.950   2.782 -0.2612 -0.4012  0.1782
 3150TIP3    H130941   3.975   0.954   2.766 -0.3783  0.5360  1.0583
 3150TIP3    H230942   4.096   0.864   2.747 -1.6212 -1.1357  0.8838
 3151TIP3   OH230943   1.811   2.014  16.431  0.1638 -0.2305  0.0496
 3151TIP3    H130944   1.817   1.979  16.343  1.6214  3.0522 -1.3508
 3151TIP3    H230945   1.900   2.005  16.467  0.1079  0.3152  0.3443
 3152TIP3   OH230946   3.824   1.382  10.883  0.0223  0.6621 -0.3185
 3152TIP3    H130947   3.909   1.357  10.846 -0.5828  0.1530 -1.4209
 3152TIP3    H230948   3.817   1.476  10.865  0.6733  0.8738  0.4708
 3153TIP3   OH230949   1.283   3.795  31.030  0.7357 -0.7230 -0.1743
 3153TIP3    H130950   1.189   3.804  31.048  1.3052  0.7096  2.5591
 3153TIP3    H230951   1.289   3.797  30.934 -2.0505 -1.5192 -0.4456
 3154TIP3   OH230952   3.648   3.489  29.381  0.6339  0.1889  0.2686
 3154TIP3    H130953   3.557   3.505  29.409  1.1304  0.7659  1.6374
 3154TIP3    H230954   3.648   3.397  29.353 -0.2982  0.0775  0.5804
 3155TIP3   OH230955   0.947   1.781  36.604 -0.1050 -0.1348  0.1815
 3155TIP3    H130956   0.885   1.805  36.673  0.7237  0.3331  0.7812
 3155TIP3    H230957   0.909   1.816  36.524 -1.1066 -0.7334  0.3785
 3156TIP3   OH230958   0.300   1.636  13.754  0.0882  0.8191  0.1008
 3156TIP3    H130959   0.373   1.697  13.749  0.1528  0.8401  1.1202
 3156TIP3    H230960   0.315   1.587  13.834  2.0104 -3.1422 -2.3867
 3157TIP3   OH230961   3.330   4.006  32.392 -0.1988  0.3382 -0.0882
 3157TIP3    H130962   3.323   3.921  32.349 -1.3324 -0.0541  0.7962
 3157TIP3    H230963   3.308   4.070  32.324 -2.2657 -0.2836 -0.0898
 3158TIP3   OH230964   2.238   3.137   0.380  0.2655  0.2940 -0.0397
 3158TIP3    H130965   2.283   3.103   0.303 -0.1232  2.1379 -1.1355
 3158TIP3    H230966   2.150   3.159   0.350 -0.4336 -0.4568  1.3480
 3159TIP3   OH230967   4.306   3.535  41.002 -0.8426  0.0021 -0.0067
 3159TIP3    H130968   4.314   3.592  40.925  0.5665 -2.6944 -2.0331
 3159TIP3    H230969   4.222   3.490  40.990 -0.5863 -0.4754 -0.0149
 3160TIP3   OH230970   3.473   2.882   0.303 -0.3167  0.0756  0.2925
 3160TIP3    H130971   3.398   2.934   0.330 -0.8844 -0.3866 -0.3479
 3160TIP3    H230972   3.500   2.919   0.219 -0.4626 -0.3828  0.0362
 3161TIP3   OH230973   2.099   0.625   8.447  0.1865 -0.0929  0.1083
 3161TIP3    H130974   2.046   0.702   8.430  1.2075  0.8366  0.9898
 3161TIP3    H230975   2.147   0.646   8.527  1.5713 -1.0578 -0.4328
 3162TIP3   OH230976   0.438   0.393  20.722  0.0172 -0.0407 -0.2868
 3162TIP3    H130977   0.383   0.348  20.659 -1.3122 -1.0430  1.4819
 3162TIP3    H230978   0.387   0.471  20.747 -0.0956 -0.3646  0.5153
 3163TIP3   OH230979   2.803   1.991   7.995 -0.6165  0.1390  0.3494
 3163TIP3    H130980   2.855   1.964   8.071  0.0941 -0.0128 -0.1814
 3163TIP3    H230981   2.730   1.930   7.993 -0.1865 -0.3839  0.4200
 3164TIP3   OH230982   1.619   1.819  13.950 -0.2008 -0.0735 -0.5012
 3164TIP3    H130983   1.597   1.881  13.881  0.6106 -0.5336 -1.1977
 3164TIP3    H230984   1.558   1.746  13.938  0.4486 -0.5123 -1.2584
 3165TIP3   OH230985   2.193   1.723  39.154  0.0180 -0.1037 -0.4095
 3165TIP3    H130986   2.173   1.782  39.081 -3.3745  0.1047  0.5011
 3165TIP3    H230987   2.166   1.772  39.232  1.4205 -1.1766  0.7889
 3166TIP3   OH230988   1.118   3.075  14.471 -0.1907  0.1191  0.1105
 3166TIP3    H130989   1.150   3.098  14.559  1.2173  0.2470 -0.4046
 3166TIP3    H230990   1.041   3.021  14.487  0.0991  0.0522  1.4262
 3167TIP3   OH230991   3.028   3.407  35.985 -0.0882 -0.5776 -0.1191
 3167TIP3    H130992   3.028   3.502  35.994 -0.4211 -0.5349 -0.5212
 3167TIP3    H230993   3.015   3.374  36.074  0.9697 -0.2703  0.1612
 3168TIP3   OH230994   2.262   3.478   1.328  0.5721 -0.3434  0.0290
 3168TIP3    H130995   2.194   3.479   1.395 -0.7070 -1.5146 -1.1781
 3168TIP3    H230996   2.344   3.480   1.376 -0.3083  0.3410  1.5583
 3169TIP3   OH230997   0.719   0.279   7.126  0.3857 -0.4564  0.5298
 3169TIP3    H130998   0.683   0.220   7.061  1.0546  1.0587 -1.3090
 3169TIP3    H230999   0.710   0.232   7.209  2.0880 -3.7045 -0.9431
 3170TIP3   OH231000   1.889   2.554  11.072 -0.3725 -0.4374  0.0543
 3170TIP3    H131001   1.982   2.575  11.062 -0.4389 -0.3823 -0.4894
 3170TIP3    H231002   1.853   2.566  10.984 -1.3681  1.8792  0.6908
 3171TIP3   OH231003   3.072   0.397  32.714 -0.0136  0.4865 -0.2938
 3171TIP3    H131004   3.015   0.348  32.773  0.7801  2.2638  2.1122
 3171TIP3    H231005   3.011   0.437  32.651 -1.1017 -0.1150  0.3421
 3172TIP3   OH231006   3.548   3.428  33.073  0.3864  0.4275 -0.0364
 3172TIP3    H131007   3.475   3.367  33.066 -0.1559  0.9257  1.1718
 3172TIP3    H231008   3.524   3.500  33.014 -0.3450  0.8313  0.7450
 3173TIP3   OH231009   2.267   2.859  37.371  0.0948 -0.0395  0.5350
 3173TIP3    H131010   2.178   2.875  37.402  0.2232  1.7722  0.0769
 3173TIP3    H231011   2.259   2.860  37.275  0.1331 -2.9632  0.4287
 3174TIP3   OH231012   0.261   2.804   7.054  0.2542  0.1990  0.1078
 3174TIP3    H131013   0.246   2.894   7.082  1.5249  0.5369 -0.2772
 3174TIP3    H231014   0.217   2.751   7.121  0.7870  1.0619  1.1728
 3175TIP3   OH231015   0.114   4.152  29.265 -0.1209 -0.6981 -0.0301
 3175TIP3    H131016   0.111   4.244  29.292  1.6601 -0.3542 -0.8968
 3175TIP3    H231017   0.022   4.129  29.250 -0.4811  2.0857 -3.4571
 3176TIP3   OH231018   0.339   3.801   9.326 -0.4266 -0.4778  0.4554
 3176TIP3    H131019   0.270   3.747   9.364 -0.1617 -1.0868  0.0820
 3176TIP3    H231020   0.295   3.849   9.256 -0.9577  0.7830  1.6134
 3177TIP3   OH231021   0.558   0.450  31.470  0.6519 -0.1041 -0.1429
 3177TIP3    H131022   0.599   0.517  31.524  1.3232  0.4706 -1.3445
 3177TIP3    H231023   0.585   0.470  31.381 -2.2304  0.3295 -1.0424
 3178TIP3   OH231024   1.903   0.403  10.702  0.3747  0.6067  0.3645
 3178TIP3    H131025   1.871   0.490  10.725 -0.1008  0.7930 -0.8990
 3178TIP3    H231026   1.884   0.395  10.608 -1.0147 -1.4557  0.7643
 3179TIP3   OH231027   3.241   1.851  32.321  0.1056 -0.1416  0.2547
 3179TIP3    H131028   3.163   1.892  32.284 -0.6256  0.3477  2.2188
 3179TIP3    H231029   3.306   1.922  32.326  1.4620 -0.9647 -3.1942
 3180TIP3   OH231030   1.905   3.731   5.855  0.0283 -0.3588  0.3016
 3180TIP3    H131031   1.938   3.652   5.813  1.3882  0.1505  0.3719
 3180TIP3    H231032   1.932   3.802   5.798 -0.8760  0.0921  0.4210
 3181TIP3   OH231033   3.341   0.956  33.210  0.1601  0.0347 -0.3817
 3181TIP3    H131034   3.432   0.981  33.226 -0.2251 -0.0446  2.4135
 3181TIP3    H231035   3.290   1.034  33.229 -0.4709 -0.4427 -0.0570
 3182TIP3   OH231036   4.265   4.125   0.541  0.3260  0.1430 -0.2378
 3182TIP3    H131037   4.203   4.191   0.512  0.2500 -0.6297 -1.9443
 3182TIP3    H231038   4.350   4.168   0.535  0.0661  0.9770  1.4382
 3183TIP3   OH231039   3.825   1.012  26.933  0.0552  0.0756  0.5154
 3183TIP3    H131040   3.901   1.045  26.884 -0.8829  3.0262  0.8680
 3183TIP3    H231041   3.754   1.009  26.868 -0.2226  0.1035  0.8158
 3184TIP3   OH231042   1.927   2.998  30.054  0.0149 -0.6370  0.2532
 3184TIP3    H131043   1.961   2.912  30.080 -0.3439 -0.7358  0.4016
 3184TIP3    H231044   1.892   3.036  30.134 -0.2744 -0.5598  0.0919
 3185TIP3   OH231045   3.989   3.157  37.158 -0.2198 -0.0521 -1.1910
 3185TIP3    H131046   4.075   3.147  37.199 -1.0149 -0.3631  0.4740
 3185TIP3    H231047   3.990   3.093  37.086 -0.3729 -2.8389  1.1213
 3186TIP3   OH231048   4.375   4.279  11.815 -0.8099  0.5820  0.1045
 3186TIP3    H131049   4.374   4.370  11.785  0.5715  0.5188 -0.1658
 3186TIP3    H231050   4.355   4.227  11.737 -1.2116  0.6221  0.1771
 3187TIP3   OH231051   1.809   3.412   9.845  0.0280 -0.3535  0.0753
 3187TIP3    H131052   1.855   3.471   9.905  0.8818 -1.1803  0.2568
 3187TIP3    H231053   1.719   3.444   9.844  0.0955 -0.0685  1.4785
 3188TIP3   OH231054   3.956   0.692  26.460 -0.3620  0.5711 -0.3957
 3188TIP3    H131055   3.962   0.602  26.427 -0.0520  0.6433 -0.5314
 3188TIP3    H231056   3.934   0.681  26.553  2.0329  0.2838  0.1955
 3189TIP3   OH231057   3.177   1.065   9.635  0.2865 -0.3295 -0.2289
 3189TIP3    H131058   3.153   0.992   9.691 -3.1220  0.8780  0.1286
 3189TIP3    H231059   3.156   1.143   9.686  0.1940  0.8438 -1.9584
 3190TIP3   OH231060   2.167   2.060   3.777  0.0954 -0.4097  0.1101
 3190TIP3    H131061   2.109   2.026   3.708  0.5818 -1.2021  0.0799
 3190TIP3    H231062   2.125   2.032   3.859  0.7267 -1.5242  0.0794
 3191TIP3   OH231063   2.108   2.666   4.589 -0.3012 -0.3301 -0.0252
 3191TIP3    H131064   2.113   2.755   4.554 -1.3717 -0.4152 -0.4137
 3191TIP3    H231065   2.146   2.612   4.519 -0.4386 -0.2739 -0.1433
 3192TIP3   OH231066   2.419   4.251   1.161  0.4641 -0.2205 -0.0041
 3192TIP3    H131067   2.455   4.181   1.107 -0.4802  0.0532 -1.0255
 3192TIP3    H231068   2.424   4.217   1.250  0.3458 -1.4490 -0.4458
 3193TIP3   OH231069   0.019   2.305   2.535 -0.2396 -0.2778  0.1620
 3193TIP3    H131070   0.010   2.352   2.619 -0.9579 -0.4603  0.1874
 3193TIP3    H231071   0.063   2.368   2.478  1.6589 -0.6812  1.1109
 3194TIP3   OH231072   2.447   1.542   1.228 -0.6394 -0.2298  0.3219
 3194TIP3    H131073   2.369   1.598   1.232  0.4802  1.3831  0.4357
 3194TIP3    H231074   2.422   1.471   1.169 -2.2611  0.1273  0.5227
 3195TIP3   OH231075   2.456   2.543   0.440  0.3282 -0.3095  0.0942
 3195TIP3    H131076   2.540   2.589   0.445 -0.1478  0.5693  0.2259
 3195TIP3    H231077   2.404   2.582   0.511 -1.3211  1.4994 -1.9769
 3196TIP3   OH231078   1.354   0.269  32.262  0.3276  0.1757 -0.6421
 3196TIP3    H131079   1.346   0.179  32.231 -2.6913 -0.4015  1.3864
 3196TIP3    H231080   1.381   0.260  32.354 -1.4495  1.1826  0.0287
 3197TIP3   OH231081   0.370   3.194  38.936 -0.7901  0.1461 -0.2172
 3197TIP3    H131082   0.354   3.226  38.847 -3.2879  0.5272  0.2960
 3197TIP3    H231083   0.385   3.100  38.926 -1.5987  0.0890 -1.0330
 3198TIP3   OH231084   0.768   0.824  39.589 -0.1915 -0.3039 -0.4444
 3198TIP3    H131085   0.861   0.802  39.582 -0.1351 -0.5157  0.7548
 3198TIP3    H231086   0.739   0.835  39.499  1.4116  1.4564 -0.8243
 3199TIP3   OH231087   1.381   2.500   7.713 -0.2900  0.1472 -0.0472
 3199TIP3    H131088   1.302   2.446   7.714 -0.8442  0.9529  0.7853
 3199TIP3    H231089   1.452   2.437   7.703 -1.1193 -0.4601 -3.3458
 3200TIP3   OH231090   2.731   3.714  39.032 -0.1122  0.4088  0.3323
 3200TIP3    H131091   2.752   3.806  39.018  2.1394 -0.0276  0.4541
 3200TIP3    H231092   2.787   3.667  38.969 -2.6499 -0.8310 -1.1421
 3201TIP3   OH231093   2.247   1.762  39.540  0.5794 -0.4319 -0.5407
 3201TIP3    H131094   2.236   1.669  39.519  2.5573 -1.0399  0.8019
 3201TIP3    H231095   2.244   1.765  39.636  0.5055  0.9186 -0.5638
 3202TIP3   OH231096   0.275   0.278   4.429 -0.3034  0.0065 -0.3440
 3202TIP3    H131097   0.228   0.360   4.440  1.8311  1.2333  0.1831
 3202TIP3    H231098   0.269   0.235   4.515  1.7269  1.4496  0.6037
 3203TIP3   OH231099   0.158   0.627   9.299 -0.1468 -0.5974 -0.2479
 3203TIP3    H131100   0.104   0.674   9.236  0.0894 -0.1116 -0.0982
 3203TIP3    H231101   0.182   0.694   9.363 -1.2549 -1.2927  0.9446
 3204TIP3   OH231102   3.618   1.019  33.127  0.3221  0.3211  0.8664
 3204TIP3    H131103   3.644   0.979  33.044  0.8561  1.1514  0.6230
 3204TIP3    H231104   3.617   1.113  33.109 -0.7351  0.4390  1.4719
 3205TIP3   OH231105   3.125   0.075  35.360  0.7729 -0.4497  0.8223
 3205TIP3    H131106   3.215   0.049  35.341  1.3256  1.2080  1.0269
 3205TIP3    H231107   3.116   0.065  35.454  1.0272  0.1687  0.9201
 3206TIP3   OH231108   2.525   3.046  10.461 -0.1339 -0.0488  0.0140
 3206TIP3    H131109   2.586   2.977  10.487  0.1438 -0.4191 -1.5542
 3206TIP3    H231110   2.551   3.070  10.372  0.4140  2.7857  0.8259
 3207TIP3   OH231111   2.630   2.850  39.345 -0.4620  0.0362  0.0016
 3207TIP3    H131112   2.703   2.885  39.295  0.7514 -2.5627 -0.2403
 3207TIP3    H231113   2.554   2.859  39.288  0.2639  0.0979 -0.9691
 3208TIP3   OH231114   3.364   3.988  40.953 -0.2868  0.4785 -0.5810
 3208TIP3    H131115   3.296   4.031  40.901  1.0378  2.3450 -0.8675
 3208TIP3    H231116   3.340   4.005  41.044 -0.2958  0.9942 -0.6813
 3209TIP3   OH231117   4.097   0.326  10.171 -0.3110  0.1364 -0.0721
 3209TIP3    H131118   4.083   0.292  10.082  0.4586  0.1661 -0.2110
 3209TIP3    H231119   4.061   0.415  10.168 -0.4477  0.0754 -0.3042
 3210TIP3   OH231120   2.642   0.032  36.154 -0.4994 -0.0869  0.0391
 3210TIP3    H131121   2.668   0.008  36.066 -0.5871  0.9035 -0.2687
 3210TIP3    H231122   2.704   0.100  36.180 -1.2149  0.4924  0.2702
 3211TIP3   OH231123   1.679   0.593   8.681 -0.2947  0.0488 -0.1227
 3211TIP3    H131124   1.765   0.623   8.653 -0.8244  1.1210 -0.6521
 3211TIP3    H231125   1.671   0.505   8.644 -0.9765  1.3884 -3.5214
 3212TIP3   OH231126   0.359   3.599  41.308  0.2032  0.0067  0.8687
 3212TIP3    H131127   0.337   3.687  41.276  0.0007 -0.5596 -0.5853
 3212TIP3    H231128   0.411   3.560  41.239  1.9369 -0.3664  2.3043
 3213TIP3   OH231129   4.247   4.188  35.653 -0.1084 -0.1121 -0.3310
 3213TIP3    H131130   4.311   4.224  35.591  0.8194  0.8893  1.1501
 3213TIP3    H231131   4.165   4.232  35.631  0.0629 -0.2067 -1.2107
 3214TIP3   OH231132   2.709   0.516   5.009 -0.3491  0.5643 -0.3099
 3214TIP3    H131133   2.661   0.595   4.985 -1.1420  0.0872 -0.3414
 3214TIP3    H231134   2.694   0.505   5.103 -0.7537  0.1287 -0.4177
 3215TIP3   OH231135   0.273   2.008   5.588 -0.1900 -0.1906  0.2725
 3215TIP3    H131136   0.260   1.913   5.601  1.9109 -0.5143  0.3509
 3215TIP3    H231137   0.323   2.014   5.507  1.3655  0.6796  1.2450
 3216TIP3   OH231138   0.483   0.475  10.746  0.6116 -0.3181  0.3323
 3216TIP3    H131139   0.509   0.449  10.834 -0.9168 -1.7631  0.3834
 3216TIP3    H231140   0.559   0.455  10.692  1.2948 -0.0923  1.1770
 3217TIP3   OH231141   1.253   0.841   3.863  0.5013 -0.0543  0.6364
 3217TIP3    H131142   1.312   0.839   3.938  0.8269  1.0765  0.4216
 3217TIP3    H231143   1.240   0.934   3.844 -0.6717 -0.2957  0.1424
 3218TIP3   OH231144   4.355   1.131  34.297 -0.7881  0.4242 -0.4124
 3218TIP3    H131145   4.389   1.045  34.272  0.5539  0.5403  0.8229
 3218TIP3    H231146   4.290   1.113  34.365  0.5952  0.4036  0.9665
 3219TIP3   OH231147   2.388   1.661  37.531 -0.0151 -0.5083 -0.7038
 3219TIP3    H131148   2.444   1.589  37.502  0.0642 -0.7778  0.0892
 3219TIP3    H231149   2.403   1.730  37.466 -1.4857 -1.8140 -2.5176
 3220TIP3   OH231150   1.122   2.707  11.502  0.0461  0.6469  0.4018
 3220TIP3    H131151   1.110   2.788  11.550 -0.6720  0.5255  0.4284
 3220TIP3    H231152   1.042   2.657  11.517  1.0640 -0.6991  1.5818
 3221TIP3   OH231153   2.517   3.535   3.139 -0.1419  0.2641 -0.5460
 3221TIP3    H131154   2.557   3.592   3.205  1.4542 -0.4474 -0.8466
 3221TIP3    H231155   2.520   3.448   3.178 -2.0194  0.2554 -0.3332
 3222TIP3   OH231156   4.139   3.937   8.941 -0.1821 -0.3599  0.4114
 3222TIP3    H131157   4.190   3.861   8.968  0.8255  0.0534 -0.2699
 3222TIP3    H231158   4.077   3.952   9.014  0.1926 -1.2863  0.9353
 3223TIP3   OH231159   0.242   1.464  33.168  0.5744  0.0216  0.2874
 3223TIP3    H131160   0.298   1.537  33.142 -0.3216  0.9656  0.9288
 3223TIP3    H231161   0.154   1.490  33.139  0.1858 -0.6208  0.8700
 3224TIP3   OH231162   2.331   0.468  30.459  0.6048  0.5633  0.4231
 3224TIP3    H131163   2.387   0.445  30.385 -0.8120  1.6833 -1.0566
 3224TIP3    H231164   2.273   0.393  30.470 -0.1577  0.9818 -0.5985
 3225TIP3   OH231165   2.936   1.081   5.311  0.0694 -0.4877  0.2588
 3225TIP3    H131166   2.948   1.099   5.218 -0.8696 -3.4296 -0.5567
 3225TIP3    H231167   3.011   1.026   5.335 -0.5758 -1.1747  0.7589
 3226TIP3   OH231168   1.265   2.465  39.706  0.3954  0.3805 -0.3218
 3226TIP3    H131169   1.241   2.557  39.722  0.1453  0.2092  0.3135
 3226TIP3    H231170   1.352   2.456  39.745  0.8048  0.5730 -1.1689
 3227TIP3   OH231171   4.340   1.583  36.001  0.3345 -0.6901  0.0096
 3227TIP3    H131172   4.370   1.663  35.957  1.1678 -0.6382  0.6503
 3227TIP3    H231173   4.390   1.513  35.959  0.2715 -0.7681  0.0668
 3228TIP3   OH231174   3.862   3.748  39.670 -0.0804  0.1834 -1.0141
 3228TIP3    H131175   3.953   3.774  39.652 -0.1506 -0.3526 -2.2149
 3228TIP3    H231176   3.870   3.660  39.708 -0.1135  0.0749 -1.2611
 3229TIP3   OH231177   0.496   3.941  28.079 -0.0485  0.5012  0.0057
 3229TIP3    H131178   0.482   3.992  28.159 -1.3338 -0.7282  0.6189
 3229TIP3    H231179   0.409   3.932  28.041  0.2429 -0.6951 -0.4109
 3230TIP3   OH231180   0.544   1.928  40.188  0.1079 -0.2415  0.2676
 3230TIP3    H131181   0.579   1.989  40.124 -0.3319 -0.3745 -0.1022
 3230TIP3    H231182   0.621   1.895  40.235  0.5524 -1.0902 -1.0263
 3231TIP3   OH231183   1.303   2.990  32.481 -0.0666  0.0749 -0.3050
 3231TIP3    H131184   1.242   3.057  32.448 -0.0114  0.2618 -0.0322
 3231TIP3    H231185   1.343   2.953  32.402 -0.3583  0.1176 -0.4741
 3232TIP3   OH231186   0.023   0.007  26.961  0.0714  0.3695 -0.4203
 3232TIP3    H131187   0.022   0.091  27.007  0.4123 -0.3811  1.0249
 3232TIP3    H231188  -0.047   0.014  26.896 -0.5247  1.4354  0.3068
 3233TIP3   OH231189   0.734   3.753   6.476 -0.0111  0.7206 -0.1181
 3233TIP3    H131190   0.750   3.740   6.383 -2.3135 -0.7063 -0.3870
 3233TIP3    H231191   0.785   3.831   6.499  0.7568  0.9834 -2.5078
 3234TIP3   OH231192   3.570   2.380  41.310 -0.3578 -0.4959  0.0794
 3234TIP3    H131193   3.552   2.455  41.254  2.5004  0.4554  0.2455
 3234TIP3    H231194   3.541   2.407  41.397  1.8400  1.0485  0.4006
 3235TIP3   OH231195   0.321   2.557  38.913  0.3844 -0.2451  0.4066
 3235TIP3    H131196   0.283   2.475  38.945 -0.5519  0.2659  0.6419
 3235TIP3    H231197   0.246   2.609  38.884  0.9452  0.5832  0.3932
 3236TIP3   OH231198   3.377   1.941   5.231 -0.5702  0.5048 -0.7542
 3236TIP3    H131199   3.332   1.963   5.313  0.8407 -1.0921  0.5300
 3236TIP3    H231200   3.466   1.976   5.243  0.1859 -1.3117 -0.7932
 3237TIP3   OH231201   2.612   0.536   1.661 -0.1943  0.5888 -0.3270
 3237TIP3    H131202   2.708   0.535   1.671 -0.1198 -0.9076 -0.9588
 3237TIP3    H231203   2.581   0.586   1.737  0.9925 -0.6412  1.0276
 3238TIP3   OH231204   2.448   3.929  10.249  0.1248 -0.1280  0.5578
 3238TIP3    H131205   2.414   3.940  10.160  1.2571  3.3170  0.3950
 3238TIP3    H231206   2.517   3.863  10.241  0.1228  0.0350 -1.1171
 3239TIP3   OH231207   0.117   4.005   7.581 -0.0951 -0.5345  0.1885
 3239TIP3    H131208   0.060   3.978   7.509  2.2649 -0.1026 -1.9967
 3239TIP3    H231209   0.102   4.099   7.589  0.7143 -0.3007 -0.8291
 3240TIP3   OH231210   1.853   0.561  27.560 -0.4814 -0.0455  0.0499
 3240TIP3    H131211   1.789   0.515  27.615 -0.1629 -0.7029 -0.1304
 3240TIP3    H231212   1.831   0.654  27.572 -0.2000 -0.1547  1.5528
 3241TIP3   OH231213   0.932   1.101   5.639 -0.2737  0.0809  0.4532
 3241TIP3    H131214   0.914   1.009   5.620  0.3309 -0.2618  1.4447
 3241TIP3    H231215   0.963   1.101   5.730 -0.7021  1.3174  0.6211
 3242TIP3   OH231216   0.783   1.310   9.146 -0.8177  0.2863 -0.6556
 3242TIP3    H131217   0.713   1.295   9.082 -0.8033  0.7542 -0.7861
 3242TIP3    H231218   0.757   1.391   9.190 -2.5582 -1.6752  2.2326
 3243TIP3   OH231219   2.993   4.334  28.285  0.7828 -0.2877 -0.5830
 3243TIP3    H131220   2.962   4.355  28.373 -1.6033  1.3582 -1.7010
 3243TIP3    H231221   2.956   4.247  28.267 -1.1558  0.5477 -0.9182
 3244TIP3   OH231222   0.857   0.641  30.058 -0.1153 -0.1682 -0.6262
 3244TIP3    H131223   0.777   0.693  30.052 -0.2772 -0.5245 -1.9418
 3244TIP3    H231224   0.892   0.640  29.969 -0.1900 -2.3731 -0.7038
 3245TIP3   OH231225   4.089   3.518  26.965 -0.3766  0.2286 -0.5346
 3245TIP3    H131226   4.110   3.583  26.898 -2.5711 -0.2283 -1.7390
 3245TIP3    H231227   4.148   3.445  26.948 -0.4029  0.4250 -1.4901
 3246TIP3   OH231228   1.576   3.806  31.796  0.2705 -0.3098  0.5761
 3246TIP3    H131229   1.506   3.817  31.732  1.1212 -0.3578 -0.3969
 3246TIP3    H231230   1.602   3.895  31.818 -0.6454 -0.2701  1.5965
 3247TIP3   OH231231   0.503   2.554  37.042 -0.4864 -0.1727  0.2828
 3247TIP3    H131232   0.551   2.632  37.072  0.9131 -1.3239  1.1729
 3247TIP3    H231233   0.550   2.526  36.963  1.2656 -2.0941  1.9129
 3248TIP3   OH231234   1.719   0.698   7.416  0.1569 -0.4352  0.3662
 3248TIP3    H131235   1.721   0.630   7.485 -0.2463 -1.4925 -0.6311
 3248TIP3    H231236   1.698   0.650   7.336 -1.4661  1.0618 -0.1636
 3249TIP3   OH231237   2.427   0.706   9.963 -0.2291  0.4791  0.1521
 3249TIP3    H131238   2.484   0.782   9.953  1.0764 -0.4397  0.2561
 3249TIP3    H231239   2.439   0.679  10.054 -2.2442  1.3071  0.7187
 3250TIP3   OH231240   1.819   3.840  32.787 -0.5592  0.0071 -0.0617
 3250TIP3    H131241   1.784   3.877  32.868  0.1054 -0.8457  0.6299
 3250TIP3    H231242   1.894   3.895  32.766  1.9534 -2.2050  2.2934
 3251TIP3   OH231243   2.388   1.387  41.405 -0.1599  0.0395 -0.6836
 3251TIP3    H131244   2.470   1.361  41.447 -0.2014 -1.2011 -1.3118
 3251TIP3    H231245   2.396   1.481  41.392 -0.6496  0.7338  3.1219
 3252TIP3   OH231246   2.042   0.341  32.303  0.7307 -0.2338 -0.2016
 3252TIP3    H131247   2.119   0.336  32.360  1.1877  1.4478 -0.6222
 3252TIP3    H231248   2.042   0.431  32.271 -0.5443 -0.6468 -1.4414
 3253TIP3   OH231249   2.802   3.295   1.075 -0.2839  0.3379 -0.2116
 3253TIP3    H131250   2.723   3.329   1.117  0.9676  1.6223  1.2089
 3253TIP3    H231251   2.825   3.218   1.127 -1.0331 -0.5458 -1.1459
 3254TIP3   OH231252   2.343   2.340  40.148  0.2129  0.0979 -0.6922
 3254TIP3    H131253   2.412   2.361  40.211  0.3919  0.2552 -0.9360
 3254TIP3    H231254   2.366   2.253  40.115  1.1571  0.7752 -1.9042
 3255TIP3   OH231255   1.350   3.165  34.442 -0.1000  0.1962  0.2071
 3255TIP3    H131256   1.276   3.113  34.412  0.3750 -0.6255  0.4137
 3255TIP3    H231257   1.312   3.232  34.499 -0.7286  0.1065 -0.1066
 3256TIP3   OH231258   2.135   0.198  14.006  0.5680 -0.0471 -0.3123
 3256TIP3    H131259   2.156   0.107  14.026  1.5537  0.0767 -0.7131
 3256TIP3    H231260   2.148   0.244  14.089 -1.0756 -0.4362  0.1900
 3257TIP3   OH231261   1.700   0.202   1.862  0.7517 -0.2291 -0.3396
 3257TIP3    H131262   1.767   0.259   1.899  2.1587 -1.7105 -0.4442
 3257TIP3    H231263   1.750   0.137   1.811 -0.9244  0.1090 -2.5858
 3258TIP3   OH231264   2.901   1.598   2.598  0.1396 -0.3240  0.0188
 3258TIP3    H131265   2.955   1.663   2.552 -0.1573  0.0235  0.1606
 3258TIP3    H231266   2.814   1.608   2.560 -0.0719 -0.1424  0.5402
 3259TIP3   OH231267   0.605   0.737   1.367  0.5661 -0.1365  0.2159
 3259TIP3    H131268   0.529   0.719   1.312  1.2442  1.2289 -1.2842
 3259TIP3    H231269   0.664   0.663   1.352  0.7878  0.2663 -1.0581
 3260TIP3   OH231270   0.125   4.297  38.793  0.3250  0.1758 -0.8724
 3260TIP3    H131271   0.195   4.350  38.831  0.3319  0.2642 -1.0109
 3260TIP3    H231272   0.151   4.285  38.702 -0.1921  0.8015 -1.1112
 3261TIP3   OH231273   2.537   3.013  29.807  0.2090 -0.0227 -0.1125
 3261TIP3    H131274   2.518   3.098  29.767 -1.0875 -0.4113 -0.3893
 3261TIP3    H231275   2.633   3.007  29.807  0.3358  1.6264  0.3536
 3262TIP3   OH231276   1.467   1.182  11.307 -0.2713 -0.2152 -0.0259
 3262TIP3    H131277   1.535   1.245  11.332 -0.6482 -0.0049  0.4868
 3262TIP3    H231278   1.516   1.102  11.287  0.0771 -0.3728  1.3018
 3263TIP3   OH231279   3.327   2.371   4.342 -0.1466 -0.1365 -0.2494
 3263TIP3    H131280   3.254   2.345   4.398  0.7895  1.3871  1.8063
 3263TIP3    H231281   3.381   2.427   4.398  2.8441 -1.5496 -1.5352
 3264TIP3   OH231282   3.394   2.661   5.143 -0.6766  1.1186 -0.0521
 3264TIP3    H131283   3.407   2.754   5.124 -2.2506  2.1797  3.3483
 3264TIP3    H231284   3.473   2.635   5.190  0.1955  0.3613 -1.8199
 3265TIP3   OH231285   1.635   1.416   5.941  0.2502  0.9174  0.1621
 3265TIP3    H131286   1.677   1.343   5.987  0.0601  0.0457 -1.0191
 3265TIP3    H231287   1.580   1.375   5.875  0.4675  2.1402 -0.8082
 3266TIP3   OH231288   4.394   3.466  21.547 -0.4215 -0.2764 -0.0182
 3266TIP3    H131289   4.358   3.554  21.535 -0.7028 -0.2018  1.2004
 3266TIP3    H231290   4.431   3.443  21.462 -2.5272  0.0221 -1.0823
 3267TIP3   OH231291   2.913   2.311   9.281 -1.0463 -0.1232 -0.0713
 3267TIP3    H131292   2.885   2.251   9.351  0.3003 -0.0683  0.5442
 3267TIP3    H231293   2.833   2.326   9.230 -1.5557 -1.9586  0.0976
 3268TIP3   OH231294   0.216   2.966   6.680 -0.2246  0.4144  0.1371
 3268TIP3    H131295   0.194   3.041   6.735 -2.3372  0.1328 -0.2451
 3268TIP3    H231296   0.301   2.988   6.642 -0.0046  1.8269  1.3504
 3269TIP3   OH231297   0.975   1.019   4.343  0.3888  0.0410  0.0132
 3269TIP3    H131298   1.032   0.968   4.285 -0.6614 -0.0424 -0.9803
 3269TIP3    H231299   0.886   0.992   4.320 -0.0663 -1.3750  2.9381
 3270TIP3   OH231300   1.044   1.476   2.100  0.2281  0.2634 -0.1591
 3270TIP3    H131301   1.020   1.384   2.106 -1.2339  0.3461 -2.9858
 3270TIP3    H231302   0.961   1.523   2.110  0.4123  1.0524 -1.9738
 3271TIP3   OH231303   3.395   0.822  37.845 -0.3493 -0.3067 -0.5100
 3271TIP3    H131304   3.455   0.859  37.910  0.4668 -0.9200 -0.8862
 3271TIP3    H231305   3.374   0.895  37.786 -0.8640  0.1791  0.2677
 3272TIP3   OH231306   1.122   1.151  37.904  0.1640  0.0685  0.2464
 3272TIP3    H131307   1.056   1.099  37.949  0.5513 -1.1242 -0.5264
 3272TIP3    H231308   1.190   1.166  37.969  0.6746 -1.5556  0.1337
 3273TIP3   OH231309   4.029   2.891   8.478  0.0920 -0.0191  0.0804
 3273TIP3    H131310   3.971   2.954   8.520  1.0409  1.5630 -0.8243
 3273TIP3    H231311   3.996   2.885   8.388 -0.4628 -1.4818  0.3485
 3274TIP3   OH231312   0.598   1.502  37.246  0.1271 -0.1392 -0.2415
 3274TIP3    H131313   0.578   1.590  37.279 -1.1573  0.1621 -1.7106
 3274TIP3    H231314   0.554   1.443  37.307 -0.0423  0.2757  0.0434
 3275TIP3   OH231315   2.156   1.486  16.583  0.5157 -0.1177  0.0373
 3275TIP3    H131316   2.131   1.426  16.653  1.2815  0.4276  0.8070
 3275TIP3    H231317   2.228   1.443  16.538  0.2891 -0.2883 -0.1673
 3276TIP3   OH231318   1.952   1.941   4.128  0.2352 -0.7191 -0.5892
 3276TIP3    H131319   1.926   2.027   4.095  0.8573  0.1238  1.0119
 3276TIP3    H231320   2.047   1.938   4.116  0.3008 -0.9144 -0.0669
 3277TIP3   OH231321   0.061   2.587   7.139  0.4236 -0.2100  0.6324
 3277TIP3    H131322   0.016   2.668   7.115 -0.0587 -0.8548 -0.7423
 3277TIP3    H231323  -0.001   2.541   7.195 -0.0030 -0.3690  0.0446
 3278TIP3   OH231324   0.591   0.177  10.420  0.6139  0.3120  0.7720
 3278TIP3    H131325   0.540   0.108  10.378 -0.5578  1.9969 -0.7701
 3278TIP3    H231326   0.616   0.141  10.505 -2.1626 -1.0641  1.1234
 3279TIP3   OH231327   2.909   3.745   3.583  0.4721 -0.3628  0.8624
 3279TIP3    H131328   2.925   3.830   3.543 -1.4928 -0.1668  0.4000
 3279TIP3    H231329   2.971   3.686   3.539 -0.1957  0.2500 -0.9892
 3280TIP3   OH231330   0.076   1.139  39.361  0.0989 -0.6653 -0.2592
 3280TIP3    H131331   0.137   1.069  39.339 -0.8619 -1.6342  0.0680
 3280TIP3    H231332   0.040   1.114  39.446  0.3207  0.6446  0.2439
 3281TIP3   OH231333   1.146   2.781   0.427 -0.4318  0.6353 -0.7485
 3281TIP3    H131334   1.194   2.757   0.348  1.2035 -1.1823  0.6857
 3281TIP3    H231335   1.056   2.796   0.397  0.5550  2.2558 -3.2407
 3282TIP3   OH231336   0.814   4.031   9.289  0.2084 -0.4181  0.6246
 3282TIP3    H131337   0.719   4.045   9.284  0.4245  0.7017 -0.8798
 3282TIP3    H231338   0.836   4.054   9.379 -1.2128 -2.7245  1.6587
 3283TIP3   OH231339   4.230   2.412  24.068  0.1227 -0.0738 -0.7750
 3283TIP3    H131340   4.235   2.444  23.978 -2.0790 -2.1357 -1.7319
 3283TIP3    H231341   4.250   2.318  24.061  0.6539 -0.1249  1.0252
 3284TIP3   OH231342   2.634   3.629  27.334 -0.7682 -0.3755  0.7286
 3284TIP3    H131343   2.652   3.610  27.242 -1.8794  1.3861  0.0973
 3284TIP3    H231344   2.720   3.628  27.376  0.1562  1.5966 -0.9228
 3285TIP3   OH231345   2.259   2.851  11.093 -0.7278 -0.2706  0.3379
 3285TIP3    H131346   2.336   2.832  11.040 -0.2450  0.3876  0.7825
 3285TIP3    H231347   2.288   2.921  11.152 -1.9479  0.6516 -0.1278
 3286TIP3   OH231348   3.750   4.155   0.512  0.0054 -0.5679 -0.1292
 3286TIP3    H131349   3.837   4.118   0.520  0.1736  0.0000  0.7962
 3286TIP3    H231350   3.706   4.101   0.446  0.9492 -1.0421 -0.3751
 3287TIP3   OH231351   3.026   1.789   4.461 -0.1135 -0.1663  0.3213
 3287TIP3    H131352   2.972   1.784   4.540  0.8156  1.0592  1.0586
 3287TIP3    H231353   3.070   1.874   4.466 -1.0962  0.6039 -2.2229
 3288TIP3   OH231354   3.935   0.673  28.950  0.0076 -0.3058  0.0519
 3288TIP3    H131355   3.982   0.624  28.883  1.5055 -0.6565  1.3021
 3288TIP3    H231356   3.876   0.609  28.989 -2.0183  0.2637 -1.8770
 3289TIP3   OH231357   2.398   1.122  34.832 -0.0638  0.3921 -0.2373
 3289TIP3    H131358   2.438   1.039  34.855 -0.7338 -0.0780 -0.7101
 3289TIP3    H231359   2.305   1.102  34.822 -0.3305  1.3274  0.2432
 3290TIP3   OH231360   0.806   1.569   2.158 -0.2909 -0.1825  0.5708
 3290TIP3    H131361   0.760   1.652   2.149  0.6467  0.2576 -0.2702
 3290TIP3    H231362   0.771   1.531   2.239 -0.9342  0.8861  0.8061
 3291TIP3   OH231363   2.687   2.600   5.965  0.0554  0.5534 -0.0108
 3291TIP3    H131364   2.626   2.659   5.921 -0.5169  1.8637  2.3820
 3291TIP3    H231365   2.697   2.527   5.903 -1.1723  1.9332 -1.9868
 3292TIP3   OH231366   1.829   0.931   3.249 -0.0227 -0.3253 -0.2289
 3292TIP3    H131367   1.776   0.867   3.297 -0.4290 -0.3511 -0.7137
 3292TIP3    H231368   1.793   0.932   3.161 -1.2485  1.9236  0.2163
 3293TIP3   OH231369   1.501   3.669  37.718  0.2114 -0.6298  0.2488
 3293TIP3    H131370   1.535   3.589  37.679  0.9529 -0.3327  0.2636
 3293TIP3    H231371   1.472   3.644  37.805  0.5952 -0.8445  0.3134
 3294TIP3   OH231372   3.081   2.785  40.625  0.1062 -0.2718  0.2513
 3294TIP3    H131373   3.157   2.768  40.680 -0.9605 -1.3617  1.4350
 3294TIP3    H231374   3.007   2.790  40.685 -1.3621 -3.1053 -1.1217
 3295TIP3   OH231375   1.063   1.262  39.057 -0.2100  0.3653 -0.0665
 3295TIP3    H131376   1.131   1.311  39.011 -1.0039  1.6324  0.0732
 3295TIP3    H231377   1.104   1.177  39.076  0.8254  0.5702 -1.2554
 3296TIP3   OH231378   2.792   3.548   1.339 -0.1234  0.0248 -0.3137
 3296TIP3    H131379   2.856   3.522   1.406  0.6565 -1.5928 -1.6116
 3296TIP3    H231380   2.843   3.600   1.277 -0.4584  0.0860 -0.5362
 3297TIP3   OH231381   2.862   0.409  13.382  0.3453 -0.0436  0.1282
 3297TIP3    H131382   2.797   0.479  13.374  1.5310  0.9739 -0.9475
 3297TIP3    H231383   2.933   0.435  13.324  1.9161 -0.9189  1.5749
 3298TIP3   OH231384   1.733   0.328   6.346  0.3007 -0.0634  0.5083
 3298TIP3    H131385   1.797   0.395   6.369  0.2491  0.2069 -0.1212
 3298TIP3    H231386   1.704   0.351   6.258  2.3404 -2.4574 -0.9145
 3299TIP3   OH231387   2.280   2.833  33.696  0.0393 -0.0675 -0.2311
 3299TIP3    H131388   2.347   2.770  33.726  0.2240 -0.0727 -0.6404
 3299TIP3    H231389   2.198   2.784  33.702  0.3602 -0.9161 -2.0448
 3300TIP3   OH231390   2.999   3.453   9.703  0.1692 -0.6986  0.7584
 3300TIP3    H131391   2.927   3.400   9.667  0.7075 -0.5394 -0.6333
 3300TIP3    H231392   3.044   3.394   9.763  0.3811 -1.6493 -0.2942
 3301TIP3   OH231393   2.619   3.353  40.439 -0.1596  0.3592 -0.0622
 3301TIP3    H131394   2.636   3.362  40.533  1.2876 -1.5471 -0.0813
 3301TIP3    H231395   2.684   3.409  40.397 -0.3911  0.7243  0.0718
 3302TIP3   OH231396   3.388   3.852  34.067  0.4450 -0.5467 -0.6667
 3302TIP3    H131397   3.451   3.883  34.132 -1.0735  0.9370  0.1954
 3302TIP3    H231398   3.324   3.803  34.118  0.2797 -1.0719 -1.3631
 3303TIP3   OH231399   3.517   1.758   2.925  0.0335  0.1307  0.5319
 3303TIP3    H131400   3.471   1.833   2.888 -0.5991  0.2274  1.4822
 3303TIP3    H231401   3.498   1.686   2.864  3.1841  1.3153 -2.1545
 3304TIP3   OH231402   1.820   1.631   8.783  0.1646 -0.3039 -0.1457
 3304TIP3    H131403   1.799   1.670   8.698 -0.4201  0.2814  0.2563
 3304TIP3    H231404   1.852   1.704   8.836  0.2427 -0.6063  0.2301
 3305TIP3   OH231405   1.804   2.659  11.325 -0.2021 -0.1995  0.1383
 3305TIP3    H131406   1.898   2.671  11.341 -0.4889  0.6490  1.3139
 3305TIP3    H231407   1.797   2.646  11.231  0.9621  1.1034 -0.1584
 3306TIP3   OH231408   2.235   2.971  32.016 -0.3023 -0.0141  0.0212
 3306TIP3    H131409   2.248   2.897  32.076 -0.3496  0.3381  0.4629
 3306TIP3    H231410   2.323   3.009  32.006 -0.1103 -0.6540 -0.8973
 3307TIP3   OH231411   4.080   2.434  32.604 -0.2373  0.2052  0.4588
 3307TIP3    H131412   4.061   2.360  32.662 -0.9544  0.1215  0.1258
 3307TIP3    H231413   3.994   2.464  32.574 -0.0325  1.7693  1.3084
 3308TIP3   OH231414   1.552   1.375   1.851 -0.1857 -0.1343  0.3296
 3308TIP3    H131415   1.514   1.331   1.927  0.1326  0.2843  0.7409
 3308TIP3    H231416   1.495   1.351   1.778 -1.2774  0.5098  0.9437
 3309TIP3   OH231417   3.667   3.210   0.035  0.1281  0.5111  0.1062
 3309TIP3    H131418   3.726   3.250  -0.029 -3.1119  2.0378 -2.2121
 3309TIP3    H231419   3.618   3.284   0.071 -2.5398 -0.8095 -0.5311
 3310TIP3   OH231420   2.538   2.061   6.042 -0.4003 -0.4644 -0.5033
 3310TIP3    H131421   2.515   2.006   5.967 -1.0811 -0.7861 -0.0676
 3310TIP3    H231422   2.620   2.023   6.074  0.3581  0.1968 -1.5822
 3311TIP3   OH231423   2.758   0.368   7.280 -0.0680 -0.0539  0.0511
 3311TIP3    H131424   2.826   0.370   7.347 -1.3288  2.7405  1.4201
 3311TIP3    H231425   2.696   0.301   7.309 -0.9221  1.5378  2.1389
 3312TIP3   OH231426   0.942   3.937  38.699  0.6676  0.1150 -0.4143
 3312TIP3    H131427   0.883   3.958  38.627 -1.2185 -1.4206  0.5805
 3312TIP3    H231428   0.977   3.851  38.677  0.4638 -0.1431  0.2209
 3313TIP3   OH231429   3.131   2.406  30.113  0.2470 -0.0715  0.9275
 3313TIP3    H131430   3.216   2.367  30.135  0.3734  0.3748  1.2638
 3313TIP3    H231431   3.126   2.401  30.018 -0.7547 -2.9736  1.0637
 3314TIP3   OH231432   4.200   1.945  10.215 -0.4237 -0.1282 -0.9975
 3314TIP3    H131433   4.126   1.888  10.234  0.3930 -1.1351 -0.7710
 3314TIP3    H231434   4.194   1.963  10.121 -2.0667  1.4360 -0.6578
 3315TIP3   OH231435   4.269   1.607   3.017  0.6026  0.3085  0.7729
 3315TIP3    H131436   4.178   1.631   3.032  0.7620  2.1432 -0.7681
 3315TIP3    H231437   4.269   1.512   3.010 -1.3431  0.3448 -0.1271
 3316TIP3   OH231438   3.703   0.137  11.816 -0.4993  0.6155 -0.3389
 3316TIP3    H131439   3.793   0.165  11.799  0.2262 -1.3376  0.0563
 3316TIP3    H231440   3.695   0.143  11.912 -0.6600  0.4272 -0.3405
 3317TIP3   OH231441   1.602   0.177  39.873 -0.4746 -0.9247 -0.6978
 3317TIP3    H131442   1.542   0.189  39.799 -0.5854 -0.1756 -0.4965
 3317TIP3    H231443   1.545   0.178  39.950 -0.3000 -1.1697 -0.5643
 3318TIP3   OH231444   3.934   3.010  36.942  0.4680  0.1793  0.3865
 3318TIP3    H131445   3.844   2.992  36.915 -0.2586 -0.2401  2.8921
 3318TIP3    H231446   3.986   2.942  36.898 -0.3856  0.4407 -1.1061
 3319TIP3   OH231447   0.471   2.682   8.003 -0.4756 -0.0897  0.0568
 3319TIP3    H131448   0.446   2.727   7.922  0.9721  2.7514  1.0575
 3319TIP3    H231449   0.476   2.590   7.978 -3.4620  0.1657 -2.2032
 3320TIP3   OH231450   0.505   1.949  30.451  0.3540 -0.1447  0.1060
 3320TIP3    H131451   0.472   1.968  30.363 -1.2395  2.5831  1.1797
 3320TIP3    H231452   0.446   1.882  30.485  0.5528 -0.7059 -0.6228
 3321TIP3   OH231453   1.778   4.394  37.054  0.1818  0.0779  0.7485
 3321TIP3    H131454   1.799   4.488  37.053  0.1084  0.1023 -0.8720
 3321TIP3    H231455   1.757   4.373  36.963 -1.3527 -1.1844  1.3516
 3322TIP3   OH231456   0.449   4.281  35.443  0.0455  0.0074  0.5115
 3322TIP3    H131457   0.504   4.203  35.433  0.5826  0.1761  1.8767
 3322TIP3    H231458   0.471   4.314  35.530 -2.3031  0.0276  1.1557
 3323TIP3   OH231459   1.956   3.517  35.246  0.0426  0.8100  0.1568
 3323TIP3    H131460   1.875   3.561  35.222 -0.7024 -1.1081 -1.0758
 3323TIP3    H231461   1.934   3.425  35.249  1.9044  0.3339  1.0769
 3324TIP3   OH231462   3.067   2.942  11.103  0.0060  0.1315 -0.5957
 3324TIP3    H131463   3.007   3.002  11.146 -1.1766 -0.3837 -1.4763
 3324TIP3    H231464   3.021   2.858  11.101  1.2042 -0.5664 -0.3159
 3325TIP3   OH231465   3.428   0.325  10.067  0.0253  0.0599 -0.2408
 3325TIP3    H131466   3.352   0.276  10.100  0.2805  0.0653  0.3789
 3325TIP3    H231467   3.432   0.402  10.124  0.8627 -0.2526  0.1441
 3326TIP3   OH231468   0.358   3.314  36.482 -0.3295  0.1652  0.2836
 3326TIP3    H131469   0.368   3.249  36.412 -2.0872 -1.0013  1.0441
 3326TIP3    H231470   0.326   3.392  36.437 -1.5903 -0.6154 -0.2387
 3327TIP3   OH231471   0.953   1.043   7.398 -0.4428 -0.0845 -0.7057
 3327TIP3    H131472   0.941   0.976   7.331 -1.1151  0.6347 -1.3251
 3327TIP3    H231473   1.022   1.099   7.363 -0.8500  0.3369 -0.8313
 3328TIP3   OH231474   3.254   0.018   6.862 -0.0466  0.2000  0.4611
 3328TIP3    H131475   3.205  -0.031   6.796 -0.4875 -1.0942  1.6862
 3328TIP3    H231476   3.344   0.017   6.830  0.0797 -2.0162  0.7146
 3329TIP3   OH231477   1.666   1.551  14.925  0.3187  0.6091  0.2820
 3329TIP3    H131478   1.695   1.589  15.008  2.4216  1.6434 -0.8365
 3329TIP3    H231479   1.708   1.465  14.922 -0.3138  0.2888  0.5872
 3330TIP3   OH231480   2.164   3.525  10.172  0.5892  0.1169  0.4956
 3330TIP3    H131481   2.165   3.516  10.267 -2.9707 -0.9644  0.5637
 3330TIP3    H231482   2.145   3.617  10.156  1.7653  0.4213  0.7664
 3331TIP3   OH231483   1.228   3.440  10.614  0.3906  0.4127  0.0152
 3331TIP3    H131484   1.267   3.353  10.605  0.8900  0.7643 -1.4927
 3331TIP3    H231485   1.133   3.424  10.613  0.3993  0.0296 -2.8007
 3332TIP3   OH231486   1.393   3.338   0.564  0.2506  0.2595 -0.7193
 3332TIP3    H131487   1.358   3.415   0.520  0.0586 -0.5685 -2.0734
 3332TIP3    H231488   1.322   3.274   0.561  0.7024 -0.2710 -0.4330
 3333TIP3   OH231489   1.524   1.187   6.294 -0.1891 -1.0623  0.4010
 3333TIP3    H131490   1.586   1.224   6.357  0.1690  2.4679 -1.7297
 3333TIP3    H231491   1.442   1.235   6.311 -0.1023 -0.1036 -1.6257
 3334TIP3   OH231492   3.897   2.732   1.161 -0.7794 -0.2288  0.0915
 3334TIP3    H131493   3.905   2.827   1.172  0.0273 -0.2546 -0.2373
 3334TIP3    H231494   3.927   2.715   1.072 -2.0333 -0.6662 -0.2781
 3335TIP3   OH231495   1.917   0.091  32.240  0.3581  0.1573 -0.1708
 3335TIP3    H131496   1.915   0.040  32.321  0.1260  0.0243 -0.2578
 3335TIP3    H231497   1.911   0.182  32.269 -1.4208  0.0469 -0.0966
 3336TIP3   OH231498   4.336   0.071  11.651 -0.0057  0.3202 -0.1366
 3336TIP3    H131499   4.265   0.058  11.587 -1.4574 -0.5835  1.5623
 3336TIP3    H231500   4.322   0.160  11.683  1.7056  1.3867 -2.1376
 3337TIP3   OH231501   3.439   1.363  25.957 -0.8327 -0.0254  0.2018
 3337TIP3    H131502   3.475   1.386  26.043 -0.7435 -0.1478  0.1988
 3337TIP3    H231503   3.378   1.291  25.975  1.1841 -1.9370 -0.1274
 3338TIP3   OH231504   0.962   3.731  33.574  0.0567 -0.0147  0.3609
 3338TIP3    H131505   1.029   3.799  33.565  1.4301 -1.1939  1.3914
 3338TIP3    H231506   0.898   3.752  33.505  1.1965  1.4258 -0.3171
 3339TIP3   OH231507   1.630   1.621   9.673  0.2276  0.4680 -0.9531
 3339TIP3    H131508   1.649   1.547   9.730  0.9672  0.6131 -1.0088
 3339TIP3    H231509   1.612   1.694   9.734 -1.8024 -0.0459 -0.8706
 3340TIP3   OH231510   1.797   3.256  15.408 -0.1096  0.3709  0.2656
 3340TIP3    H131511   1.833   3.218  15.487  0.0941  0.7831  0.3728
 3340TIP3    H231512   1.873   3.289  15.360 -0.3135  1.0962  0.4164
 3341TIP3   OH231513   4.170   2.715  27.534  0.1429  0.2029  0.2272
 3341TIP3    H131514   4.077   2.732  27.520 -0.0279 -0.4432  0.5639
 3341TIP3    H231515   4.173   2.629  27.575  0.8873  0.2467  0.2758
 3342TIP3   OH231516   3.570   4.224   6.568  0.3923 -0.5450  0.3597
 3342TIP3    H131517   3.565   4.230   6.472  1.3893  0.8132  0.3688
 3342TIP3    H231518   3.663   4.216   6.586  0.3532  0.8541  1.2928
 3343TIP3   OH231519   3.430   3.057  41.048  0.0443 -0.2001  0.1536
 3343TIP3    H131520   3.503   3.111  41.079  2.7157 -2.0084 -2.4325
 3343TIP3    H231521   3.389   3.109  40.979  2.7373 -1.2375 -2.4729
 3344TIP3   OH231522   3.602   2.365  29.350 -0.5638  0.4931 -1.1551
 3344TIP3    H131523   3.653   2.299  29.303  0.3957  0.1886  0.2650
 3344TIP3    H231524   3.658   2.443  29.350 -1.0168  0.8256 -1.4318
 3345TIP3   OH231525   3.821   2.461  32.543  0.2500 -0.0172  0.4963
 3345TIP3    H131526   3.834   2.415  32.460  0.6529  1.0576 -0.0614
 3345TIP3    H231527   3.780   2.544  32.519  1.1441  0.6798  1.2672
 3346TIP3   OH231528   2.418   1.517  32.394  0.1056 -0.1362  0.5286
 3346TIP3    H131529   2.388   1.551  32.309 -1.0540  0.2138  1.0445
 3346TIP3    H231530   2.451   1.594  32.440  2.0620 -0.5490 -0.1032
 3347TIP3   OH231531   3.868   0.419   5.542  0.4131  0.4601 -0.0360
 3347TIP3    H131532   3.948   0.420   5.489 -0.3308 -1.2645 -1.2692
 3347TIP3    H231533   3.811   0.356   5.498 -0.9975  0.4297  1.7438
 3348TIP3   OH231534   3.101   3.041  29.837 -0.2428  0.5082  0.2680
 3348TIP3    H131535   3.043   2.989  29.781 -1.8345  0.0313  2.2345
 3348TIP3    H231536   3.131   2.979  29.904  1.2610  1.1545  0.2357
 3349TIP3   OH231537   2.464   3.788  31.786  0.6731 -0.3120  0.6322
 3349TIP3    H131538   2.369   3.783  31.800  0.7909  0.5363  1.9629
 3349TIP3    H231539   2.493   3.697  31.780 -0.1850 -0.5814  0.4945
 3350TIP3   OH231540   3.454   2.998  33.297  0.5642  0.1294  0.4595
 3350TIP3    H131541   3.421   2.999  33.387 -0.9963 -1.1278 -0.0652
 3350TIP3    H231542   3.378   3.021  33.243  2.3064  5.2648 -0.4483
 3351TIP3   OH231543   0.005   1.445  37.929 -0.6130  0.5470  0.1952
 3351TIP3    H131544   0.093   1.466  37.900 -0.7292 -0.8206 -1.2632
 3351TIP3    H231545  -0.050   1.456  37.851 -1.6714  0.9182  0.9614
 3352TIP3   OH231546   2.897   1.353   4.564 -0.1818  0.1932  0.3791
 3352TIP3    H131547   2.832   1.284   4.579 -0.5549  0.5850  0.5738
 3352TIP3    H231548   2.864   1.401   4.489 -0.5035  0.8459  0.9266
 3353TIP3   OH231549   1.830   0.693   2.997  0.0173  0.6165  0.1760
 3353TIP3    H131550   1.835   0.623   3.062  0.3435  1.2433  0.8318
 3353TIP3    H231551   1.778   0.655   2.925 -0.4792 -0.0249  0.8593
 3354TIP3   OH231552   4.066   0.717  13.085 -0.6462  0.4424 -0.2134
 3354TIP3    H131553   3.974   0.691  13.074 -0.2708 -1.1677  0.1366
 3354TIP3    H231554   4.087   0.693  13.175  0.5791 -0.8299 -0.8032
 3355TIP3   OH231555   1.911   0.108  36.509 -0.5701  0.7599 -0.0279
 3355TIP3    H131556   1.849   0.066  36.449  1.4266 -2.3614 -0.1795
 3355TIP3    H231557   1.995   0.105  36.462  0.5774  0.5077  1.9259
 3356TIP3   OH231558   0.591   2.636   9.052  0.1606 -0.1609 -0.1785
 3356TIP3    H131559   0.533   2.664   9.123 -0.0078  2.4395 -1.2161
 3356TIP3    H231560   0.632   2.717   9.021  0.4091 -1.1939 -2.8790
 3357TIP3   OH231561   3.433   0.024   4.971  0.0654  0.8628 -0.2295
 3357TIP3    H131562   3.436  -0.071   4.970 -1.2137  0.7355  2.1240
 3357TIP3    H231563   3.351   0.047   4.927  0.6532  0.9445 -1.3226
 3358TIP3   OH231564   3.508   1.750  10.668 -0.1085 -0.4278  0.5668
 3358TIP3    H131565   3.601   1.771  10.672 -0.2035  0.7242 -1.6607
 3358TIP3    H231566   3.468   1.802  10.738  0.5856  1.5170 -0.4111
 3359TIP3   OH231567   1.360   3.108  41.040 -0.1953 -0.4593  0.0626
 3359TIP3    H131568   1.273   3.143  41.024  0.0396  1.5155  2.5759
 3359TIP3    H231569   1.352   3.056  41.120  0.5178 -2.2118 -0.9385
 3360TIP3   OH231570   0.455   3.183  37.181  0.8931  0.8544 -0.4355
 3360TIP3    H131571   0.509   3.105  37.190 -0.8214 -0.2472  1.0165
 3360TIP3    H231572   0.485   3.241  37.252  0.0856  0.1463  0.5201
 3361TIP3   OH231573   0.105   1.065  30.003 -0.0103 -0.1046  0.1215
 3361TIP3    H131574   0.145   0.989  30.045 -0.8654 -0.1099  0.9559
 3361TIP3    H231575   0.086   1.125  30.075 -0.2789  0.4628 -0.4153
 3362TIP3   OH231576   3.186   1.127   7.117  0.6223 -0.0172 -0.1261
 3362TIP3    H131577   3.152   1.121   7.207 -0.5570 -1.0913 -0.6145
 3362TIP3    H231578   3.259   1.187   7.124 -0.1371  0.8060  1.3651
 3363TIP3   OH231579   1.973   3.747  33.617  0.4352  0.2298 -0.2724
 3363TIP3    H131580   2.042   3.734  33.682 -1.0452  0.2902  1.3705
 3363TIP3    H231581   1.909   3.804  33.660 -0.2915  0.8264 -2.0331
 3364TIP3   OH231582   3.580   1.544  40.410 -0.0439  0.5568  0.0041
 3364TIP3    H131583   3.567   1.527  40.504  0.2228 -1.8617 -0.3181
 3364TIP3    H231584   3.662   1.499  40.389 -0.6513  0.1292 -1.5854
 3365TIP3   OH231585   0.137   0.117  35.262  0.0089  0.5093  0.2383
 3365TIP3    H131586   0.209   0.164  35.305 -0.4485  1.7873 -0.3836
 3365TIP3    H231587   0.065   0.121  35.325  0.2876 -0.3287  0.6403
 3366TIP3   OH231588   2.023   4.138   2.988 -0.2400 -0.3309 -0.6176
 3366TIP3    H131589   2.058   4.130   3.077 -2.3056 -0.3371  0.2581
 3366TIP3    H231590   2.014   4.048   2.958  0.1691 -0.3403 -0.7143
 3367TIP3   OH231591   1.981   3.668   4.017  0.1302 -0.4291 -0.5421
 3367TIP3    H131592   2.013   3.581   3.993 -1.6196 -0.9158 -1.2894
 3367TIP3    H231593   2.059   3.715   4.048  0.9358 -2.5855  0.9265
 3368TIP3   OH231594   0.215   2.627  13.177  0.1048 -0.0909 -0.3269
 3368TIP3    H131595   0.243   2.584  13.096  0.3360 -0.0363 -0.2736
 3368TIP3    H231596   0.234   2.563  13.245  1.2286  0.4276 -0.1446
 3369TIP3   OH231597   0.225   0.406  10.723 -0.4257 -0.1732  0.2146
 3369TIP3    H131598   0.301   0.463  10.712 -0.0943 -0.2612  1.7878
 3369TIP3    H231599   0.259   0.328  10.767 -0.9635 -1.3909 -1.4405
 3370TIP3   OH231600   0.457   0.884  37.022 -0.2363 -0.2929 -0.9447
 3370TIP3    H131601   0.430   0.898  37.113  1.3291 -0.8676 -0.3786
 3370TIP3    H231602   0.416   0.957  36.975  1.5085  1.9423  0.7292
 3371TIP3   OH231603   0.311   2.185  11.689 -0.4007 -0.1639  0.1244
 3371TIP3    H131604   0.293   2.112  11.630  1.5894 -1.7053  1.3143
 3371TIP3    H231605   0.380   2.235  11.645  0.0159 -0.4510  0.4465
 3372TIP3   OH231606   3.012   2.351  40.770 -0.2656  0.0264 -0.6131
 3372TIP3    H131607   3.023   2.403  40.849 -0.2898  0.2989 -0.7883
 3372TIP3    H231608   3.102   2.333  40.740 -0.2627  1.1883 -1.3532
 3373TIP3   OH231609   2.602   4.160  12.676 -0.2913  0.4411 -0.6450
 3373TIP3    H131610   2.605   4.206  12.592  0.4205 -1.7073 -1.9061
 3373TIP3    H231611   2.688   4.117  12.682 -0.6378 -0.0971  0.7927
 3374TIP3   OH231612   1.285   2.313  30.918  0.0049 -0.0034  0.9198
 3374TIP3    H131613   1.323   2.254  30.983  1.0692  0.1457  0.4605
 3374TIP3    H231614   1.359   2.338  30.862 -0.5785  1.1410  0.6232
 3375TIP3   OH231615   0.102   1.834   3.469  0.3595  0.0291 -0.2361
 3375TIP3    H131616   0.141   1.856   3.384  0.0194 -0.9276 -0.6520
 3375TIP3    H231617   0.176   1.805   3.523  0.4671 -0.1217 -0.4635
 3376TIP3   OH231618   3.891   0.428  31.031 -0.2543  0.1106 -0.3700
 3376TIP3    H131619   3.839   0.372  30.975  0.2434  0.1735 -0.9089
 3376TIP3    H231620   3.976   0.433  30.988  0.0041  0.5128  0.1647
 3377TIP3   OH231621   1.184   3.580  34.788 -0.3078  0.1777  0.1521
 3377TIP3    H131622   1.152   3.541  34.869  1.7051  0.1777  0.9960
 3377TIP3    H231623   1.189   3.674  34.807  1.5581  0.0261  0.5743
 3378TIP3   OH231624   2.195   0.931   2.560 -0.0840  0.4365 -0.4788
 3378TIP3    H131625   2.284   0.936   2.525 -0.3015 -0.7792 -1.3003
 3378TIP3    H231626   2.186   0.841   2.591 -1.1078  0.4494 -0.6761
 3379TIP3   OH231627   0.992   3.374  29.402  0.9487 -0.5108  0.1843
 3379TIP3    H131628   1.077   3.387  29.358  0.4207 -0.8424 -0.9777
 3379TIP3    H231629   0.981   3.278  29.404  0.0432 -0.4511 -0.8325
 3380TIP3   OH231630   0.841   3.307   8.630 -0.6404  0.0561  0.0581
 3380TIP3    H131631   0.829   3.396   8.596 -0.7957  0.6819  1.6733
 3380TIP3    H231632   0.895   3.264   8.564  2.4283  2.3782  0.8493
 3381TIP3   OH231633   1.132   1.573   5.955  0.4510  0.0164  0.0071
 3381TIP3    H131634   1.178   1.515   6.016  0.3678  0.4919  0.5243
 3381TIP3    H231635   1.065   1.517   5.916 -1.2833  0.3440  2.3432
 3382TIP3   OH231636   0.052   2.465  32.475 -0.6493  0.0444  0.6465
 3382TIP3    H131637   0.030   2.551  32.440  0.5715  1.0236  2.1635
 3382TIP3    H231638  -0.011   2.451  32.546 -0.6407 -0.1871  0.6095
 3383TIP3   OH231639   0.356   4.338   1.475  0.3052 -0.2208  0.1326
 3383TIP3    H131640   0.385   4.251   1.504 -0.1634 -0.3684  0.1714
 3383TIP3    H231641   0.333   4.326   1.383 -2.1825 -0.7668  0.7702
 3384TIP3   OH231642   4.112   4.273  33.497  0.5046 -0.6290 -0.2631
 3384TIP3    H131643   4.196   4.309  33.525  0.6581 -1.6416  0.6110
 3384TIP3    H231644   4.051   4.298  33.566  0.1572 -0.2333 -0.7056
 3385TIP3   OH231645   2.296   3.730   3.584 -0.0122 -0.5586  0.3999
 3385TIP3    H131646   2.284   3.697   3.674  2.3173 -1.2569  0.5220
 3385TIP3    H231647   2.313   3.652   3.532 -1.0959 -0.1290 -0.6511
 3386TIP3   OH231648   0.632   4.359  11.278 -0.3531  0.2225  0.1654
 3386TIP3    H131649   0.712   4.351  11.330 -0.8441  0.5117  0.9801
 3386TIP3    H231650   0.582   4.280  11.301 -1.1762  1.0140  1.2169
 3387TIP3   OH231651   1.948   1.063  35.510  0.3844 -0.3882  0.2431
 3387TIP3    H131652   1.869   1.011  35.520  0.0857 -0.2956 -1.2862
 3387TIP3    H231653   1.978   1.080  35.599 -1.1719 -0.6464  0.8478
 3388TIP3   OH231654   2.484   1.356  39.499 -0.7323  0.2413  0.3547
 3388TIP3    H131655   2.514   1.271  39.531 -0.8058 -0.7141 -1.9381
 3388TIP3    H231656   2.532   1.420  39.552  0.9668 -1.2362  0.7015
 3389TIP3   OH231657   3.315   0.353   3.018 -0.3981 -0.5078  0.1673
 3389TIP3    H131658   3.221   0.354   3.035 -0.0938 -0.7071  2.0119
 3389TIP3    H231659   3.328   0.278   2.959 -1.3413 -0.7450  0.2556
 3390TIP3   OH231660   0.257   3.918  32.936 -0.7345 -0.3688  0.1797
 3390TIP3    H131661   0.265   3.887  33.026  1.0289 -0.4030  0.0431
 3390TIP3    H231662   0.204   3.851  32.892 -1.7074 -0.2908  1.1932
 3391TIP3   OH231663   1.240   3.859   4.304  0.6380  0.4054 -0.6378
 3391TIP3    H131664   1.296   3.782   4.296  0.1449  0.1380 -1.6701
 3391TIP3    H231665   1.299   3.933   4.287  1.0627  0.2495  0.1225
 3392TIP3   OH231666   0.128   3.615   4.250  0.1236 -0.8270 -0.1427
 3392TIP3    H131667   0.065   3.565   4.196 -0.3327  1.0536 -1.4457
 3392TIP3    H231668   0.190   3.549   4.281 -1.7324 -2.5553  0.1148
 3393TIP3   OH231669   4.334   3.198  40.347 -0.1871 -0.8030  0.0528
 3393TIP3    H131670   4.314   3.228  40.258  0.3016 -0.3483  0.0924
 3393TIP3    H231671   4.417   3.152  40.338  0.0441 -0.4478  0.3336
 3394TIP3   OH231672   1.483   2.333  29.970 -0.4260  0.4768 -0.7303
 3394TIP3    H131673   1.550   2.321  29.903 -1.0671 -0.1598 -1.2838
 3394TIP3    H231674   1.428   2.255  29.962 -0.2409  0.1554  0.8634
 3395TIP3   OH231675   1.044   2.554  10.111  0.2613  0.7910 -0.0566
 3395TIP3    H131676   1.053   2.464  10.141 -0.5633  0.7306  0.0473
 3395TIP3    H231677   0.957   2.558  10.071  0.2453  1.5567  0.0234
 3396TIP3   OH231678   3.460   1.118  11.738 -0.2468  0.7065  0.0431
 3396TIP3    H131679   3.535   1.170  11.709 -0.5532  1.2098  0.1315
 3396TIP3    H231680   3.389   1.143  11.679 -0.1074 -0.4994 -0.6715
 3397TIP3   OH231681   3.040   3.778  39.391  0.2278 -0.5411  0.1718
 3397TIP3    H131682   3.061   3.779  39.485  0.0253 -0.0779  0.2148
 3397TIP3    H231683   2.950   3.747  39.387  0.2285 -0.5383  0.1326
 3398TIP3   OH231684   1.322   1.339   8.396  0.0855  0.3619  0.5308
 3398TIP3    H131685   1.385   1.401   8.434  0.8786 -0.2852  0.3001
 3398TIP3    H231686   1.237   1.378   8.413  0.5846  1.7393 -0.0061
 3399TIP3   OH231687   4.308   0.793  26.852  0.2369 -0.2347  0.2203
 3399TIP3    H131688   4.376   0.764  26.913 -0.9975 -1.4794  1.0543
 3399TIP3    H231689   4.242   0.835  26.908 -0.2841 -0.1878 -0.4252
 3400TIP3   OH231690   0.775   3.203  36.677 -0.1982 -0.6987  0.8271
 3400TIP3    H131691   0.814   3.271  36.732 -1.2145 -0.7339  1.6275
 3400TIP3    H231692   0.737   3.249  36.603 -1.0772 -0.3512  1.4767
 3401TIP3   OH231693   0.643   0.354  27.761  0.3883  0.1554 -0.1692
 3401TIP3    H131694   0.618   0.264  27.784 -0.2851  0.6176  0.9472
 3401TIP3    H231695   0.718   0.343  27.702  1.4361 -1.1014  1.3290
 3402TIP3   OH231696   1.801   0.897   5.548  0.2746  0.8095  0.7606
 3402TIP3    H131697   1.869   0.950   5.507  1.8019 -2.3463 -1.1454
 3402TIP3    H231698   1.848   0.834   5.602 -1.0008 -1.5543 -0.6963
 3403TIP3   OH231699   2.487   0.663  39.624  0.6446 -0.3595  0.2270
 3403TIP3    H131700   2.501   0.724  39.551  1.1257 -0.1591  0.4782
 3403TIP3    H231701   2.540   0.587  39.602  2.2847  0.4339  1.2177
 3404TIP3   OH231702   4.255   0.935   4.115 -0.3810 -0.2230 -0.3212
 3404TIP3    H131703   4.284   0.895   4.032 -1.6151 -0.0768 -0.8467
 3404TIP3    H231704   4.261   0.864   4.179 -1.6685 -1.0308 -1.0525
 3405TIP3   OH231705   4.139   3.162  21.733  0.5547 -0.0261  0.0666
 3405TIP3    H131706   4.048   3.173  21.760 -0.1500 -3.0121 -0.7100
 3405TIP3    H231707   4.188   3.162  21.816 -0.4725 -0.7345  0.7045
 3406TIP3   OH231708   0.605   2.004  22.639 -0.1412 -0.3429  0.3199
 3406TIP3    H131709   0.587   2.031  22.549 -1.0635  0.5574  0.7589
 3406TIP3    H231710   0.611   1.908  22.634 -0.5258 -0.3319 -0.6304
 3407TIP3   OH231711   3.944   1.179   6.000 -0.1020  0.0530 -0.0987
 3407TIP3    H131712   3.879   1.223   5.946 -0.4868 -0.6561 -0.2223
 3407TIP3    H231713   3.985   1.250   6.050 -1.4754  0.4411  0.5316
 3408TIP3   OH231714   0.007   1.882  20.692 -0.4164 -0.2397  0.0202
 3408TIP3    H131715  -0.028   1.860  20.778 -1.0527 -2.8053 -0.8002
 3408TIP3    H231716  -0.048   1.954  20.661 -1.9782 -1.1178  0.6650
 3409TIP3   OH231717   2.690   3.397   8.158 -0.0120 -0.3808 -0.3774
 3409TIP3    H131718   2.620   3.337   8.186 -1.5406  0.6193 -1.8825
 3409TIP3    H231719   2.666   3.422   8.069  0.9951  1.8585 -0.0814
 3410TIP3   OH231720   3.057   4.216  38.107 -0.4688  0.5492  0.3658
 3410TIP3    H131721   3.075   4.307  38.132  0.0409 -0.3706  3.8713
 3410TIP3    H231722   2.962   4.207  38.117 -0.4139  0.4822  0.8214
 3411TIP3   OH231723   2.798   1.236   5.052  0.1468 -0.1102  0.3951
 3411TIP3    H131724   2.745   1.310   5.020 -0.9522 -0.8794  0.3965
 3411TIP3    H231725   2.734   1.174   5.086  1.0740 -1.0130  0.5140
 3412TIP3   OH231726   0.117   2.133  30.262  0.0780  0.4961  0.5100
 3412TIP3    H131727   0.059   2.197  30.304 -1.0216 -1.2576  1.8037
 3412TIP3    H231728   0.133   2.067  30.329 -0.8823 -1.8777 -1.4206
 3413TIP3   OH231729   1.779   0.912  38.556 -0.0513 -0.1546 -0.1572
 3413TIP3    H131730   1.869   0.902  38.588 -0.3379  0.7042  0.9835
 3413TIP3    H231731   1.743   0.983  38.609 -1.2548 -0.1585 -0.9444
 3414TIP3   OH231732   4.307   1.891  30.531 -0.0824 -0.1772 -0.6070
 3414TIP3    H131733   4.373   1.959  30.543 -0.4564  0.1353 -0.3071
 3414TIP3    H231734   4.233   1.936  30.491  0.0725 -0.6353 -1.4413
 3415TIP3   OH231735   0.277   3.167  22.925 -0.0967 -0.1800 -1.0872
 3415TIP3    H131736   0.235   3.177  22.839  1.3571  0.6136 -1.7414
 3415TIP3    H231737   0.369   3.153  22.905  0.1783 -0.6182  0.3531
 3416TIP3   OH231738   2.686   4.160  29.911  0.4298 -0.0228  0.0464
 3416TIP3    H131739   2.623   4.133  29.978 -0.5382  1.3262 -0.2824
 3416TIP3    H231740   2.670   4.101  29.837 -0.8320  0.6158 -0.2205
 3417TIP3   OH231741   1.652   2.704  16.723 -0.0910 -0.0571 -0.0571
 3417TIP3    H131742   1.597   2.702  16.801  0.8821 -1.6624  0.6304
 3417TIP3    H231743   1.727   2.759  16.747 -0.8758  1.3378 -0.6728
 3418TIP3   OH231744   3.813   1.336   4.519  0.5486 -0.5499 -0.4293
 3418TIP3    H131745   3.787   1.286   4.597 -0.5677 -1.4535 -1.3538
 3418TIP3    H231746   3.758   1.414   4.521 -0.7338 -1.3984 -1.1973
 3419TIP3   OH231747   1.182   1.017  40.114  0.1870 -0.6245 -0.1813
 3419TIP3    H131748   1.137   1.031  40.031  1.7549 -1.0299 -1.1407
 3419TIP3    H231749   1.129   0.952  40.160 -1.0751  0.1074 -0.5426
 3420TIP3   OH231750   1.075   2.228   2.731 -0.4954  0.4418  0.3591
 3420TIP3    H131751   1.110   2.302   2.682 -0.6762 -0.8428 -1.8521
 3420TIP3    H231752   1.151   2.193   2.779  0.4653 -0.1037 -1.4873
 3421TIP3   OH231753   1.179   3.090  36.841  0.0435 -0.0286 -0.1737
 3421TIP3    H131754   1.223   3.121  36.761 -1.1852 -0.3965 -1.0144
 3421TIP3    H231755   1.248   3.043  36.889  0.9638  0.7557 -0.6972
 3422TIP3   OH231756   0.187   0.635  10.420  0.0566  0.4011  0.2773
 3422TIP3    H131757   0.213   0.687  10.496  1.7428 -0.7143  0.5305
 3422TIP3    H231758   0.162   0.550  10.456 -1.1624  0.5135 -0.2559
 3423TIP3   OH231759   3.452   1.162  30.695  0.2428  0.2046 -0.2572
 3423TIP3    H131760   3.400   1.114  30.759  1.1278 -2.7545 -1.5474
 3423TIP3    H231761   3.402   1.242  30.678 -1.3822 -0.2175  2.0285
 3424TIP3   OH231762   0.848   1.912   6.136 -0.3313 -0.4214 -0.4048
 3424TIP3    H131763   0.890   1.902   6.050 -1.9626  0.4565 -1.3649
 3424TIP3    H231764   0.909   1.873   6.198  0.9429 -0.9927 -1.9613
 3425TIP3   OH231765   0.159   4.268  39.939 -0.1552 -0.3718 -0.2889
 3425TIP3    H131766   0.120   4.333  39.881 -2.0480 -0.8969  0.2982
 3425TIP3    H231767   0.153   4.186  39.891 -1.3983 -0.7454  0.4630
 3426TIP3   OH231768   0.599   3.027  12.961 -0.1428 -0.2080 -0.5552
 3426TIP3    H131769   0.585   2.999  12.871 -0.0805 -0.8338 -0.3698
 3426TIP3    H231770   0.669   3.092  12.955  1.7804 -2.1879 -0.6615
 3427TIP3   OH231771   4.343   2.177  11.172  0.0181  0.3596  0.0216
 3427TIP3    H131772   4.379   2.157  11.259  1.3204  2.8218  0.1368
 3427TIP3    H231773   4.258   2.217  11.189 -0.4934 -0.6856  0.0264
 3428TIP3   OH231774   4.074   0.333  34.915 -0.2152 -0.2115  0.4398
 3428TIP3    H131775   4.055   0.426  34.929  1.0853  0.3218 -1.0324
 3428TIP3    H231776   4.070   0.294  35.003  0.6691  1.5193  1.2935
 3429TIP3   OH231777   0.920   2.823  27.219 -0.1441 -0.6095 -0.9274
 3429TIP3    H131778   0.960   2.859  27.141 -2.6859 -0.1248 -2.1146
 3429TIP3    H231779   0.847   2.770  27.187 -0.3190 -1.7027  1.0653
 3430TIP3   OH231780   2.333   0.415  39.979 -0.4797 -0.7588 -0.1048
 3430TIP3    H131781   2.351   0.507  39.961 -0.8091 -0.9912 -1.8359
 3430TIP3    H231782   2.419   0.374  39.983 -0.3585 -0.6361 -1.0509
 3431TIP3   OH231783   1.287   3.681  37.539 -0.2383  0.3286  0.1118
 3431TIP3    H131784   1.349   3.630  37.487 -0.5639 -0.1044  0.1518
 3431TIP3    H231785   1.335   3.702  37.619 -0.4599 -0.8076  0.5542
 3432TIP3   OH231786   0.479   2.107  34.486  0.3120  0.0307 -0.2520
 3432TIP3    H131787   0.565   2.067  34.500 -0.3411 -0.9603  1.2617
 3432TIP3    H231788   0.490   2.198  34.515  0.3079 -0.7010  2.3714
 3433TIP3   OH231789   3.869   1.489  22.394 -0.3500  0.5800 -0.2130
 3433TIP3    H131790   3.924   1.501  22.472  0.2875 -1.9925 -0.1968
 3433TIP3    H231791   3.923   1.521  22.322 -0.3835  1.6421  0.2090
 3434TIP3   OH231792   2.936   1.768  36.915 -0.0818  0.0909 -0.1225
 3434TIP3    H131793   2.891   1.740  36.835  0.5812  1.5378 -1.0279
 3434TIP3    H231794   3.023   1.730  36.908 -0.1498 -0.1151  0.1234
 3435TIP3   OH231795   3.478   2.760   3.498  0.2040  0.4271  0.0440
 3435TIP3    H131796   3.425   2.826   3.452  1.3572  0.5842 -1.1398
 3435TIP3    H231797   3.500   2.801   3.581 -1.0621  0.5741  0.3172
 3436TIP3   OH231798   0.673   2.299  41.188 -0.4860  0.6971  0.0713
 3436TIP3    H131799   0.759   2.258  41.177 -1.4130 -1.0562 -0.8996
 3436TIP3    H231800   0.667   2.360  41.114 -0.1785  0.6958  0.0397
 3437TIP3   OH231801   1.658   3.242  36.993  0.1706 -0.4530  0.6127
 3437TIP3    H131802   1.570   3.233  36.957  0.0707 -0.3251  0.8261
 3437TIP3    H231803   1.647   3.226  37.087  0.3156 -0.0709  0.6944
 3438TIP3   OH231804   1.823   0.686  40.319 -0.1828 -0.2122 -0.1816
 3438TIP3    H131805   1.767   0.732  40.256 -0.3685 -1.0363 -0.6317
 3438TIP3    H231806   1.825   0.596  40.288  0.3026 -0.4811  0.6016
 3439TIP3   OH231807   3.014   0.821  28.624  0.7037  0.5287  0.2174
 3439TIP3    H131808   3.035   0.891  28.685  0.5537 -0.7801  1.8420
 3439TIP3    H231809   3.098   0.799  28.582  0.9385  1.0051  0.4362
 3440TIP3   OH231810   1.232   2.660  37.060 -0.0677 -0.4817  0.6064
 3440TIP3    H131811   1.272   2.596  37.118  0.5274  0.6533  1.4855
 3440TIP3    H231812   1.242   2.622  36.972 -0.2566 -1.8390  1.1561
 3441TIP3   OH231813   3.776   2.985   3.082 -0.2637  0.3722 -0.0780
 3441TIP3    H131814   3.784   2.941   3.167  0.0981 -0.1462 -0.3730
 3441TIP3    H231815   3.788   2.915   3.018 -2.3319  0.4176 -0.5853
 3442TIP3   OH231816   2.644   2.783  38.455 -0.0682  0.5532  0.6020
 3442TIP3    H131817   2.731   2.814  38.479  0.8268 -1.3644  0.0304
 3442TIP3    H231818   2.615   2.842  38.386  0.8532  1.1185  0.6921
 3443TIP3   OH231819   0.203   1.649   6.118 -0.3556  0.2222 -0.8645
 3443TIP3    H131820   0.254   1.729   6.131 -0.4331  0.1277  0.0754
 3443TIP3    H231821   0.195   1.611   6.206 -1.9659  0.1887 -0.9959
 3444TIP3   OH231822   3.740   4.199  33.535  0.5631 -0.1162  0.4131
 3444TIP3    H131823   3.656   4.199  33.580  1.0401 -1.5841  1.4025
 3444TIP3    H231824   3.718   4.203  33.442 -0.5488  0.5112  0.6897
 3445TIP3   OH231825   2.762   0.088   7.720 -0.0034  0.7758  0.2492
 3445TIP3    H131826   2.736   0.014   7.665 -0.1229  2.5094 -2.1872
 3445TIP3    H231827   2.835   0.054   7.772  1.5481 -0.4779 -2.4956
 3446TIP3   OH231828   2.969   2.533   6.835 -0.3624  0.3447 -0.1338
 3446TIP3    H131829   2.951   2.473   6.763 -0.6335 -1.8150  1.6361
 3446TIP3    H231830   2.884   2.571   6.857 -0.3851  0.5308 -0.5348
 3447TIP3   OH231831   0.947   3.343  33.712 -0.5178  0.4517  0.0685
 3447TIP3    H131832   0.991   3.345  33.627 -1.9489 -1.2988 -0.7782
 3447TIP3    H231833   0.927   3.251  33.727 -1.6574  0.8958  1.5874
 3448TIP3   OH231834   2.584   1.528   3.648  0.0426 -0.9314 -0.1642
 3448TIP3    H131835   2.494   1.496   3.654 -0.1441 -0.4120 -0.1341
 3448TIP3    H231836   2.575   1.624   3.642  0.5280 -0.9379 -1.3472
 3449TIP3   OH231837   0.378   2.329  32.799  0.6218  0.0989 -0.3604
 3449TIP3    H131838   0.403   2.326  32.892 -0.1926 -1.5969 -0.1599
 3449TIP3    H231839   0.319   2.255  32.788  1.3377 -0.2229 -2.4290
 3450TIP3   OH231840   0.795   0.804  12.059  0.2730  0.3193 -0.6001
 3450TIP3    H131841   0.789   0.858  11.980 -1.2094  1.6747  0.3724
 3450TIP3    H231842   0.792   0.714  12.027 -1.4158  0.8281 -2.0638
 3451TIP3   OH231843   0.969   0.819  37.205  0.1770  0.1591 -0.2006
 3451TIP3    H131844   1.011   0.879  37.267  0.8318 -0.5868  0.1123
 3451TIP3    H231845   0.877   0.844  37.205 -0.0390 -0.4151  1.8390
 3452TIP3   OH231846   0.975   3.944  32.576  0.0839  0.1755  0.0546
 3452TIP3    H131847   1.010   3.956  32.488  0.2549 -1.9741 -0.2074
 3452TIP3    H231848   1.047   3.905  32.625 -0.6734 -0.6046  0.5690
 3453TIP3   OH231849   1.684   3.191  18.634  0.0692  0.6614  0.8418
 3453TIP3    H131850   1.688   3.245  18.556 -0.7540 -0.9905 -0.3981
 3453TIP3    H231851   1.720   3.106  18.607 -0.5845 -0.0613  2.1448
 3454TIP3   OH231852   3.400   0.883  35.633  0.4948  0.1170 -0.1266
 3454TIP3    H131853   3.440   0.943  35.697  0.9538  0.8356 -1.0708
 3454TIP3    H231854   3.382   0.803  35.684  1.5769  0.3855  0.7259
 3455TIP3   OH231855   1.125   2.166  37.546  0.8500 -0.0989  0.1893
 3455TIP3    H131856   1.172   2.124  37.474  1.1840 -0.5324  0.6560
 3455TIP3    H231857   1.086   2.093  37.594 -1.2199  0.2847 -0.7926
 3456TIP3   OH231858   3.128   3.594   8.647 -0.3326  0.2554  0.0422
 3456TIP3    H131859   3.191   3.560   8.710 -1.3703 -1.1150  0.3802
 3456TIP3    H231860   3.057   3.629   8.701 -0.6842  0.1413 -0.3399
 3457TIP3   OH231861   0.051   4.073  25.021 -0.0498  0.0715 -0.1418
 3457TIP3    H131862   0.050   4.143  25.086 -1.1499  2.2451 -2.3546
 3457TIP3    H231863   0.108   4.105  24.952 -0.0678 -1.5181 -0.9450
 3458TIP3   OH231864   2.486   0.390   1.239 -0.6556 -0.2999  0.9304
 3458TIP3    H131865   2.536   0.321   1.285  2.0081  0.3596 -0.7297
 3458TIP3    H231866   2.515   0.471   1.280 -0.8627  0.0640  0.3645
 3459TIP3   OH231867   2.794   3.905  34.759  0.2757 -0.1090  0.0294
 3459TIP3    H131868   2.858   3.864  34.818  0.4902  0.1081 -0.0528
 3459TIP3    H231869   2.835   3.987  34.732  0.8928 -0.9542 -1.7198
 3460TIP3   OH231870   1.044   1.997  35.423 -0.1303 -0.8758  0.5760
 3460TIP3    H131871   0.954   1.973  35.441 -0.3644  0.1574  0.8557
 3460TIP3    H231872   1.039   2.088  35.393  0.9675 -0.2677  2.1224
 3461TIP3   OH231873   1.962   1.261   4.591  0.5755 -0.1512  0.0560
 3461TIP3    H131874   1.922   1.339   4.553  0.7873 -0.0626  0.0142
 3461TIP3    H231875   1.892   1.220   4.640  0.4554  0.0502  0.0543
 3462TIP3   OH231876   1.677   3.965  35.706 -0.3941 -0.0110 -0.0355
 3462TIP3    H131877   1.639   4.045  35.670  0.4507  1.4493  2.0706
 3462TIP3    H231878   1.768   3.967  35.676 -0.3719 -0.1738  0.0213
 3463TIP3   OH231879   0.183   1.211   0.907 -0.4163  0.7618 -0.1224
 3463TIP3    H131880   0.205   1.197   0.815  2.9106  2.0435  0.3254
 3463TIP3    H231881   0.179   1.123   0.945 -0.7223  0.2730 -1.2434
 3464TIP3   OH231882   0.578   0.897  22.982 -0.0502 -0.3244 -0.1914
 3464TIP3    H131883   0.663   0.907  22.938 -0.2939  0.1034 -0.5776
 3464TIP3    H231884   0.585   0.952  23.060 -0.3924  0.7135 -0.8589
 3465TIP3   OH231885   3.473   3.251  13.090  0.1067 -0.4725 -0.0068
 3465TIP3    H131886   3.533   3.245  13.016  1.3885  0.0773  0.9403
 3465TIP3    H231887   3.483   3.341  13.121 -0.6813 -0.5895  0.6225
 3466TIP3   OH231888   3.881   0.373  33.143 -0.4492 -0.6991  0.5999
 3466TIP3    H131889   3.858   0.286  33.112 -1.6064  0.0421 -0.7862
 3466TIP3    H231890   3.885   0.426  33.063 -3.4754  1.3056  1.6016
 3467TIP3   OH231891   1.480   3.960  29.294 -0.3027 -0.0941  0.0554
 3467TIP3    H131892   1.523   3.971  29.378 -0.3659 -2.5787  0.4816
 3467TIP3    H231893   1.552   3.947  29.232 -0.3190 -0.5423  0.1284
 3468TIP3   OH231894   2.642   1.325  41.526 -0.7685 -0.1024 -0.2741
 3468TIP3    H131895   2.676   1.246  41.568 -0.5952 -0.3589 -0.8781
 3468TIP3    H231896   2.704   1.394  41.550 -0.4456 -0.3314 -0.4335
 3469TIP3   OH231897   3.241   1.488  33.468 -0.1999  0.4843  0.3452
 3469TIP3    H131898   3.274   1.418  33.523  0.9173 -0.5433 -1.5483
 3469TIP3    H231899   3.290   1.565  33.495  0.6441 -0.0963  0.4942
 3470TIP3   OH231900   0.602   3.024   3.635 -0.7241  0.6827  0.2794
 3470TIP3    H131901   0.560   3.063   3.558 -1.4702 -0.3762  0.1246
 3470TIP3    H231902   0.606   2.930   3.615  3.0914  0.7978 -0.3801
 3471TIP3   OH231903   1.761   4.240  32.938  0.2515 -0.6903 -0.2510
 3471TIP3    H131904   1.737   4.147  32.938 -1.1887 -0.3540  0.5732
 3471TIP3    H231905   1.855   4.241  32.954  0.2020 -1.9888  0.1964
 3472TIP3   OH231906   4.207   1.855   7.449 -0.2011 -0.6445 -0.0611
 3472TIP3    H131907   4.261   1.832   7.525  0.4670 -2.0623 -0.9219
 3472TIP3    H231908   4.270   1.881   7.382 -0.6959 -0.7644 -0.5733
 3473TIP3   OH231909   3.239   0.462   1.841  0.1112 -0.4791  0.1489
 3473TIP3    H131910   3.301   0.437   1.910  0.0500 -0.5845  0.1643
 3473TIP3    H231911   3.227   0.556   1.853  1.0125 -0.2712 -0.4448
 3474TIP3   OH231912   0.452   2.367  37.225  0.1559 -0.1640 -0.0125
 3474TIP3    H131913   0.541   2.349  37.256 -0.5875 -1.3391  1.6219
 3474TIP3    H231914   0.460   2.449  37.176  1.9523  0.2856  0.9174
 3475TIP3   OH231915   2.443   0.980  27.545  0.4681  0.5346  0.1829
 3475TIP3    H131916   2.491   0.920  27.487 -0.0979 -0.2703  0.5271
 3475TIP3    H231917   2.355   0.943  27.550  0.2087  1.2093  0.6829
 3476TIP3   OH231918   2.536   1.984  40.334 -0.5522  0.0014 -0.3575
 3476TIP3    H131919   2.486   1.908  40.364 -1.1246 -0.0449 -1.3858
 3476TIP3    H231920   2.609   1.990  40.395 -0.9834 -0.8435  0.2660
 3477TIP3   OH231921   1.916   0.869  39.968 -0.6338 -0.3685  0.0110
 3477TIP3    H131922   1.827   0.850  39.996 -1.2107  0.4584 -1.1680
 3477TIP3    H231923   1.909   0.881  39.873  0.5278  0.7676  0.0424
 3478TIP3   OH231924   2.949   0.526  30.332  0.6857 -0.0937  0.3537
 3478TIP3    H131925   2.975   0.602  30.278 -1.5718 -0.2461 -1.0663
 3478TIP3    H231926   2.932   0.563  30.419 -1.1348  1.2538 -0.5044
 3479TIP3   OH231927   0.107   1.496  33.776 -0.0600  0.1293  0.7478
 3479TIP3    H131928   0.202   1.511  33.783 -0.0978  0.2557  1.0281
 3479TIP3    H231929   0.088   1.436  33.849 -0.0362 -0.6800  0.0989
 3480TIP3   OH231930   2.423   3.007  27.517  0.4834  0.9685 -0.3646
 3480TIP3    H131931   2.353   3.059  27.556  1.0379  1.4424  0.0124
 3480TIP3    H231932   2.410   3.015  27.423 -0.5838  0.2007 -0.2986
 3481TIP3   OH231933   1.102   2.421  38.628 -0.3696 -0.3747 -0.2042
 3481TIP3    H131934   1.127   2.329  38.625 -0.1735 -0.2945 -1.7462
 3481TIP3    H231935   1.125   2.449  38.717  0.0485 -1.6710  0.1169
 3482TIP3   OH231936   2.664   1.756  34.115  0.3309 -0.2031  0.1354
 3482TIP3    H131937   2.660   1.851  34.125  0.2360 -0.3066  1.2375
 3482TIP3    H231938   2.573   1.728  34.111  0.3342 -0.3524  1.0103
 3483TIP3   OH231939   3.864   3.289   9.402 -0.0038  0.1875 -0.1703
 3483TIP3    H131940   3.896   3.223   9.341 -1.0477 -1.6826  1.1773
 3483TIP3    H231941   3.928   3.360   9.397  0.2152 -0.1246 -2.9776
 3484TIP3   OH231942   3.610   0.487   2.373 -0.3134  0.4346  0.0151
 3484TIP3    H131943   3.616   0.427   2.298 -1.6682  1.7152 -1.1886
 3484TIP3    H231944   3.540   0.451   2.427  0.0071  0.0466  0.1832
 3485TIP3   OH231945   3.928   2.804  26.780 -0.2332  0.1072 -0.3974
 3485TIP3    H131946   3.915   2.709  26.775  0.2025  0.0804 -1.2400
 3485TIP3    H231947   3.840   2.841  26.774 -0.5608 -0.2770  1.5045
 3486TIP3   OH231948   0.767   3.837  41.138 -0.1169  0.4310 -0.4087
 3486TIP3    H131949   0.705   3.890  41.188 -0.1421 -0.1573  0.1928
 3486TIP3    H231950   0.712   3.778  41.086 -0.0867 -1.3272  1.4591
 3487TIP3   OH231951   2.142   4.195  10.888 -0.0579 -0.3639  0.2716
 3487TIP3    H131952   2.132   4.102  10.867  0.9408 -0.7281  1.3034
 3487TIP3    H231953   2.095   4.205  10.971  0.1752 -0.0411  0.3664
 3488TIP3   OH231954   0.989   3.816  40.250 -0.1109 -0.3271  0.3834
 3488TIP3    H131955   0.904   3.832  40.291  0.0614  2.1333 -0.0403
 3488TIP3    H231956   0.972   3.821  40.156  0.7889  3.0240  0.2457
 3489TIP3   OH231957   0.241   3.970  40.940  0.3238  0.0743  0.0542
 3489TIP3    H131958   0.193   4.051  40.926 -0.3452 -0.2755  0.3028
 3489TIP3    H231959   0.242   3.928  40.854 -0.9689 -0.5386  0.3203
 3490TIP3   OH231960   1.978   4.173  28.893 -0.4767  0.5479  0.4460
 3490TIP3    H131961   1.911   4.206  28.833 -0.9918  1.2880  1.3883
 3490TIP3    H231962   2.013   4.252  28.935 -1.0008  0.0009  2.0005
 3491TIP3   OH231963   3.391   3.692  10.225 -0.6712  0.4991  0.3942
 3491TIP3    H131964   3.402   3.764  10.288 -1.6955  0.4123  0.6889
 3491TIP3    H231965   3.303   3.705  10.189 -1.8639 -1.8896  2.1618
 3492TIP3   OH231966   1.697   3.132  37.557 -0.2122  0.3594  0.0959
 3492TIP3    H131967   1.706   3.037  37.551 -2.3753  0.1784 -2.3312
 3492TIP3    H231968   1.618   3.146  37.610  1.0077  0.9262  1.8479
 3493TIP3   OH231969   3.323   2.490  31.931  0.2630 -0.5094 -0.1101
 3493TIP3    H131970   3.341   2.486  32.025  1.2788  1.7751 -0.1320
 3493TIP3    H231971   3.396   2.444  31.890  0.1151 -1.0160  0.1908
 3494TIP3   OH231972   1.014   0.527  10.331  0.3977  0.3883  0.1900
 3494TIP3    H131973   1.099   0.514  10.288  0.4182 -1.0942  0.6285
 3494TIP3    H231974   1.033   0.589  10.402  1.3946 -0.8033  1.0155
 3495TIP3   OH231975   1.081   1.850   7.270 -0.1585 -0.3247 -0.5303
 3495TIP3    H131976   1.071   1.829   7.363 -0.8059  0.9600 -0.2963
 3495TIP3    H231977   1.175   1.860   7.258 -0.0816 -0.3408  0.0255
 3496TIP3   OH231978   2.555   1.762   2.184  0.3013 -0.0114  0.3545
 3496TIP3    H131979   2.536   1.676   2.222  0.0846  0.6547  1.8644
 3496TIP3    H231980   2.493   1.770   2.112 -0.3089 -0.7570  0.7693
 3497TIP3   OH231981   4.226   3.710  27.213  0.3414  0.0128  0.2919
 3497TIP3    H131982   4.222   3.806  27.216  0.1240 -0.0038  0.5480
 3497TIP3    H231983   4.135   3.682  27.215  0.3910 -0.1904 -0.2003
 3498TIP3   OH231984   1.652   0.615  28.333 -0.1747 -0.3799 -0.6632
 3498TIP3    H131985   1.556   0.617  28.330 -0.2811 -0.6455  1.3825
 3498TIP3    H231986   1.673   0.620  28.426  1.8153 -0.3900 -1.0769
 3499TIP3   OH231987   3.941   1.500  20.952  0.0885  0.0049  0.7573
 3499TIP3    H131988   3.887   1.579  20.959  0.4647  0.2628  0.7667
 3499TIP3    H231989   3.970   1.483  21.042  1.4170  0.8516  0.5121
 3500TIP3   OH231990   4.173   1.034  34.838 -0.4458  0.5024 -0.0352
 3500TIP3    H131991   4.196   1.113  34.789  0.4656 -0.3835 -1.1084
 3500TIP3    H231992   4.228   1.038  34.917  1.2188 -0.0779 -1.1138
 3501TIP3   OH231993   1.368   1.487  36.549  0.5464 -0.3960  0.8314
 3501TIP3    H131994   1.402   1.401  36.522 -0.9838 -0.1533 -2.4019
 3501TIP3    H231995   1.273   1.474  36.554  0.3658  0.9204  1.0244
 3502TIP3   OH231996   0.153   0.927  21.693  0.2862  0.1669 -0.1119
 3502TIP3    H131997   0.180   1.019  21.689  1.9828 -0.1348  1.9640
 3502TIP3    H231998   0.203   0.885  21.623 -0.2636  0.7717 -0.8761
 3503TIP3   OH231999   4.313   3.133  40.782  0.2624  0.3629  0.4999
 3503TIP3    H132000   4.365   3.209  40.807  1.3225 -0.1941  0.0634
 3503TIP3    H232001   4.305   3.141  40.687  0.2213  0.0289  0.4768
 3504TIP3   OH232002   0.656   0.898  29.482  0.1771 -0.0893  0.3056
 3504TIP3    H132003   0.698   0.957  29.544 -0.1057  1.0063 -0.5276
 3504TIP3    H232004   0.562   0.905  29.501 -0.1824  2.1828 -1.8029
 3505TIP3   OH232005   3.240   0.935  39.178 -0.0417  0.0134  0.5035
 3505TIP3    H132006   3.334   0.918  39.168  0.5358  0.6348  3.7027
 3505TIP3    H232007   3.198   0.863  39.130  2.1204 -1.9122  1.2600
 3506TIP3   OH232008   1.806   2.802   5.300 -0.1136  0.4990 -0.1894
 3506TIP3    H132009   1.755   2.767   5.373 -1.3815  0.9468 -0.8199
 3506TIP3    H232010   1.822   2.727   5.244  1.4375  0.0239  0.8436
 3507TIP3   OH232011   4.084   3.411  26.133  0.3437 -0.0759 -0.3744
 3507TIP3    H132012   4.175   3.438  26.138 -0.4199  2.7038  0.0730
 3507TIP3    H232013   4.048   3.459  26.059 -0.6371 -1.7416 -1.0492
 3508TIP3   OH232014   1.709   0.228  30.672  0.1899 -0.2375 -0.0818
 3508TIP3    H132015   1.687   0.223  30.765 -0.3077  2.3636  0.0019
 3508TIP3    H232016   1.792   0.276  30.669  1.2228 -1.9487 -0.9318
 3509TIP3   OH232017   1.967   2.476  32.965 -0.1897  0.1369 -0.5999
 3509TIP3    H132018   2.044   2.468  32.909 -0.8975 -1.1663 -1.4423
 3509TIP3    H232019   1.963   2.569  32.987  1.5766  0.2326 -0.5752
 3510TIP3   OH232020   3.179   1.006  11.408  0.5230  1.0181  0.0454
 3510TIP3    H132021   3.146   1.025  11.320 -0.5098 -0.1212  0.1569
 3510TIP3    H232022   3.161   0.913  11.420  0.2545  1.2519  1.6299
 3511TIP3   OH232023   4.192   1.432   7.727 -0.0684 -0.2008  0.1128
 3511TIP3    H132024   4.121   1.469   7.779  0.7679  0.5213  0.7569
 3511TIP3    H232025   4.189   1.479   7.644  0.2802  0.5294  0.5109
 3512TIP3   OH232026   1.873   0.933   9.682 -0.6640  0.1258  0.7769
 3512TIP3    H132027   1.921   0.976   9.611  1.1716 -1.9721  0.6344
 3512TIP3    H232028   1.863   1.001   9.748 -0.2062  1.4614 -0.4697
 3513TIP3   OH232029   1.851   1.808   2.803 -0.0525  0.3635  0.1471
 3513TIP3    H132030   1.888   1.896   2.805  2.1255 -0.4909  0.0190
 3513TIP3    H232031   1.847   1.786   2.710  2.4709 -0.8047  0.2306
 3514TIP3   OH232032   2.981   1.230  32.507 -0.3529 -0.1013 -0.1265
 3514TIP3    H132033   3.072   1.212  32.485 -0.3138  1.1530 -1.1457
 3514TIP3    H232034   2.930   1.175  32.448 -0.2428  0.2393 -0.5463
 3515TIP3   OH232035   2.147   0.245  34.190  0.2432  0.6725  0.1324
 3515TIP3    H132036   2.174   0.167  34.239 -1.0906 -0.6076 -1.0663
 3515TIP3    H232037   2.053   0.251  34.205  0.3429  2.2032  0.3536
 3516TIP3   OH232038   3.518   2.369  12.845 -0.1610  0.4603  0.1812
 3516TIP3    H132039   3.602   2.347  12.887  0.0778  0.1920 -0.4167
 3516TIP3    H232040   3.523   2.463  12.829 -0.3739  0.6147  1.0100
 3517TIP3   OH232041   3.549   4.381   3.020 -0.0413 -0.4443 -0.7301
 3517TIP3    H132042   3.573   4.300   2.975  1.7008 -1.4310  1.7603
 3517TIP3    H232043   3.526   4.353   3.108 -1.0851  1.6313 -0.2863
 3518TIP3   OH232044   3.759   4.113  34.087  0.1649  0.2451 -0.2368
 3518TIP3    H132045   3.690   4.047  34.079  0.9969 -0.6914  0.0843
 3518TIP3    H232046   3.794   4.099  34.175  1.2391  0.2262 -0.6565
 3519TIP3   OH232047   1.693   0.223  31.743 -0.2600  0.0428 -0.4349
 3519TIP3    H132048   1.714   0.134  31.774 -1.3402  0.2580  1.0188
 3519TIP3    H232049   1.625   0.210  31.678 -0.4186 -0.1985 -0.2238
 3520TIP3   OH232050   3.128   1.330  13.104 -0.0720  0.1654 -0.0791
 3520TIP3    H132051   3.067   1.395  13.140 -2.3069 -0.6940 -2.0770
 3520TIP3    H232052   3.195   1.382  13.061 -0.5372  1.1495  0.3510
 3521TIP3   OH232053   3.688   1.224  26.285 -0.2344  0.2891 -0.5551
 3521TIP3    H132054   3.682   1.310  26.243 -3.6095 -0.2265 -1.3637
 3521TIP3    H232055   3.646   1.164  26.224  0.1120 -1.5798  0.9513
 3522TIP3   OH232056   1.991   0.736  26.966 -0.4017  0.0494 -0.0044
 3522TIP3    H132057   2.056   0.740  26.896  0.0833  1.5185  0.4986
 3522TIP3    H232058   1.907   0.746  26.922 -0.1409  0.3562 -0.4398
 3523TIP3   OH232059   1.268   3.551   8.314  0.2595 -0.1389  0.2559
 3523TIP3    H132060   1.340   3.488   8.312  0.8518  0.2948  2.9513
 3523TIP3    H232061   1.307   3.631   8.350 -0.6504  1.5894 -2.3212
 3524TIP3   OH232062   2.917   2.672  29.202  0.1967  0.1683 -0.3979
 3524TIP3    H132063   2.939   2.684  29.294  0.2880  2.0284 -0.6279
 3524TIP3    H232064   2.946   2.752  29.159 -2.3114  0.5359 -1.5811
 3525TIP3   OH232065   3.817   1.905   5.286  0.0612 -0.8771  0.0117
 3525TIP3    H132066   3.888   1.942   5.339  0.6880 -1.5499 -0.3411
 3525TIP3    H232067   3.777   1.839   5.343 -1.0291  0.2610  0.6249
 3526TIP3   OH232068   1.895   4.232  11.688 -0.5528  0.0090 -0.5546
 3526TIP3    H132069   1.966   4.290  11.718 -1.2345  0.8474 -0.5410
 3526TIP3    H232070   1.865   4.190  11.768 -0.8672  0.5594 -0.3762
 3527TIP3   OH232071   1.323   0.567  37.419  0.1704 -0.0517  0.1882
 3527TIP3    H132072   1.275   0.566  37.337  2.5382  0.6428 -1.3168
 3527TIP3    H232073   1.359   0.479  37.427 -1.2166 -0.5572  1.2846
 3528TIP3   OH232074   2.407   0.828   6.256  0.1063 -0.1663  0.5931
 3528TIP3    H132075   2.442   0.890   6.192  1.0544 -0.9164  0.3636
 3528TIP3    H232076   2.331   0.872   6.293  1.1075  1.4014  0.8752
 3529TIP3   OH232077   1.435   1.483   6.506  0.0759  0.4513 -0.6557
 3529TIP3    H132078   1.524   1.468   6.539 -0.5070 -1.4932  0.1525
 3529TIP3    H232079   1.443   1.474   6.411  0.2901 -2.9228 -0.4478
 3530TIP3   OH232080   0.170   2.855   9.175  0.6212 -0.6428  0.2327
 3530TIP3    H132081   0.126   2.926   9.222 -0.9588 -0.3560 -1.5646
 3530TIP3    H232082   0.243   2.899   9.130  1.7008 -0.7981  1.7418
 3531TIP3   OH232083   0.579   4.213  21.105  0.3341 -0.5142 -0.1157
 3531TIP3    H132084   0.525   4.175  21.035 -1.3812  2.0206 -0.2986
 3531TIP3    H232085   0.640   4.270  21.059 -0.3083  0.5882  0.3649
 3532TIP3   OH232086   1.194   4.036   2.549  0.2086 -0.1434  0.4638
 3532TIP3    H132087   1.247   4.012   2.625  0.0522 -0.1665  0.5653
 3532TIP3    H232088   1.157   3.953   2.518  1.7541 -0.4162 -0.7609
 3533TIP3   OH232089   2.433   3.753   2.971  0.4953  0.1645  0.0127
 3533TIP3    H132090   2.469   3.674   3.011  0.4351  0.1865  0.1123
 3533TIP3    H232091   2.509   3.808   2.952  0.5191  0.1932  0.1842
 3534TIP3   OH232092   1.698   2.125  37.081  0.4888 -0.4265 -0.3379
 3534TIP3    H132093   1.671   2.214  37.059 -0.0347 -0.5376 -0.1522
 3534TIP3    H232094   1.759   2.136  37.154  0.8868 -0.1820 -0.7003
 3535TIP3   OH232095   4.284   2.160  40.656  0.2446 -0.1949 -0.1663
 3535TIP3    H132096   4.192   2.182  40.671  0.5574  1.0693  0.0102
 3535TIP3    H232097   4.318   2.141  40.743 -0.1039 -1.7982 -0.3524
 3536TIP3   OH232098   0.582   1.964  27.196 -0.5666  0.2394 -0.2684
 3536TIP3    H132099   0.520   1.901  27.233 -0.0716  0.1249  0.3914
 3536TIP3    H232100   0.627   1.915  27.128 -0.2094 -0.1236  0.2171
 3537TIP3   OH232101   2.364   4.168  10.603  0.2193  0.0705  0.0657
 3537TIP3    H132102   2.389   4.220  10.680  0.3199 -1.3100  0.9992
 3537TIP3    H232103   2.447   4.138  10.567  0.1144 -0.4763  0.2742
 3538TIP3   OH232104   3.818   3.609  27.650  0.4882  0.6488 -0.0731
 3538TIP3    H132105   3.834   3.673  27.719 -0.7590 -0.5616  1.3880
 3538TIP3    H232106   3.905   3.594  27.612  1.1196  1.7008  0.8839
 3539TIP3   OH232107   1.225   2.386  17.504  0.1834 -0.4561 -0.1166
 3539TIP3    H132108   1.166   2.392  17.580 -1.0002 -0.3262 -1.0266
 3539TIP3    H232109   1.225   2.473  17.466 -0.0626 -0.7751 -0.8688
 3540TIP3   OH232110   3.209   2.467   8.526  0.1205 -0.2898 -0.2193
 3540TIP3    H132111   3.130   2.503   8.566  0.2953 -1.5696  1.3842
 3540TIP3    H232112   3.201   2.489   8.434 -1.3142  1.0055  0.1647
 3541TIP3   OH232113   3.299   2.772   5.555  0.2859 -0.6762  0.1727
 3541TIP3    H132114   3.305   2.859   5.595 -0.5002 -0.4669 -0.1578
 3541TIP3    H232115   3.355   2.777   5.478 -0.4552 -0.1711 -0.3465
 3542TIP3   OH232116   3.741   2.159   9.250 -0.1554 -0.0316  0.3559
 3542TIP3    H132117   3.668   2.222   9.241 -0.8540 -0.7972  0.5619
 3542TIP3    H232118   3.806   2.206   9.302 -1.6080 -0.2268  2.4844
 3543TIP3   OH232119   2.668   2.532   9.541 -0.4615 -0.0135  0.3285
 3543TIP3    H132120   2.649   2.624   9.559 -1.1742 -0.2423  0.7899
 3543TIP3    H232121   2.599   2.505   9.481 -0.1346 -0.1984  0.0351
 3544TIP3   OH232122   0.275   2.055  39.962  0.4380  0.1662  0.2663
 3544TIP3    H132123   0.339   2.000  39.917  0.6350  0.2538  0.4415
 3544TIP3    H232124   0.193   2.038  39.916  0.3297 -0.8981  0.8472
 3545TIP3   OH232125   0.272   0.765  32.266 -0.2686 -0.6281  1.0381
 3545TIP3    H132126   0.317   0.704  32.325  1.3056 -1.4052 -0.8362
 3545TIP3    H232127   0.334   0.777  32.193 -1.7838  0.9050 -0.0720
 3546TIP3   OH232128   0.950   1.955  33.393  0.2650 -0.2931 -0.4326
 3546TIP3    H132129   0.898   1.973  33.316  1.4810  0.7811 -1.0473
 3546TIP3    H232130   0.894   1.979  33.467 -0.7198 -0.8513 -0.9801
 3547TIP3   OH232131   0.366   4.370  31.485  0.0165  0.1190 -0.2723
 3547TIP3    H132132   0.447   4.323  31.504  0.8477  1.6155  0.0531
 3547TIP3    H232133   0.389   4.429  31.413 -0.5112  1.2463  0.4633
 3548TIP3   OH232134   2.743   3.855   2.949  0.3596 -0.3872 -0.2732
 3548TIP3    H132135   2.771   3.778   2.900  1.3338 -0.9079  1.0436
 3548TIP3    H232136   2.823   3.887   2.990 -0.6189 -0.8882  2.2129
 3549TIP3   OH232137   0.902   3.637  29.319 -0.4410 -0.3823 -0.0264
 3549TIP3    H132138   0.817   3.680  29.317 -0.0742  0.4295  0.9782
 3549TIP3    H232139   0.888   3.558  29.369 -0.6974 -0.4754 -0.2429
 3550TIP3   OH232140   1.222   2.163   7.071 -0.1989 -0.2378 -0.4349
 3550TIP3    H132141   1.143   2.125   7.033 -1.8043  2.0717  0.4000
 3550TIP3    H232142   1.232   2.118   7.155  0.0245 -1.2672 -0.9865
 3551TIP3   OH232143   3.823   1.993  27.391  0.1213 -0.2553  0.4106
 3551TIP3    H132144   3.824   1.981  27.486 -0.7300  2.2090  0.8072
 3551TIP3    H232145   3.746   2.048  27.375  1.1461  0.6965 -1.5086
 3552TIP3   OH232146   4.313   1.534  36.403 -0.0410  0.3340  0.3571
 3552TIP3    H132147   4.398   1.491  36.410 -0.3018 -0.6258 -1.6195
 3552TIP3    H232148   4.252   1.474  36.445  0.3160  1.4278  2.5664
 3553TIP3   OH232149   0.103   3.812   4.049 -0.0426  0.4178 -0.1037
 3553TIP3    H132150   0.126   3.749   4.117 -1.0217 -0.7990 -0.8600
 3553TIP3    H232151   0.160   3.791   3.976  0.1930  0.9524 -0.0777
 3554TIP3   OH232152   1.883   0.831  10.346 -0.7011 -0.0686 -0.2278
 3554TIP3    H132153   1.833   0.831  10.427 -2.2951 -1.4743 -1.1387
 3554TIP3    H232154   1.843   0.900  10.293 -0.0534  0.4487 -0.0493
 3555TIP3   OH232155   0.194   3.046   4.380  0.0713  0.3429 -0.2482
 3555TIP3    H132156   0.212   3.009   4.466  2.6736  1.5360 -0.1995
 3555TIP3    H232157   0.208   2.973   4.319  0.0096 -0.0520  0.2063
 3556TIP3   OH232158   3.119   1.738  41.490  0.5743  0.0950  0.4075
 3556TIP3    H132159   3.148   1.816  41.442  0.3827 -0.7391 -1.1223
 3556TIP3    H232160   3.027   1.756  41.510  0.6644  0.4647  0.5049
 3557TIP3   OH232161   2.836   3.970  37.010  0.4377 -0.0949  0.0781
 3557TIP3    H132162   2.816   4.028  36.936 -0.9672 -0.0487  0.4559
 3557TIP3    H232163   2.750   3.942  37.041  0.9240  0.8348  2.4562
 3558TIP3   OH232164   2.237   0.235  28.957 -0.5903 -0.1814 -0.4083
 3558TIP3    H132165   2.170   0.290  28.916  0.2451  1.5047  0.3908
 3558TIP3    H232166   2.258   0.280  29.039 -1.6331 -2.9973  1.6029
 3559TIP3   OH232167   1.833   3.629   2.732  0.0253 -0.1139  0.0235
 3559TIP3    H132168   1.820   3.718   2.766 -1.7430 -0.1262 -0.5072
 3559TIP3    H232169   1.792   3.572   2.797  0.0957 -0.4442 -0.2190
 3560TIP3   OH232170   0.293   0.978  13.270 -0.2371  0.2045  0.4432
 3560TIP3    H132171   0.268   0.966  13.362  0.4386  2.8676  1.0874
 3560TIP3    H232172   0.232   1.044  13.237  0.1548  0.0097 -0.7202
 3561TIP3   OH232173   3.504   4.313  33.386 -0.4157  0.6466  0.2322
 3561TIP3    H132174   3.461   4.313  33.471 -2.5899  2.7435 -0.7283
 3561TIP3    H232175   3.459   4.244  33.337  1.9625 -1.7295  1.1561
 3562TIP3   OH232176   3.708   3.354   2.000  0.3288  0.0054  0.7405
 3562TIP3    H132177   3.788   3.405   2.015  1.5789 -1.3648 -0.8340
 3562TIP3    H232178   3.659   3.405   1.935 -0.6383  1.3607  2.4584
 3563TIP3   OH232179   3.049   1.101   6.387 -0.3336  0.2702  0.5998
 3563TIP3    H132180   2.984   1.161   6.424  0.3589  1.3974  0.0495
 3563TIP3    H232181   3.005   1.016   6.386 -1.6280  0.9072  0.6794
 3564TIP3   OH232182   3.499   1.442  26.219 -0.4420  0.1314  0.0696
 3564TIP3    H132183   3.561   1.476  26.285 -0.5554 -2.0552  1.4036
 3564TIP3    H232184   3.421   1.496  26.231  0.1931  1.0188  0.3908
 3565TIP3   OH232185   3.841   1.822  31.842  0.5603  0.7444  0.4689
 3565TIP3    H132186   3.878   1.862  31.763  0.9358 -0.0196  0.2515
 3565TIP3    H232187   3.858   1.728  31.832 -2.0596  0.2616  0.0570
 3566TIP3   OH232188   3.735   2.956   0.394  0.1038  0.0110 -0.2743
 3566TIP3    H132189   3.717   3.027   0.456  0.8466  0.0312 -0.0625
 3566TIP3    H232190   3.655   2.948   0.342  0.0481  1.1011 -0.3917
 3567TIP3   OH232191   2.793   0.051  28.079 -0.3469  0.5920 -0.3934
 3567TIP3    H132192   2.794  -0.041  28.054 -0.0365  0.3389  0.5081
 3567TIP3    H232193   2.844   0.095  28.011  1.1452 -0.1864  0.1684
 3568TIP3   OH232194   3.294   3.836   1.570 -0.6766 -0.6582 -0.3899
 3568TIP3    H132195   3.222   3.856   1.511 -1.2431 -0.3118  0.3964
 3568TIP3    H232196   3.363   3.801   1.514 -1.8483 -2.0181 -1.0103
 3569TIP3   OH232197   0.296   3.270  26.789  0.2279  0.4657  0.0262
 3569TIP3    H132198   0.273   3.179  26.808  1.2936 -0.1697 -1.5174
 3569TIP3    H232199   0.218   3.320  26.815 -0.3926 -0.8743  0.8723
 3570TIP3   OH232200   1.749   0.677   0.724  0.0533 -0.5172  0.5042
 3570TIP3    H132201   1.786   0.693   0.811 -1.6473 -1.2395  1.3926
 3570TIP3    H232202   1.728   0.764   0.690  2.4535 -0.0726 -0.0309
 3571TIP3   OH232203   4.395   2.990  32.562 -0.1605  1.3069  0.2178
 3571TIP3    H132204   4.371   2.960  32.650  0.9123 -2.2400 -0.5474
 3571TIP3    H232205   4.328   3.054  32.540 -2.6561 -0.3912  2.2132
 3572TIP3   OH232206   2.528   1.218   3.761  0.0647  0.1546 -0.0285
 3572TIP3    H132207   2.595   1.154   3.785  1.0102  0.7931 -0.8847
 3572TIP3    H232208   2.569   1.271   3.692 -0.5087  1.9823  0.9672
 3573TIP3   OH232209   4.104   3.796  10.728 -0.4218  0.2527  0.6894
 3573TIP3    H132210   4.035   3.773  10.790  0.2443 -1.9374  0.7239
 3573TIP3    H232211   4.081   3.749  10.648  0.4997  0.2637  0.4026
 3574TIP3   OH232212   2.737   3.101   7.155 -0.4357  0.0500 -0.3169
 3574TIP3    H132213   2.718   3.150   7.236  1.2812 -0.0868  0.1929
 3574TIP3    H232214   2.651   3.090   7.114 -1.4734 -0.5321  1.8435
 3575TIP3   OH232215   2.103   1.690  16.408  0.2173  0.3172 -0.0266
 3575TIP3    H132216   2.117   1.621  16.473 -0.2161 -0.3438 -0.6267
 3575TIP3    H232217   2.029   1.660  16.356  1.1812  0.3557 -1.4738
 3576TIP3   OH232218   3.651   0.125  32.589 -0.2864 -0.7624  0.1364
 3576TIP3    H132219   3.714   0.062  32.554  1.2001  1.2000 -0.9144
 3576TIP3    H232220   3.705   0.198  32.621 -1.9674  0.9795 -0.7678
 3577TIP3   OH232221   4.035   2.338   1.269 -0.2583 -0.1268  0.1937
 3577TIP3    H132222   4.028   2.304   1.358 -0.3267 -1.2401 -0.2113
 3577TIP3    H232223   4.101   2.407   1.274 -1.8736  1.3846  1.5204
 3578TIP3   OH232224   4.236   1.320   1.323 -0.2022  0.4355 -0.0199
 3578TIP3    H132225   4.325   1.341   1.350 -0.2681 -0.0339  0.5750
 3578TIP3    H232226   4.203   1.261   1.390 -0.9023  0.4581 -0.3290
 3579TIP3   OH232227   0.134   3.360   9.877  0.0778  0.1176  0.5083
 3579TIP3    H132228   0.080   3.383   9.801 -0.1244  0.9581  0.8974
 3579TIP3    H232229   0.208   3.312   9.840 -0.1163  0.3514 -0.1988
 3580TIP3   OH232230   2.241   0.462  41.066 -0.1881  0.5231 -0.1695
 3580TIP3    H132231   2.210   0.391  41.121 -0.5324  0.5141 -0.3744
 3580TIP3    H232232   2.163   0.512  41.045 -0.0393  0.5929 -0.5579
 3581TIP3   OH232233   0.940   3.393  26.513  0.3417  0.1996  0.0729
 3581TIP3    H132234   0.940   3.317  26.455 -0.2755  0.0600  0.2596
 3581TIP3    H232235   0.868   3.448  26.481  1.5568  1.3344 -0.8785
 3582TIP3   OH232236   1.824   0.172  10.876 -0.0840  0.3307 -0.0440
 3582TIP3    H132237   1.848   0.246  10.820  1.0451  3.2991  3.9148
 3582TIP3    H232238   1.904   0.121  10.884  0.4806  1.2732  0.6311
 3583TIP3   OH232239   1.682   0.173  12.746  0.3436  0.5170 -0.0990
 3583TIP3    H132240   1.677   0.081  12.770 -0.5395  0.3547 -0.8447
 3583TIP3    H232241   1.715   0.217  12.824 -1.5046 -0.1068  1.1079
 3584TIP3   OH232242   2.620   1.999  40.825 -0.7350 -0.0495 -0.1022
 3584TIP3    H132243   2.602   1.943  40.901  1.9903 -0.9940 -0.0348
 3584TIP3    H232244   2.606   1.942  40.750 -0.9083  0.1107 -0.1934
 3585TIP3   OH232245   0.943   2.828  12.597  0.5411  0.6018 -0.4296
 3585TIP3    H132246   0.986   2.762  12.542  1.0714 -0.7925  1.5405
 3585TIP3    H232247   0.850   2.802  12.597  0.9436 -1.0539  1.4148
 3586TIP3   OH232248   3.686   2.188  29.975  0.6172  0.2420  0.2173
 3586TIP3    H132249   3.705   2.094  29.969  2.7017  0.6097  0.3253
 3586TIP3    H232250   3.716   2.213  30.063  3.1790  1.5800 -0.9325
 3587TIP3   OH232251   3.720   2.793  22.449  0.1903 -0.0288  0.0175
 3587TIP3    H132252   3.698   2.823  22.537  0.1545 -0.6691  0.2311
 3587TIP3    H232253   3.674   2.710  22.440 -0.0234  0.1638 -0.7084
 3588TIP3   OH232254   4.195   4.083  22.955  0.0637 -0.2284  0.2849
 3588TIP3    H132255   4.233   4.123  23.033  0.9677  0.1476 -0.3316
 3588TIP3    H232256   4.126   4.144  22.928  0.0300 -0.1512  0.5412
 3589TIP3   OH232257   1.810   4.195  33.781  0.0896 -0.0731  0.2062
 3589TIP3    H132258   1.877   4.238  33.729 -1.3706  1.5409 -0.4369
 3589TIP3    H232259   1.823   4.227  33.870  0.1409  0.2693  0.0751
 3590TIP3   OH232260   2.269   3.650  36.455 -0.6200 -0.0867  0.0845
 3590TIP3    H132261   2.197   3.708  36.432 -1.2157 -1.0787 -0.5997
 3590TIP3    H232262   2.256   3.630  36.548 -1.6912 -0.9033 -0.2340
 3591TIP3   OH232263   3.071   0.187  12.202 -0.0593  0.4896 -0.5311
 3591TIP3    H132264   3.126   0.109  12.209  1.5535  1.7406  3.6466
 3591TIP3    H232265   3.115   0.241  12.136 -0.2634 -1.3419 -2.2455
 3592TIP3   OH232266   1.261   0.888   8.675  0.4190 -0.4972  0.3524
 3592TIP3    H132267   1.169   0.905   8.699 -0.4239 -1.4218 -1.9123
 3592TIP3    H232268   1.266   0.912   8.583  2.1943 -1.4498  0.1621
 3593TIP3   OH232269   3.588   3.279   6.186  0.1553  0.5448  0.1600
 3593TIP3    H132270   3.678   3.271   6.218 -0.4709  0.4853  2.0416
 3593TIP3    H232271   3.578   3.372   6.166  0.1723  0.8533  1.4978
 3594TIP3   OH232272   0.352   4.300   7.427  0.7602 -0.3368  0.2470
 3594TIP3    H132273   0.371   4.309   7.520 -0.4608  1.5626  0.3739
 3594TIP3    H232274   0.271   4.349   7.414  1.9025  1.1370 -2.1391
 3595TIP3   OH232275   2.083   2.065  31.230  0.2825 -0.2211 -0.0864
 3595TIP3    H132276   2.156   2.023  31.276 -0.4628 -0.0589  1.2807
 3595TIP3    H232277   2.022   1.993  31.212  0.0651 -0.1099  0.1921
 3596TIP3   OH232278   3.886   4.135   1.033  0.4113  0.3991 -1.1071
 3596TIP3    H132279   3.798   4.166   1.015  0.4354  1.8373  0.9839
 3596TIP3    H232280   3.937   4.214   1.051  1.4086 -0.5714  0.5915
 3597TIP3   OH232281   1.656   2.004  36.390 -0.1442 -0.4275 -0.0337
 3597TIP3    H132282   1.750   1.982  36.384 -0.0850  0.2086 -1.7381
 3597TIP3    H232283   1.616   1.955  36.318 -0.9773  0.0904  0.0780
 3598TIP3   OH232284   0.969   0.592   6.944 -0.0721 -0.0130 -0.1359
 3598TIP3    H132285   0.895   0.608   7.002 -1.0279  0.5013 -1.4369
 3598TIP3    H232286   1.021   0.526   6.989 -0.7732  0.3672  1.2883
 3599TIP3   OH232287   1.145   0.534   7.578  0.3480 -0.0881  0.9417
 3599TIP3    H132288   1.191   0.596   7.635 -0.4511 -0.1399  1.6635
 3599TIP3    H232289   1.203   0.524   7.502  1.2710  0.2554  1.5768
 3600TIP3   OH232290   2.904   0.157   8.293  0.0791  0.3730  0.1238
 3600TIP3    H132291   2.917   0.235   8.346  0.7264  1.4014 -1.4525
 3600TIP3    H232292   2.831   0.179   8.235 -1.4460 -1.1847  1.3312
 3601TIP3   OH232293   3.251   2.216  40.650 -0.0350 -0.3436 -0.4953
 3601TIP3    H132294   3.250   2.259  40.564 -1.2275  0.4259 -0.1194
 3601TIP3    H232295   3.344   2.215  40.675  0.2329  0.1923 -1.4170
 3602TIP3   OH232296   3.467   1.977   5.805 -0.1384  0.4063 -0.0070
 3602TIP3    H132297   3.376   1.956   5.787 -0.3923 -0.3934  1.8924
 3602TIP3    H232298   3.517   1.912   5.755 -0.4265  2.3004 -2.9643
 3603TIP3   OH232299   3.005   0.474  27.926 -0.0147 -0.4057  0.3804
 3603TIP3    H132300   2.999   0.378  27.923  0.1194 -0.4135  0.3812
 3603TIP3    H232301   3.002   0.501  27.835  1.7783 -0.5135  0.2550
 3604TIP3   OH232302   3.642   2.562  40.970 -0.1989 -0.1212  0.2526
 3604TIP3    H132303   3.582   2.593  41.038  1.1291  0.9011  1.0248
 3604TIP3    H232304   3.609   2.600  40.889 -1.7858 -1.3199  0.2912
 3605TIP3   OH232305   2.088   2.215  33.746 -0.4810 -0.1821  0.2491
 3605TIP3    H132306   2.019   2.238  33.808 -0.4713 -2.4520  1.2176
 3605TIP3    H232307   2.142   2.152  33.794 -0.8112 -2.5204 -2.1978
 3606TIP3   OH232308   1.352   2.818  37.352 -0.1644  0.0849  0.4720
 3606TIP3    H132309   1.284   2.875  37.387 -0.1969  0.7515 -0.6155
 3606TIP3    H232310   1.307   2.736  37.331 -0.0880 -0.4180  2.1745
 3607TIP3   OH232311   3.890   2.745  35.053 -0.1050  0.8246 -0.1785
 3607TIP3    H132312   3.881   2.829  35.008  1.4363  2.3690  2.1890
 3607TIP3    H232313   3.985   2.730  35.056 -0.2473  0.0805  1.3391
 3608TIP3   OH232314   3.301   4.163  30.391 -0.0209 -0.4503 -0.5918
 3608TIP3    H132315   3.232   4.218  30.354 -0.3074  0.7539  1.5589
 3608TIP3    H232316   3.376   4.221  30.401 -0.2847 -0.3916  1.6054
 3609TIP3   OH232317   3.980   3.547  30.096  0.5003 -0.2718  0.2640
 3609TIP3    H132318   3.891   3.582  30.097  0.5308 -0.2049  1.3910
 3609TIP3    H232319   4.036   3.623  30.087  0.4213 -0.4404 -2.5119
 3610TIP3   OH232320   3.961   4.258   5.345  0.0630 -1.1284  0.2730
 3610TIP3    H132321   3.930   4.313   5.417  0.4870 -0.4086 -0.0847
 3610TIP3    H232322   3.890   4.197   5.329 -1.1737  0.4375 -0.4890
 3611TIP3   OH232323   2.701   0.309  34.489  0.0112  0.0508  0.2037
 3611TIP3    H132324   2.795   0.301  34.474  0.1775 -0.5270  1.4222
 3611TIP3    H232325   2.667   0.348  34.409  1.1921 -0.3736 -0.5274
 3612TIP3   OH232326   0.585   0.198  34.542  0.4982  0.0966 -0.4877
 3612TIP3    H132327   0.604   0.111  34.509 -1.4693 -0.8554  0.7272
 3612TIP3    H232328   0.533   0.239  34.473  0.0198 -0.3101 -0.3700
 3613TIP3   OH232329   3.454   2.017   2.784 -0.4718  0.0146  0.2715
 3613TIP3    H132330   3.405   2.092   2.750 -1.1833  0.1103  1.4468
 3613TIP3    H232331   3.542   2.050   2.801 -0.3273  0.1583 -0.7204
 3614TIP3   OH232332   1.959   2.019  40.925  0.4539 -0.3913 -0.3425
 3614TIP3    H132333   1.882   2.000  40.870 -1.3105  0.8442  1.5421
 3614TIP3    H232334   1.985   1.934  40.960 -0.8951 -0.7079 -0.0334
 3615TIP3   OH232335   2.637   0.303  35.884  0.4336 -0.2194 -0.4062
 3615TIP3    H132336   2.619   0.312  35.978 -1.5594 -1.3703 -0.6213
 3615TIP3    H232337   2.700   0.232  35.879 -0.2343 -0.8628  0.0302
 3616TIP3   OH232338   2.624   3.921   0.514 -0.8616 -0.2048  0.1082
 3616TIP3    H132339   2.706   3.874   0.527 -1.1015 -1.4506 -2.3637
 3616TIP3    H232340   2.650   4.013   0.509  0.2760 -0.5097  0.1487
 3617TIP3   OH232341   1.808   3.459  40.611  0.6878 -0.5601  0.4733
 3617TIP3    H132342   1.745   3.395  40.644  1.7141 -2.0312 -0.3046
 3617TIP3    H232343   1.753   3.527  40.571 -0.4877  0.1155  3.0197
 3618TIP3   OH232344   0.973   2.238   2.109  0.0403  0.1042 -0.1323
 3618TIP3    H132345   1.033   2.305   2.079  0.4823  0.7166  1.9880
 3618TIP3    H232346   1.026   2.181   2.165 -0.7513 -0.9543 -0.4140
 3619TIP3   OH232347   3.750   4.080  29.999 -0.4143  0.3342 -0.0495
 3619TIP3    H132348   3.689   4.123  29.940 -0.2792  1.0965  0.3559
 3619TIP3    H232349   3.705   4.079  30.084  0.7856  2.4671  0.6720
 3620TIP3   OH232350   1.936   3.320  35.576  0.0756 -0.4584  0.3252
 3620TIP3    H132351   1.843   3.331  35.597 -0.0188 -1.1163  0.2766
 3620TIP3    H232352   1.974   3.406  35.591 -0.6235 -0.0686 -0.0732
 3621TIP3   OH232353   3.812   1.314  26.976 -0.1844 -0.2346  0.2314
 3621TIP3    H132354   3.799   1.220  26.988 -0.2649 -0.1141  1.1962
 3621TIP3    H232355   3.760   1.336  26.899 -0.4210 -0.9311  0.1880
 3622TIP3   OH232356   1.502   0.619   6.199  0.0988 -0.4626  0.0917
 3622TIP3    H132357   1.513   0.620   6.294 -0.6002 -0.5314  0.1820
 3622TIP3    H232358   1.545   0.699   6.169 -0.2151 -0.1228  0.5364
 3623TIP3   OH232359   1.106   3.059  40.213  0.8940  0.3042  0.0296
 3623TIP3    H132360   1.078   3.148  40.236  2.4139  0.5077  1.2408
 3623TIP3    H232361   1.081   3.005  40.288  1.6887  0.0857  0.1528
 3624TIP3   OH232362   3.609   1.200  29.757  0.0663 -0.6353 -0.2672
 3624TIP3    H132363   3.630   1.200  29.664 -1.2050  0.5787 -0.5931
 3624TIP3    H232364   3.664   1.131  29.794 -0.1959 -1.9131 -2.0956
 3625TIP3   OH232365   0.843   3.302  35.600 -0.4490 -0.3030  0.0795
 3625TIP3    H132366   0.847   3.373  35.664 -2.8121 -0.3525  0.3627
 3625TIP3    H232367   0.827   3.223  35.651  1.2079 -0.9368 -0.3164
 3626TIP3   OH232368   0.079   3.110   1.968 -0.2827 -0.0177 -0.4533
 3626TIP3    H132369   0.147   3.152   1.915  0.3840  0.5255  0.8110
 3626TIP3    H232370   0.127   3.051   2.026 -1.0792 -1.2886 -1.0406
 3627TIP3   OH232371   3.579   1.848   7.042 -0.1631  0.3763  0.4605
 3627TIP3    H132372   3.526   1.927   7.049  0.2269  0.6677  0.1798
 3627TIP3    H232373   3.669   1.880   7.029 -0.2261 -0.0747 -1.4444
 3628TIP3   OH232374   2.933   2.503   4.647  0.3730 -0.3061  0.0487
 3628TIP3    H132375   2.841   2.491   4.624 -0.2204  2.7047  0.4520
 3628TIP3    H232376   2.931   2.531   4.739  1.3959  2.2582 -0.6244
 3629TIP3   OH232377   1.275   1.268   4.086  0.7301  0.1900  0.1069
 3629TIP3    H132378   1.363   1.304   4.075  0.0691  1.7026 -0.4606
 3629TIP3    H232379   1.227   1.335   4.135 -0.2944 -0.3097 -0.1760
 3630TIP3   OH232380   2.006   4.189   4.181  0.0856 -0.2947  0.3736
 3630TIP3    H132381   1.928   4.235   4.148  0.9899  0.5599 -0.6190
 3630TIP3    H232382   2.023   4.122   4.116 -1.8844 -2.9335  2.3424
 3631TIP3   OH232383   1.431   0.333  37.871 -0.7042  0.1486  0.4733
 3631TIP3    H132384   1.403   0.242  37.857  1.5428 -0.9923  2.6246
 3631TIP3    H232385   1.456   0.364  37.783 -0.2037 -1.8192 -0.1328
 3632TIP3   OH232386   0.636   0.160  38.717 -0.4577 -0.1185 -0.7053
 3632TIP3    H132387   0.603   0.228  38.658 -1.4119  0.0258 -0.0374
 3632TIP3    H232388   0.557   0.115  38.747  0.0303 -0.3680  0.2417
 3633TIP3   OH232389   0.304   4.256  30.843  0.7107 -0.8359  0.1568
 3633TIP3    H132390   0.215   4.285  30.826  0.9456 -0.4587 -0.4562
 3633TIP3    H232391   0.358   4.302  30.778  1.6239  0.5392  1.7950
 3634TIP3   OH232392   1.050   1.627  41.223  0.3035 -0.4776  0.0319
 3634TIP3    H132393   1.061   1.585  41.138  0.3911 -1.3400  0.4620
 3634TIP3    H232394   0.956   1.645  41.228  0.6711  2.4706 -1.5582
 3635TIP3   OH232395   4.015   3.513  32.840 -0.7322  0.0341  0.2548
 3635TIP3    H132396   3.957   3.474  32.906 -0.7244  2.0369  1.5327
 3635TIP3    H232397   3.960   3.523  32.762 -1.3214 -0.5626  0.5804
 3636TIP3   OH232398   4.271   3.708   5.773  0.3927  0.5325  0.1290
 3636TIP3    H132399   4.345   3.647   5.776  0.2257  0.3382  0.3931
 3636TIP3    H232400   4.303   3.787   5.815 -0.0090 -0.0682  1.6550
 3637TIP3   OH232401   3.933   1.521  27.146  0.1286  0.2657  0.1271
 3637TIP3    H132402   3.887   1.457  27.092  0.4855 -0.0238  0.1622
 3637TIP3    H232403   4.013   1.541  27.096 -0.5387  1.5871 -0.4699
 3638TIP3   OH232404   4.362   2.790  36.641 -0.5229 -0.1812  0.3930
 3638TIP3    H132405   4.413   2.712  36.617  0.8150  1.0400 -0.9381
 3638TIP3    H232406   4.289   2.791  36.579 -0.4102 -0.2543  0.2595
 3639TIP3   OH232407   1.975   3.351   2.533 -0.2496  0.1960 -0.0312
 3639TIP3    H132408   2.004   3.280   2.591  1.5013 -0.1364 -1.2383
 3639TIP3    H232409   1.943   3.307   2.455 -3.0147  0.6252  0.7602
 3640TIP3   OH232410   1.628   3.693  35.644  0.0609  0.1674  0.3264
 3640TIP3    H132411   1.652   3.768  35.699 -0.0278 -0.4526  1.2406
 3640TIP3    H232412   1.583   3.633  35.704  2.1493 -1.6478  0.2025
 3641TIP3   OH232413   0.871   4.266  39.085  0.3492  0.0194 -0.0528
 3641TIP3    H132414   0.870   4.317  39.004  0.2252  1.1511  0.6328
 3641TIP3    H232415   0.893   4.177  39.058  0.7070  0.4683 -1.2779
 3642TIP3   OH232416   0.608   1.617   6.734  0.0827 -0.4296 -0.0887
 3642TIP3    H132417   0.595   1.561   6.811  1.3410 -0.6569 -0.0173
 3642TIP3    H232418   0.565   1.699   6.757  1.3037 -0.1250  1.3129
 3643TIP3   OH232419   1.713   1.587  27.982 -0.0374  0.3544 -0.0573
 3643TIP3    H132420   1.664   1.662  28.017  0.0749  0.4644 -0.1333
 3643TIP3    H232421   1.771   1.626  27.917 -0.7945  0.0526 -0.9323
 3644TIP3   OH232422   2.202   1.723   1.311  0.0502  0.1053  0.1586
 3644TIP3    H132423   2.152   1.655   1.265 -0.5190  0.1489  0.7070
 3644TIP3    H232424   2.162   1.805   1.284 -0.1640  0.1418  0.5805
 3645TIP3   OH232425   0.690   0.066   0.662 -0.0851  0.4076 -0.5733
 3645TIP3    H132426   0.601   0.030   0.665 -1.0041  2.3527 -2.3868
 3645TIP3    H232427   0.746  -0.009   0.684 -2.0891 -1.0697 -0.1437
 3646TIP3   OH232428   2.585   1.193   7.333  0.0951 -0.1072 -0.4135
 3646TIP3    H132429   2.656   1.199   7.270 -0.1570 -0.5618 -0.7486
 3646TIP3    H232430   2.524   1.263   7.308  1.0332  1.1573  0.6824
 3647TIP3   OH232431   2.206   0.852  26.803 -0.3322  0.5812 -0.3154
 3647TIP3    H132432   2.296   0.870  26.830 -0.6876  0.4301  1.0545
 3647TIP3    H232433   2.214   0.778  26.743  0.3951 -0.0347  0.4964
 3648TIP3   OH232434   4.383   1.352  11.822 -0.5462 -0.0522 -0.5417
 3648TIP3    H132435   4.443   1.362  11.896 -1.8868 -0.4762  0.6370
 3648TIP3    H232436   4.408   1.422  11.762 -0.4972  1.3810  1.0648
 3649TIP3   OH232437   1.430   3.775  36.878  0.1055  0.3896 -0.6502
 3649TIP3    H132438   1.435   3.859  36.923  0.2345  0.2651 -0.4299
 3649TIP3    H232439   1.376   3.792  36.800 -1.2341  0.3187  0.2238
 3650TIP3   OH232440   1.174   2.955  34.443  0.1058 -0.0392 -0.1487
 3650TIP3    H132441   1.233   2.889  34.478 -1.4481 -1.3362  0.1687
 3650TIP3    H232442   1.087   2.915  34.448 -0.7639  1.6037 -1.0143
 3651TIP3   OH232443   1.585   2.096  11.587 -0.0899 -0.2327  0.0013
 3651TIP3    H132444   1.502   2.053  11.607 -1.6877  2.4683 -0.3532
 3651TIP3    H232445   1.584   2.175  11.640  2.8931 -0.6770  0.9226
 3652TIP3   OH232446   3.325   1.911  30.545  0.0670  0.1174  0.6173
 3652TIP3    H132447   3.407   1.941  30.583 -0.0532 -1.1848  1.9531
 3652TIP3    H232448   3.266   1.986  30.553  0.7972  0.6957  0.6411
 3653TIP3   OH232449   4.148   0.945   3.649 -0.0543  0.1747  0.6380
 3653TIP3    H132450   4.057   0.962   3.673 -0.3025  0.3581 -0.4084
 3653TIP3    H232451   4.166   0.859   3.687 -0.8743 -0.1550  0.3124
 3654TIP3   OH232452   0.379   0.053  34.689 -0.2283 -0.0099 -0.0884
 3654TIP3    H132453   0.401   0.136  34.647 -0.1385  0.4191  0.7991
 3654TIP3    H232454   0.462   0.020  34.723 -0.3617 -0.1768  0.0821
 3655TIP3   OH232455   0.603   4.263  38.900 -0.5135 -0.1329  0.4155
 3655TIP3    H132456   0.555   4.190  38.860  0.5477 -1.0587  0.8059
 3655TIP3    H232457   0.664   4.222  38.960  0.9159  1.0066 -0.2013
 3656TIP3   OH232458   0.136   0.036  38.142 -0.4921 -0.5198 -0.6002
 3656TIP3    H132459   0.056   0.065  38.099 -0.1848  0.0569 -0.8011
 3656TIP3    H232460   0.181  -0.018  38.076 -1.1731 -1.6778 -0.1454
 3657TIP3   OH232461   1.477   0.888  29.932 -0.7896 -0.2536  0.2429
 3657TIP3    H132462   1.423   0.825  29.981 -0.8543 -0.1354  0.3243
 3657TIP3    H232463   1.566   0.853  29.939 -0.8545 -0.4485  0.1103
 3658TIP3   OH232464   0.855   1.103   1.649 -0.1052  0.1691  0.0864
 3658TIP3    H132465   0.832   1.145   1.732 -3.5074 -2.3309  0.6437
 3658TIP3    H232466   0.776   1.110   1.596  1.7028  0.9170 -2.6782
 3659TIP3   OH232467   4.164   3.222  12.957  0.3297 -0.2578 -0.1423
 3659TIP3    H132468   4.115   3.299  12.984 -1.2097 -1.2063 -0.1347
 3659TIP3    H232469   4.105   3.175  12.898  1.7176 -0.8038 -1.1715
 3660TIP3   OH232470   2.388   0.904  35.796 -0.2735  0.2907 -0.6335
 3660TIP3    H132471   2.343   0.837  35.745 -0.6985  0.1760 -0.1244
 3660TIP3    H232472   2.470   0.919  35.749 -0.4440 -0.1502 -1.0836
 3661TIP3   OH232473   3.655   3.186  10.245 -0.2312  0.4954 -0.1471
 3661TIP3    H132474   3.627   3.276  10.228 -0.4589  0.2815 -0.9494
 3661TIP3    H232475   3.583   3.147  10.295 -0.9575  0.2284 -1.3741
 3662TIP3   OH232476   0.058   0.166  27.876 -0.1856  0.0149 -0.4032
 3662TIP3    H132477   0.067   0.222  27.953  0.1914  0.7707 -0.9903
 3662TIP3    H232478   0.100   0.084  27.901 -0.9333 -0.1030  0.5440
 3663TIP3   OH232479   0.606   3.412  30.227 -0.2977 -0.5281  0.1292
 3663TIP3    H132480   0.687   3.461  30.212 -0.5398 -0.5636 -1.4790
 3663TIP3    H232481   0.549   3.438  30.155 -1.7175 -0.5689  1.1859
 3664TIP3   OH232482   2.440   0.322  30.246  0.6251  1.1220  0.4092
 3664TIP3    H132483   2.516   0.340  30.190  1.0816 -0.7945  0.3319
 3664TIP3    H232484   2.376   0.282  30.187  0.9916 -0.6304  1.1222
 3665TIP3   OH232485   2.076   0.960  40.761 -0.2076  0.6625  0.7522
 3665TIP3    H132486   2.084   1.048  40.723 -0.0529  1.4188  2.4710
 3665TIP3    H232487   2.157   0.948  40.810 -0.7508  0.0340  1.4999
 3666TIP3   OH232488   1.054   3.512  15.921 -0.6267 -0.5146  0.1706
 3666TIP3    H132489   1.035   3.517  16.015  1.1399 -1.4029  0.6257
 3666TIP3    H232490   1.132   3.567  15.909 -1.4062  0.3880 -0.9796
 3667TIP3   OH232491   2.688   3.096  29.143  0.7546 -0.3733  0.3856
 3667TIP3    H132492   2.637   3.177  29.150  2.6386  1.0182 -0.9675
 3667TIP3    H232493   2.699   3.067  29.234 -0.6793  0.3999  0.8343
 3668TIP3   OH232494   3.866   0.231   7.672  0.0909 -0.6883  0.3837
 3668TIP3    H132495   3.892   0.322   7.691 -0.7384 -0.4794  0.5430
 3668TIP3    H232496   3.910   0.211   7.589 -0.2005  0.0656  0.0366
 3669TIP3   OH232497   1.656   3.188  15.839 -0.6352 -0.2446 -0.3821
 3669TIP3    H132498   1.625   3.154  15.923 -1.3412  0.8568 -0.1671
 3669TIP3    H232499   1.659   3.283  15.852  0.4174 -0.1443 -1.2258
 3670TIP3   OH232500   2.146   1.784  28.677 -0.6356  0.1719 -0.2081
 3670TIP3    H132501   2.127   1.864  28.727  0.1935 -0.3326  0.9487
 3670TIP3    H232502   2.060   1.746  28.660 -0.9224  0.1233  1.2554
 3671TIP3   OH232503   4.281   4.043  36.053  0.6361  0.0898  0.3550
 3671TIP3    H132504   4.308   3.966  36.103  0.1319 -3.4217 -4.1013
 3671TIP3    H232505   4.357   4.101  36.057  2.1045 -1.7607  1.8629
 3672TIP3   OH232506   2.794   1.671   3.122 -0.1623 -0.0403 -0.0478
 3672TIP3    H132507   2.817   1.764   3.121 -0.3212  0.0062 -1.6328
 3672TIP3    H232508   2.850   1.632   3.055 -0.8901 -0.8914 -0.1748
 3673TIP3   OH232509   2.742   1.430   0.664 -1.0390 -0.2335 -0.1231
 3673TIP3    H132510   2.737   1.491   0.737 -2.4487 -0.0116 -0.3613
 3673TIP3    H232511   2.653   1.395   0.656 -0.9728 -0.1216 -1.8282
 3674TIP3   OH232512   4.279   1.842  25.121  0.4350  0.5927 -0.0241
 3674TIP3    H132513   4.349   1.811  25.064  0.3804  1.2226 -0.4448
 3674TIP3    H232514   4.303   1.810  25.208  0.5597 -0.3090 -0.3793
 3675TIP3   OH232515   3.606   4.001  32.239 -0.2464 -0.5017 -0.0475
 3675TIP3    H132516   3.563   3.917  32.255  1.2486 -1.4760 -0.8669
 3675TIP3    H232517   3.621   4.003  32.144 -2.8032  2.0333 -0.5541
 3676TIP3   OH232518   3.839   1.348  11.877  0.0064  0.3722 -0.5511
 3676TIP3    H132519   3.930   1.348  11.848 -0.1495  0.5610 -1.0440
 3676TIP3    H232520   3.798   1.279  11.825  0.0458 -0.2981  0.2634
 3677TIP3   OH232521   3.063   1.682   3.875 -0.0549  0.0201 -0.4209
 3677TIP3    H132522   3.045   1.631   3.954  0.5619  1.7308  0.8798
 3677TIP3    H232523   3.076   1.771   3.906  1.6142  0.5044 -2.3142
 3678TIP3   OH232524   2.909   1.591  39.586  0.5489  0.4130  0.3061
 3678TIP3    H132525   2.950   1.508  39.562 -0.5623  0.4064 -1.7837
 3678TIP3    H232526   2.941   1.653  39.520 -1.1288  0.8768 -0.1070
 3679TIP3   OH232527   0.861   2.935   2.034 -0.2132 -0.0336  0.1794
 3679TIP3    H132528   0.806   2.859   2.054 -0.2728  0.2680  1.2147
 3679TIP3    H232529   0.906   2.954   2.116  0.9777  0.1108 -0.4873
 3680TIP3   OH232530   0.958   4.039  11.641 -0.2970  0.6395 -0.0470
 3680TIP3    H132531   0.866   4.012  11.635 -0.5927  1.7687 -1.1269
 3680TIP3    H232532   1.005   3.977  11.586 -0.2119 -0.6217  1.3748
 3681TIP3   OH232533   1.398   2.687   8.606 -0.2717  0.5506  0.5131
 3681TIP3    H132534   1.470   2.685   8.669 -0.6137  0.5699  0.9143
 3681TIP3    H232535   1.360   2.599   8.609 -0.6691  0.7255  0.7936
 3682TIP3   OH232536   2.008   0.801   4.176 -0.3923  0.5922  0.4322
 3682TIP3    H132537   2.088   0.767   4.136 -0.4823  1.1136 -0.1992
 3682TIP3    H232538   2.033   0.885   4.213 -0.3088  0.1243  1.5043
 3683TIP3   OH232539   3.389   2.349  24.891  0.2720  0.0496 -0.4167
 3683TIP3    H132540   3.373   2.260  24.860  0.0499 -0.2361  0.4848
 3683TIP3    H232541   3.353   2.405  24.823 -0.2403 -0.5566 -0.6565
 3684TIP3   OH232542   1.951   1.567  34.728 -0.4535 -0.4210  0.3170
 3684TIP3    H132543   2.033   1.606  34.698 -0.8190 -1.1420 -1.7553
 3684TIP3    H232544   1.883   1.630  34.702 -0.6071  0.2403  2.1436
 3685TIP3   OH232545   0.691   0.943  31.522 -0.4409  0.2192 -0.2421
 3685TIP3    H132546   0.630   1.013  31.500  1.9292  2.3424 -0.4260
 3685TIP3    H232547   0.734   0.972  31.602  0.6940 -0.9678 -0.3748
 3686TIP3   OH232548   0.730   2.707   6.899 -0.3066  0.4423  0.1667
 3686TIP3    H132549   0.709   2.786   6.948 -0.3756  2.0630 -2.3007
 3686TIP3    H232550   0.645   2.675   6.867 -0.4894 -1.6513  2.4220
 3687TIP3   OH232551   2.936   1.661   7.211 -0.4974 -0.2590 -0.0187
 3687TIP3    H132552   2.984   1.600   7.156 -0.6197  1.1050 -1.6990
 3687TIP3    H232553   2.999   1.728   7.234 -0.6460 -0.4208  0.9273
 3688TIP3   OH232554   0.581   3.962  23.319  0.1560  0.5075  0.1614
 3688TIP3    H132555   0.561   3.869  23.329  0.4461  0.0244 -2.6920
 3688TIP3    H232556   0.671   3.964  23.285  0.2253  1.8333  0.3538
 3689TIP3   OH232557   1.407   1.426  27.100 -0.5864  0.9202  0.3580
 3689TIP3    H132558   1.320   1.414  27.138 -0.5136  0.2569  0.3267
 3689TIP3    H232559   1.390   1.434  27.006 -0.5178 -0.5556  0.1977
 3690TIP3   OH232560   2.445   3.662  41.149  0.4143  0.1578  0.3307
 3690TIP3    H132561   2.510   3.677  41.218  1.1756  1.7318 -0.6826
 3690TIP3    H232562   2.375   3.725  41.169 -1.3565 -2.1615  1.9699
 3691TIP3   OH232563   2.179   0.241  30.420  0.6918  0.0517 -0.1022
 3691TIP3    H132564   2.110   0.254  30.355  0.6421 -0.4499 -0.1540
 3691TIP3    H232565   2.168   0.151  30.449 -1.3947  1.1056  3.0174
 3692TIP3   OH232566   1.635   0.869   8.647  0.8744 -0.1246 -0.1576
 3692TIP3    H132567   1.640   0.787   8.695  2.1373  0.1692  0.2348
 3692TIP3    H232568   1.578   0.925   8.700 -1.3530 -1.2352 -1.2254
 3693TIP3   OH232569   2.858   2.681   0.945  0.0688 -0.1330  0.9144
 3693TIP3    H132570   2.936   2.674   1.000  1.3006 -0.2822 -0.7934
 3693TIP3    H232571   2.818   2.594   0.949  1.0182 -0.6082  0.3546
 3694TIP3   OH232572   3.714   0.508  29.962  0.0952  0.2941  0.5251
 3694TIP3    H132573   3.661   0.435  29.994 -1.0876  1.3133  0.9478
 3694TIP3    H232574   3.764   0.537  30.038  1.0592 -0.4576  0.2037
 3695TIP3   OH232575   1.963   0.844   1.824  0.5821  0.0231  0.3988
 3695TIP3    H132576   1.909   0.828   1.902 -0.4951  1.4264 -0.0256
 3695TIP3    H232577   2.003   0.929   1.839 -0.8098  1.0273 -1.1640
 3696TIP3   OH232578   3.136   2.956  41.580  0.1933  0.0620 -0.4238
 3696TIP3    H132579   3.062   3.003  41.542 -1.1425 -1.2351  0.4581
 3696TIP3    H232580   3.098   2.906  41.652  1.8289 -1.1268 -0.3277
 3697TIP3   OH232581   0.056   0.236   7.834  0.2031 -0.1078 -0.0357
 3697TIP3    H132582   0.108   0.276   7.903  0.0829 -0.0603  0.0277
 3697TIP3    H232583   0.054   0.302   7.764  0.2948 -0.1418 -0.0711
 3698TIP3   OH232584   3.859   0.611  35.315 -0.2408  0.2527 -0.5670
 3698TIP3    H132585   3.791   0.667  35.352 -2.0265 -1.7048 -0.7218
 3698TIP3    H232586   3.833   0.600  35.223  0.7961  0.1852 -0.8637
 3699TIP3   OH232587   3.076   0.938  41.327  0.1164  0.2313  0.1963
 3699TIP3    H132588   2.985   0.908  41.334  0.3317 -0.5651 -0.2242
 3699TIP3    H232589   3.124   0.883  41.390  0.4854 -0.1593 -0.4167
 3700TIP3   OH232590   2.029   2.198  11.580 -0.4672  0.4256  0.3296
 3700TIP3    H132591   1.972   2.254  11.633 -1.1156  0.9898 -0.9194
 3700TIP3    H232592   1.979   2.182  11.500  0.7622  0.1768 -0.4132
 3701TIP3   OH232593   1.849   0.067  33.246  0.0287  0.5157  0.4671
 3701TIP3    H132594   1.776   0.010  33.272  0.1446  0.7989  1.4474
 3701TIP3    H232595   1.925   0.030  33.291  0.2207  1.0741  0.6077
 3702TIP3   OH232596   0.521   4.241  28.849  0.1443  0.0180 -0.1714
 3702TIP3    H132597   0.444   4.225  28.794  0.5694  1.9259 -1.4442
 3702TIP3    H232598   0.594   4.206  28.797  0.2217 -1.3825  0.8312
 3703TIP3   OH232599   1.637   3.240   0.456  0.1113  0.4906 -0.1416
 3703TIP3    H132600   1.548   3.227   0.423  0.8009  2.9055 -3.5110
 3703TIP3    H232601   1.628   3.305   0.526 -0.8672 -0.1696  0.3520
 3704TIP3   OH232602   2.321   1.238  32.345  0.0976  0.5264  0.5241
 3704TIP3    H132603   2.376   1.314  32.362 -0.3904  0.9100  0.4112
 3704TIP3    H232604   2.235   1.274  32.323 -0.1545 -0.0552  0.5118
 3705TIP3   OH232605   3.546   3.727  36.517 -0.2094 -0.1938  0.0583
 3705TIP3    H132606   3.459   3.767  36.509 -0.0033  0.1977 -0.2525
 3705TIP3    H232607   3.556   3.674  36.438  0.4233  0.9334 -0.6515
 3706TIP3   OH232608   0.646   0.853   6.743  0.0653  0.3971  0.2632
 3706TIP3    H132609   0.714   0.787   6.728 -1.2265 -0.7203 -0.8703
 3706TIP3    H232610   0.590   0.814   6.810 -0.1924  0.7568  0.2578
 3707TIP3   OH232611   0.278   2.869   1.624  0.5002 -0.0065 -0.6286
 3707TIP3    H132612   0.214   2.921   1.576  0.0734 -1.2914 -1.4900
 3707TIP3    H232613   0.238   2.855   1.710  0.2304  0.3242 -0.6987
 3708TIP3   OH232614   0.012   3.995   1.016  0.6654  0.0065 -0.4907
 3708TIP3    H132615  -0.017   4.007   1.106 -0.6844 -0.5858 -0.8233
 3708TIP3    H232616  -0.069   3.998   0.964  1.3450 -0.3656 -1.6020
 3709TIP3   OH232617   1.165   3.121  29.627  0.8295 -0.0937 -0.2472
 3709TIP3    H132618   1.185   3.206  29.664  1.8331 -0.6427  0.5032
 3709TIP3    H232619   1.083   3.135  29.579  1.0926  1.3304 -0.3309
 3710TIP3   OH232620   1.179   2.215  13.853  0.4190  0.5581  0.2406
 3710TIP3    H132621   1.226   2.160  13.915  0.0431 -1.4982 -1.1859
 3710TIP3    H232622   1.087   2.190  13.864  0.4808 -1.0838 -2.1552
 3711TIP3   OH232623   0.843   3.703  14.036  0.1104 -0.4770 -0.5181
 3711TIP3    H132624   0.901   3.703  13.960 -1.0259  0.5842 -1.4171
 3711TIP3    H232625   0.871   3.627  14.088  2.3654  0.0413 -0.8537
 3712TIP3   OH232626   2.367   3.861  28.384 -0.0193  0.0837 -0.0073
 3712TIP3    H132627   2.287   3.812  28.367  0.4985 -1.6984  2.1949
 3712TIP3    H232628   2.337   3.946  28.415 -1.0362 -0.3204  0.1423
 3713TIP3   OH232629   3.132   2.923   6.024 -0.0104  0.6155 -0.4575
 3713TIP3    H132630   3.208   2.955   5.976  0.5018 -1.4393 -1.0797
 3713TIP3    H232631   3.092   2.859   5.966 -0.9309  0.0344  0.7857
 3714TIP3   OH232632   2.236   2.667  41.069  0.0352 -0.1873 -0.1962
 3714TIP3    H132633   2.250   2.718  41.149 -0.7338  0.5184 -0.5018
 3714TIP3    H232634   2.202   2.730  41.005 -0.1375 -0.9079 -0.8342
 3715TIP3   OH232635   0.509   2.472  30.661 -0.1022 -0.0280 -0.1187
 3715TIP3    H132636   0.454   2.549  30.674  0.3144  0.2333  0.1036
 3715TIP3    H232637   0.452   2.409  30.617 -0.3910  0.4741 -0.4707
 3716TIP3   OH232638   3.626   2.849  12.164 -0.0773  0.3928  0.1268
 3716TIP3    H132639   3.561   2.919  12.163 -0.1760  0.3089 -0.8884
 3716TIP3    H232640   3.646   2.834  12.071  0.2430 -0.6433  0.3493
 3717TIP3   OH232641   4.132   3.002  10.971 -0.1480  0.0243 -0.3879
 3717TIP3    H132642   4.207   3.003  11.030 -0.3758 -1.3687 -0.0284
 3717TIP3    H232643   4.103   3.093  10.966  1.9196  0.7006 -1.0340
 3718TIP3   OH232644   0.836   3.803   8.424  0.0331 -0.1243 -0.4882
 3718TIP3    H132645   0.820   3.758   8.341 -1.2215  0.9780 -0.8766
 3718TIP3    H232646   0.877   3.886   8.399 -0.8954  0.4743 -0.0726
 3719TIP3   OH232647   1.347   2.926  29.622 -0.0828  0.4979  0.1554
 3719TIP3    H132648   1.389   2.933  29.707  0.6646  1.2182 -0.2557
 3719TIP3    H232649   1.280   2.994  29.622  0.3703  0.9525 -0.0707
 3720TIP3   OH232650   1.981   2.108  39.278 -0.1496  0.2827 -0.4015
 3720TIP3    H132651   1.995   2.142  39.190 -0.2907  0.4877 -0.3448
 3720TIP3    H232652   2.053   2.046  39.291 -0.9036 -0.8122 -1.2019
 3721TIP3   OH232653   4.341   4.088  30.144 -0.3377  0.4486  0.1387
 3721TIP3    H132654   4.302   4.137  30.072 -0.6489  0.0606  0.0404
 3721TIP3    H232655   4.435   4.106  30.137 -0.2874 -0.0903 -0.7601
 3722TIP3   OH232656   1.602   2.661  27.878  0.4302  0.2939 -0.3138
 3722TIP3    H132657   1.628   2.678  27.968 -1.3502  0.0639  0.2910
 3722TIP3    H232658   1.672   2.699  27.825  1.0653  1.2416  1.1445
 3723TIP3   OH232659   3.721   2.530  37.220  0.1223  0.1383  0.2288
 3723TIP3    H132660   3.627   2.516  37.230 -0.0310 -1.8095 -2.7528
 3723TIP3    H232661   3.728   2.593  37.148  1.0902  0.0196  0.2047
 3724TIP3   OH232662   0.881   0.878   1.061 -0.2188  0.0166  0.1139
 3724TIP3    H132663   0.879   0.783   1.057  0.1237  0.0397 -3.2971
 3724TIP3    H232664   0.974   0.901   1.054 -0.3852  0.6156 -0.2191
 3725TIP3   OH232665   0.223   3.545  10.054  0.3113  0.1551 -0.1615
 3725TIP3    H132666   0.178   3.524  10.135 -0.8483  0.1923 -0.7729
 3725TIP3    H232667   0.192   3.479   9.991 -1.2955  1.9549 -1.3899
 3726TIP3   OH232668   3.047   0.245   4.440 -0.4980  0.1680 -0.0175
 3726TIP3    H132669   3.027   0.250   4.347  2.0627 -0.0363 -0.6507
 3726TIP3    H232670   3.108   0.317   4.455  0.8964 -1.1588  0.9592
 3727TIP3   OH232671   0.268   1.447   5.153 -1.0261  0.2285 -0.4555
 3727TIP3    H132672   0.325   1.523   5.141 -1.3257  0.7056  0.9846
 3727TIP3    H232673   0.324   1.381   5.194 -1.2650  0.3794  0.1238
 3728TIP3   OH232674   3.966   2.137   5.526 -0.0851 -0.5514  0.7264
 3728TIP3    H132675   3.948   2.209   5.587  3.3243  0.1027  1.1878
 3728TIP3    H232676   3.881   2.117   5.486 -1.8528  1.2132  3.2537
 3729TIP3   OH232677   3.287   3.406   2.440 -0.7612  0.1118 -0.5199
 3729TIP3    H132678   3.352   3.419   2.371  0.1748  0.2060  0.3564
 3729TIP3    H232679   3.207   3.445   2.404 -0.4156 -0.2298 -1.7173
 3730TIP3   OH232680   1.055   0.501  36.480  0.1307 -0.2615 -0.6756
 3730TIP3    H132681   1.080   0.533  36.393 -1.4509  2.2395 -0.3004
 3730TIP3    H232682   0.976   0.550  36.502 -0.2378 -1.7458  1.6857
 3731TIP3   OH232683   3.247   3.935   2.848  0.2776  0.9758  0.3059
 3731TIP3    H132684   3.311   3.920   2.918  0.4390 -0.3663 -0.1050
 3731TIP3    H232685   3.207   3.849   2.834  0.6940  1.0682 -1.6839
 3732TIP3   OH232686   1.015   1.263   4.732  0.2968 -0.0252 -0.7467
 3732TIP3    H132687   0.985   1.240   4.820 -2.0660 -0.4438 -1.5968
 3732TIP3    H232688   1.032   1.179   4.690  0.7852  0.1556 -0.9162
 3733TIP3   OH232689   1.903   2.459  32.037 -0.5022  0.5045 -0.4014
 3733TIP3    H132690   1.834   2.402  32.002  1.7221 -1.5558 -1.6755
 3733TIP3    H232691   1.934   2.414  32.115 -0.3393  1.2493 -0.0306
 3734TIP3   OH232692   3.910   0.067  27.658  0.4126  0.3163  0.2350
 3734TIP3    H132693   3.840   0.053  27.594  1.1016  1.2358 -0.7649
 3734TIP3    H232694   3.882   0.019  27.735  0.3003 -2.1641 -1.2603
 3735TIP3   OH232695   1.830   2.471  30.143 -0.0017  0.2309 -0.0064
 3735TIP3    H132696   1.871   2.421  30.213  1.0326  1.2624  0.1448
 3735TIP3    H232697   1.786   2.405  30.089  0.7268 -0.7538  0.5834
 3736TIP3   OH232698   1.905   3.581  30.633 -0.5699  0.0173 -0.0957
 3736TIP3    H132699   1.927   3.651  30.694  1.5673  0.0270 -0.8090
 3736TIP3    H232700   1.875   3.509  30.689  0.4986  0.3318  0.9293
 3737TIP3   OH232701   0.385   0.988  27.823  0.5125  0.0712  0.0240
 3737TIP3    H132702   0.415   0.900  27.801 -1.8386 -0.5246 -1.1824
 3737TIP3    H232703   0.463   1.033  27.855  2.1644 -1.8975 -0.9831
 3738TIP3   OH232704   1.522   2.342   3.786  0.3543 -0.0639  0.1649
 3738TIP3    H132705   1.564   2.378   3.708  0.8979 -2.0203 -0.5033
 3738TIP3    H232706   1.481   2.261   3.755 -1.1657  0.1494  1.5061
 3739TIP3   OH232707   2.859   1.941   3.046  0.1330 -0.1078 -0.0343
 3739TIP3    H132708   2.878   1.959   2.954  0.2446 -1.1649 -0.2284
 3739TIP3    H232709   2.807   2.016   3.075  3.4213  2.3354  0.1694
 3740TIP3   OH232710   1.688   1.330  28.028  0.5450  0.1124  0.4533
 3740TIP3    H132711   1.722   1.318  28.116 -0.5840  0.7159  0.9980
 3740TIP3    H232712   1.688   1.424  28.014 -0.3584  0.1005  0.2730
 3741TIP3   OH232713   2.125   1.530   6.260  0.0938 -0.0796  0.5020
 3741TIP3    H132714   2.179   1.589   6.207  0.4729  0.4025  1.4004
 3741TIP3    H232715   2.119   1.450   6.208 -0.8947  0.9199 -0.9939
 3742TIP3   OH232716   2.942   1.819  28.385 -0.1124  0.1365 -0.1757
 3742TIP3    H132717   2.896   1.843  28.304 -1.1228 -1.8278 -0.2582
 3742TIP3    H232718   2.888   1.854  28.455 -0.7642 -0.5367 -0.3220
 3743TIP3   OH232719   0.753   4.099  27.325  0.5780 -0.5590 -0.3617
 3743TIP3    H132720   0.746   4.189  27.355  0.4133 -0.2291 -1.3576
 3743TIP3    H232721   0.680   4.088  27.264  1.0902 -1.1120 -0.8916
 3744TIP3   OH232722   3.639   3.220  26.826 -0.1463 -0.2257  0.2279
 3744TIP3    H132723   3.553   3.254  26.851 -0.4885  0.7081 -2.0116
 3744TIP3    H232724   3.697   3.296  26.833 -0.2479  0.0626 -1.6090
 3745TIP3   OH232725   1.452   1.966   3.451  0.5936  0.0719 -0.5205
 3745TIP3    H132726   1.444   1.905   3.378  2.1670 -0.7897 -0.0017
 3745TIP3    H232727   1.445   2.053   3.410 -0.1620 -0.4042 -1.4562
 3746TIP3   OH232728   0.680   1.403   1.791  0.2068 -0.0150  0.4785
 3746TIP3    H132729   0.661   1.372   1.703  0.9717 -1.7150  0.8772
 3746TIP3    H232730   0.709   1.494   1.778  0.4647 -0.2811 -1.0356
 3747TIP3   OH232731   0.398   3.180  39.626 -0.8428 -0.2159  0.1831
 3747TIP3    H132732   0.322   3.235  39.643 -1.2723 -0.1296 -1.7948
 3747TIP3    H232733   0.461   3.238  39.585 -0.1106 -0.5264  0.8470
 3748TIP3   OH232734   3.879   4.020  28.162 -0.4998 -0.1845 -0.1133
 3748TIP3    H132735   3.862   3.983  28.249 -2.6009  1.7322  0.3844
 3748TIP3    H232736   3.849   3.952  28.101 -1.2968 -0.6058  0.7174
 3749TIP3   OH232737   3.581   3.037   9.175 -0.1447  0.2022 -0.5247
 3749TIP3    H132738   3.494   2.998   9.185 -0.2054  0.1984 -1.0319
 3749TIP3    H232739   3.563   3.126   9.143  0.0730 -0.3924 -2.4293
 3750TIP3   OH232740   1.345   4.099   9.841  0.4614 -0.5519  0.1872
 3750TIP3    H132741   1.414   4.121   9.904  0.8525 -0.5405 -0.2405
 3750TIP3    H232742   1.390   4.096   9.756 -0.0557 -0.5874 -0.0894
 3751TIP3   OH232743   1.413   0.149   0.678  0.5444 -0.6049  0.0529
 3751TIP3    H132744   1.370   0.219   0.728 -2.0715 -1.4238 -0.8553
 3751TIP3    H232745   1.465   0.102   0.743  0.8061  0.9920  1.0652
 3752TIP3   OH232746   0.280   3.104  34.254 -0.1887  0.3206 -0.8051
 3752TIP3    H132747   0.344   3.160  34.208  0.9036  0.9894  1.3975
 3752TIP3    H232748   0.214   3.165  34.287  1.2201  0.4791  1.9611
 3753TIP3   OH232749   4.058   1.970  33.950 -0.2893 -0.4555 -0.0189
 3753TIP3    H132750   3.997   1.943  33.881  2.0336 -0.6310 -2.1314
 3753TIP3    H232751   4.116   1.895  33.962 -0.3511 -0.2597  1.8765
 3754TIP3   OH232752   2.114   4.388  12.946  0.0972  0.5214 -0.8456
 3754TIP3    H132753   2.159   4.462  12.905  0.3928  0.3587 -0.8206
 3754TIP3    H232754   2.022   4.400  12.923  0.2149  0.6068 -1.2920
 3755TIP3   OH232755   4.255   4.363  37.815 -0.1757  0.0952 -0.7642
 3755TIP3    H132756   4.319   4.311  37.863  0.8665  0.0052 -2.1871
 3755TIP3    H232757   4.293   4.451  37.811 -0.6802  0.3219 -0.6521
 3756TIP3   OH232758   2.906   3.753   7.777  0.5495  0.0528 -0.6067
 3756TIP3    H132759   2.848   3.698   7.725 -1.3716 -0.7630  2.1733
 3756TIP3    H232760   2.994   3.726   7.751 -0.2613 -0.2838 -3.3277
 3757TIP3   OH232761   0.411   0.309   3.076  0.0165  0.2822  0.1381
 3757TIP3    H132762   0.330   0.289   3.123 -0.9098 -0.6048 -1.7440
 3757TIP3    H232763   0.475   0.248   3.113 -0.8283 -0.7778 -0.0776
 3758TIP3   OH232764   0.263   0.588  26.189  0.7025 -0.1335 -0.1740
 3758TIP3    H132765   0.233   0.679  26.197  0.2411 -0.2433 -0.5929
 3758TIP3    H232766   0.299   0.566  26.275  1.5454  0.7018 -0.2886
 3759TIP3   OH232767   1.796   1.763   2.546 -0.2283  0.0830  0.0481
 3759TIP3    H132768   1.720   1.816   2.523 -1.3652 -0.8216  1.5242
 3759TIP3    H232769   1.765   1.673   2.539  0.3585 -0.2776  1.6874
 3760TIP3   OH232770   3.320   0.517  31.648 -0.0208  0.3594  0.3847
 3760TIP3    H132771   3.293   0.602  31.684  1.2573  0.7010  0.6053
 3760TIP3    H232772   3.403   0.536  31.604 -0.6639 -0.4018 -1.2377
 3761TIP3   OH232773   2.355   2.174   5.047 -0.3412  0.3877  0.0900
 3761TIP3    H132774   2.412   2.242   5.084  0.2809  0.6018 -1.2114
 3761TIP3    H232775   2.409   2.130   4.982 -0.6081 -1.6237  1.1410
 3762TIP3   OH232776   3.309   4.277  41.037 -0.8224 -0.1700 -0.1346
 3762TIP3    H132777   3.249   4.220  40.988 -0.2655 -2.0216  1.2146
 3762TIP3    H232778   3.302   4.245  41.128  0.0122  1.5276  0.5518
 3763TIP3   OH232779   0.652   3.420   7.167 -0.0194  0.6883  0.4480
 3763TIP3    H132780   0.611   3.459   7.244  0.1957  0.9510  0.4313
 3763TIP3    H232781   0.612   3.465   7.093 -2.5553 -1.6960  0.2134
 3764TIP3   OH232782   1.954   3.959  33.864  0.0058 -0.6648 -0.2190
 3764TIP3    H132783   1.940   4.043  33.821  1.0043 -0.0529  0.6250
 3764TIP3    H232784   1.874   3.944  33.914  0.8863  1.1477  1.8447
 3765TIP3   OH232785   2.380   1.443   9.468 -0.1729  0.2956 -0.5598
 3765TIP3    H132786   2.385   1.441   9.564  1.4600 -0.5653 -0.6280
 3765TIP3    H232787   2.287   1.460   9.450 -0.1151  3.0636  1.1534
 3766TIP3   OH232788   4.300   2.410  23.227  0.1658  0.1101  0.4346
 3766TIP3    H132789   4.324   2.360  23.148 -1.1414  0.4727 -0.2168
 3766TIP3    H232790   4.370   2.390  23.290  1.6899  0.4434 -1.0667
 3767TIP3   OH232791   2.264   1.424  38.851  0.7555  0.6562  0.5040
 3767TIP3    H132792   2.287   1.495  38.911  1.2788 -0.7170  2.0003
 3767TIP3    H232793   2.320   1.352  38.877 -0.4721 -0.6344 -0.3015
 3768TIP3   OH232794   1.217   1.312  38.383  0.2643 -0.4701  0.5455
 3768TIP3    H132795   1.249   1.222  38.385  0.7343 -0.4136 -1.7253
 3768TIP3    H232796   1.269   1.358  38.450  1.6109 -1.4185  0.1970
 3769TIP3   OH232797   3.385   0.441  33.817  0.2120 -0.3950  0.1519
 3769TIP3    H132798   3.319   0.476  33.756 -0.1535 -1.0850  0.1430
 3769TIP3    H232799   3.440   0.386  33.762  0.4286 -0.3026  0.2791
 3770TIP3   OH232800   0.570   2.639   6.531 -0.3378 -0.6902  0.1783
 3770TIP3    H132801   0.654   2.684   6.520 -1.1497  0.8952  0.3410
 3770TIP3    H232802   0.570   2.571   6.463  0.3777  0.3530 -0.8935
 3771TIP3   OH232803   2.327   1.477  11.023 -0.2075 -0.4758 -0.4502
 3771TIP3    H132804   2.330   1.430  11.106  0.6330 -2.0855 -1.3332
 3771TIP3    H232805   2.389   1.549  11.034  0.6884 -1.2848 -0.0022
 3772TIP3   OH232806   2.528   3.961   0.783 -0.5790 -0.3326  0.2072
 3772TIP3    H132807   2.581   3.925   0.854 -0.7098 -0.4590  0.2403
 3772TIP3    H232808   2.540   3.900   0.711 -1.2293 -0.7349  0.4356
 3773TIP3   OH232809   0.114   2.732   6.822  0.3065  0.2085  0.3432
 3773TIP3    H132810   0.175   2.746   6.894 -2.1686  1.5541  2.3247
 3773TIP3    H232811   0.129   2.806   6.763  1.8408 -0.5204 -0.2652
 3774TIP3   OH232812   1.843   2.178  34.786 -0.3805  0.4186  0.3461
 3774TIP3    H132813   1.770   2.232  34.758  0.9330  1.5374 -1.0942
 3774TIP3    H232814   1.919   2.236  34.783  0.7631 -0.9811  0.7227
 3775TIP3   OH232815   3.573   0.529  11.006 -1.0601 -0.2316  0.3330
 3775TIP3    H132816   3.649   0.472  10.994 -0.5806 -0.2492  2.8871
 3775TIP3    H232817   3.586   0.601  10.945 -0.3447 -1.5264 -1.1021
 3776TIP3   OH232818   1.092   3.872  28.110  0.0465 -0.0675  0.4950
 3776TIP3    H132819   1.081   3.846  28.018 -1.8577 -3.2057  1.4324
 3776TIP3    H232820   1.005   3.902  28.136  0.6688  1.1551  1.1912
 3777TIP3   OH232821   2.187   3.828   5.213 -0.0431  0.6108 -0.1112
 3777TIP3    H132822   2.185   3.774   5.292  0.9342  0.4442 -0.1973
 3777TIP3    H232823   2.262   3.886   5.226  0.1167  0.5877 -0.9110
 3778TIP3   OH232824   3.544   3.607  37.496  0.5074  0.4084 -0.0574
 3778TIP3    H132825   3.554   3.512  37.490  0.5338  0.4971 -2.1589
 3778TIP3    H232826   3.633   3.641  37.491  0.3907  0.5809 -1.4339
 3779TIP3   OH232827   4.004   4.133  31.330  0.2365 -0.2592  0.1519
 3779TIP3    H132828   4.038   4.208  31.281  0.9594  0.5485  1.8175
 3779TIP3    H232829   4.075   4.069  31.329  0.5254  0.0441  0.7187
 3780TIP3   OH232830   4.153   1.677   2.728 -0.6414  0.0062 -0.1696
 3780TIP3    H132831   4.186   1.680   2.638  1.1630  0.8160  0.4608
 3780TIP3    H232832   4.178   1.590   2.758  1.1316  0.6539  0.3375
 3781TIP3   OH232833   3.760   0.185   2.893 -0.2087  0.1962  0.2644
 3781TIP3    H132834   3.693   0.149   2.951  1.2263 -1.2599  1.1008
 3781TIP3    H232835   3.710   0.222   2.819 -1.9879  0.5974  1.5890
 3782TIP3   OH232836   1.782   1.360  36.153 -0.1358 -0.1275  0.2670
 3782TIP3    H132837   1.836   1.437  36.136 -0.6714  0.4708  1.1584
 3782TIP3    H232838   1.844   1.287  36.156  0.4878  0.3956  0.2287
 3783TIP3   OH232839   2.125   2.406  39.990 -0.3032 -0.5203 -0.0224
 3783TIP3    H132840   2.118   2.312  39.973 -1.2325 -0.4952  0.1740
 3783TIP3    H232841   2.152   2.413  40.081 -2.4879 -0.6117  0.6991
 3784TIP3   OH232842   2.324   0.225   6.475  0.8591 -0.4156  0.6514
 3784TIP3    H132843   2.316   0.174   6.395 -0.0810  0.8451 -0.0740
 3784TIP3    H232844   2.403   0.278   6.463 -1.2526  2.5837 -1.1429
 3785TIP3   OH232845   0.740   3.045   7.941  0.0999  0.0604 -0.2999
 3785TIP3    H132846   0.682   3.037   8.016  0.2314 -0.8464 -0.2863
 3785TIP3    H232847   0.756   3.139   7.933  1.8576  0.0431  2.1626
 3786TIP3   OH232848   2.612   0.414   3.446  0.3674  0.4195  0.3091
 3786TIP3    H132849   2.551   0.468   3.497  0.6237  2.2552 -1.2209
 3786TIP3    H232850   2.662   0.365   3.511  0.6001  2.5646  1.8252
 3787TIP3   OH232851   3.300   0.444  38.482  0.2898 -0.3044  0.2092
 3787TIP3    H132852   3.378   0.475  38.436 -0.8193  0.6416 -1.1802
 3787TIP3    H232853   3.234   0.437  38.413  0.0075 -4.4837  0.6856
 3788TIP3   OH232854   3.117   1.498   1.426 -0.3209  0.0141 -0.4478
 3788TIP3    H132855   3.112   1.513   1.332 -0.1152  1.9608 -0.1926
 3788TIP3    H232856   3.034   1.532   1.460 -0.8075 -1.5545 -0.0022
 3789TIP3   OH232857   3.284   1.747  12.261 -0.8401  0.4037  0.4193
 3789TIP3    H132858   3.234   1.781  12.335 -2.4466 -0.4982 -0.2060
 3789TIP3    H232859   3.269   1.653  12.263  2.3259 -0.1946  1.2374
 3790TIP3   OH232860   1.208   0.136  30.515  0.7244  0.3367  0.5642
 3790TIP3    H132861   1.296   0.171  30.531  1.7281 -1.1296 -1.3212
 3790TIP3    H232862   1.187   0.086  30.594  1.9039  0.1115  0.7490
 3791TIP3   OH232863   2.672   4.082  13.048 -0.3102 -0.1441 -0.3590
 3791TIP3    H132864   2.649   4.011  12.989  0.1147 -0.1111 -0.5677
 3791TIP3    H232865   2.698   4.039  13.129 -0.3673 -0.2096 -0.3756
 3792TIP3   OH232866   0.298   2.297  26.641 -0.2132 -0.3126 -0.3882
 3792TIP3    H132867   0.297   2.368  26.705 -0.7070  0.1915 -0.9397
 3792TIP3    H232868   0.246   2.228  26.682 -0.4258 -0.0386 -0.1854
 3793TIP3   OH232869   1.643   0.283  33.212  0.0124 -0.2034 -0.5708
 3793TIP3    H132870   1.710   0.222  33.243 -0.4388 -1.3807 -1.8290
 3793TIP3    H232871   1.653   0.284  33.117 -0.4236  1.2015 -0.6258
 3794TIP3   OH232872   4.296   1.203  40.169 -0.9863 -0.1534  0.0953
 3794TIP3    H132873   4.332   1.139  40.230 -0.1698 -1.1003 -1.3187
 3794TIP3    H232874   4.370   1.260  40.147 -1.2687  0.1718 -0.0281
 3795TIP3   OH232875   3.254   0.455  31.926  0.0985  0.3354  0.0533
 3795TIP3    H132876   3.341   0.477  31.959  0.1352 -0.1892  0.3252
 3795TIP3    H232877   3.232   0.526  31.865  1.3717 -0.3275 -1.2283
 3796TIP3   OH232878   0.927   2.208  27.502 -0.0652 -0.0833  0.1290
 3796TIP3    H132879   0.843   2.203  27.456  0.4725  0.7933 -1.0114
 3796TIP3    H232880   0.933   2.300  27.530  0.9578  0.1449 -0.7432
 3797TIP3   OH232881   2.811   3.756   4.847 -0.0463  0.2066 -0.3127
 3797TIP3    H132882   2.904   3.768   4.869 -0.3963 -0.4897  1.7077
 3797TIP3    H232883   2.800   3.805   4.765  2.3814 -0.7476 -1.3174
 3798TIP3   OH232884   3.738   3.046   7.808  0.7185 -0.1867 -0.6039
 3798TIP3    H132885   3.658   3.069   7.854  0.9747  1.4249 -0.9128
 3798TIP3    H232886   3.714   2.970   7.754  0.0844 -1.2732  1.1173
 3799TIP3   OH232887   1.330   3.346  33.742 -0.5706 -0.1277  0.2967
 3799TIP3    H132888   1.411   3.331  33.694 -0.4646  0.7181  0.1914
 3799TIP3    H232889   1.267   3.374  33.676 -0.0327  2.4790  0.7692
 3800TIP3   OH232890   3.035   4.360   9.429  0.2934 -0.5690 -0.3859
 3800TIP3    H132891   3.126   4.389   9.433  0.0204  0.3582 -0.7138
 3800TIP3    H232892   2.984   4.435   9.460 -0.3751 -1.0206 -0.3687
 3801TIP3   OH232893   1.903   0.912  34.402  0.1072  0.0617  0.1260
 3801TIP3    H132894   1.926   1.001  34.374 -0.7063  0.0267 -0.6782
 3801TIP3    H232895   1.835   0.885  34.341 -0.6376 -0.5942  1.2304
 3802TIP3   OH232896   3.380   0.680   4.059 -0.6685 -0.1136  0.4083
 3802TIP3    H132897   3.324   0.613   4.022 -1.6583  0.5417  0.6884
 3802TIP3    H232898   3.424   0.637   4.133 -0.0082 -0.9165 -0.4248
 3803TIP3   OH232899   2.150   1.667  11.610  0.1800  0.1860 -0.2605
 3803TIP3    H132900   2.157   1.757  11.643 -1.2318 -0.3610  1.6106
 3803TIP3    H232901   2.240   1.633  11.616  0.6778  1.3423 -0.7228
 3804TIP3   OH232902   4.306   3.461  39.332 -0.1607  0.5940 -0.0165
 3804TIP3    H132903   4.350   3.396  39.387 -1.0373 -0.8661 -0.9666
 3804TIP3    H232904   4.273   3.410  39.258  1.2122  2.5171 -2.0653
 3805TIP3   OH232905   2.964   1.781   6.897  0.4251  0.5827 -0.4907
 3805TIP3    H132906   2.876   1.749   6.878  1.5796 -2.6002 -1.0178
 3805TIP3    H232907   2.983   1.750   6.985  1.3913  0.3677 -0.7682
 3806TIP3   OH232908   3.060   3.218  31.639 -0.0835  0.2079 -0.0399
 3806TIP3    H132909   3.033   3.300  31.680 -0.3710  0.8589 -1.4462
 3806TIP3    H232910   3.098   3.167  31.710  1.1753  2.0211  0.6822
 3807TIP3   OH232911   2.623   0.429  39.718  0.3122 -0.5462  0.4482
 3807TIP3    H132912   2.691   0.459  39.778 -0.3024 -0.2239  1.0027
 3807TIP3    H232913   2.541   0.451  39.762 -0.1555 -0.5924 -0.3736
 3808TIP3   OH232914   1.115   3.481   7.135 -0.0207  0.2467  0.4032
 3808TIP3    H132915   1.118   3.392   7.169  3.1096  1.1876  3.0976
 3808TIP3    H232916   1.152   3.475   7.047 -0.1631 -1.1607  0.4259
 3809TIP3   OH232917   2.550   2.952   9.637  0.0094 -0.1751  0.3859
 3809TIP3    H132918   2.599   3.032   9.619  0.0187 -0.3051 -0.1903
 3809TIP3    H232919   2.460   2.973   9.614 -0.3535  0.2926  2.1346
 3810TIP3   OH232920   0.853   2.047  39.653 -0.1209 -0.0473  0.2772
 3810TIP3    H132921   0.908   1.978  39.689 -1.5609 -1.5907 -0.3345
 3810TIP3    H232922   0.890   2.065  39.566 -0.4571 -0.9684 -0.0706
 3811TIP3   OH232923   1.734   1.860  15.908  0.0168  0.4002  0.2496
 3811TIP3    H132924   1.713   1.782  15.960  0.1374  0.6480  0.6745
 3811TIP3    H232925   1.694   1.843  15.822  0.7994 -0.5205  0.0487
 3812TIP3   OH232926   0.217   3.880  26.428  0.1605 -0.2564 -0.4230
 3812TIP3    H132927   0.302   3.877  26.473  0.5202  3.8598 -0.3794
 3812TIP3    H232928   0.228   3.950  26.363 -2.7956 -0.5582 -1.3753
 3813TIP3   OH232929   4.071   3.872  21.924 -0.1589 -0.5057 -0.8961
 3813TIP3    H132930   4.046   3.959  21.954 -0.4779 -0.6098 -0.8600
 3813TIP3    H232931   4.163   3.864  21.950 -0.6680 -0.9544  0.9287
 3814TIP3   OH232932   2.209   1.502  35.305  0.1121  0.3504 -0.8109
 3814TIP3    H132933   2.178   1.444  35.374  0.9097  1.6804  0.7297
 3814TIP3    H232934   2.140   1.567  35.295  0.9194  1.4392  0.3457
 3815TIP3   OH232935   4.370   1.558  39.276 -0.1662 -0.1356  0.4544
 3815TIP3    H132936   4.384   1.513  39.359 -0.0290  1.0225  1.0834
 3815TIP3    H232937   4.316   1.498  39.225 -0.2397 -0.8702  1.3711
 3816TIP3   OH232938   0.925   2.138  14.882 -0.6761  0.3233 -0.2411
 3816TIP3    H132939   0.900   2.221  14.924 -1.7007  0.4129 -0.9824
 3816TIP3    H232940   0.899   2.071  14.945 -0.8914  0.5165 -0.1213
 3817TIP3   OH232941   1.011   1.639  41.650 -0.1263 -0.1678  0.1358
 3817TIP3    H132942   0.933   1.604  41.606 -1.5997  0.6138  1.9978
 3817TIP3    H232943   1.083   1.619  41.590 -1.7165 -1.0682 -1.5833
 3818TIP3   OH232944   1.229   0.724   9.986  0.5846 -0.2529  0.2674
 3818TIP3    H132945   1.158   0.662  10.000 -0.3064  0.8952  1.0855
 3818TIP3    H232946   1.185   0.808   9.971  1.7413  0.6971  1.8224
 3819TIP3   OH232947   3.040   1.735   4.920 -0.5450  0.4329  0.0483
 3819TIP3    H132948   2.983   1.801   4.878 -1.9376  1.0985  2.7701
 3819TIP3    H232949   2.987   1.656   4.922 -0.3236  0.2890  0.1620
 3820TIP3   OH232950   3.680   4.063  37.783  0.6417  0.0255 -0.0803
 3820TIP3    H132951   3.709   4.075  37.873 -2.1838  1.5469  0.7280
 3820TIP3    H232952   3.624   3.985  37.785  0.5175  0.0976 -0.5292
 3821TIP3   OH232953   2.232   1.766  40.668 -0.1226  0.2053  0.4801
 3821TIP3    H132954   2.238   1.826  40.594 -0.2501  0.9395  1.0556
 3821TIP3    H232955   2.229   1.679  40.628  0.5280  0.5510 -0.3450
 3822TIP3   OH232956   1.850   3.586  12.141 -0.3472  0.2591  0.0054
 3822TIP3    H132957   1.893   3.626  12.217  0.7881  1.0515 -1.0304
 3822TIP3    H232958   1.871   3.643  12.068  0.8429 -1.8849 -1.4501
 3823TIP3   OH232959   4.051   0.402  31.319  0.2023 -0.8071 -0.0654
 3823TIP3    H132960   4.021   0.318  31.283 -0.3706 -0.6620  0.0659
 3823TIP3    H232961   4.137   0.415  31.279 -0.3835 -0.6832 -1.3581
 3824TIP3   OH232962   0.840   2.197   0.250  0.1170 -0.3798  0.7425
 3824TIP3    H132963   0.814   2.254   0.322 -0.9317 -1.3152  1.1093
 3824TIP3    H232964   0.889   2.126   0.291  0.2522 -0.4704  0.4321
 3825TIP3   OH232965   2.207   1.770  32.407 -0.4319  0.1236  0.7833
 3825TIP3    H132966   2.269   1.793  32.476 -1.3476 -0.8568  1.9710
 3825TIP3    H232967   2.263   1.753  32.330  0.7015  0.1600  1.5692
 3826TIP3   OH232968   1.878   0.655   3.625 -0.3665  0.4292  0.4483
 3826TIP3    H132969   1.908   0.586   3.685 -1.9158  0.4192  1.2781
 3826TIP3    H232970   1.933   0.730   3.646 -0.3455  0.1798  1.3533
 3827TIP3   OH232971   4.146   1.781   9.477 -1.0635 -0.2113 -0.3174
 3827TIP3    H132972   4.116   1.728   9.403  3.6853 -1.2362 -1.8127
 3827TIP3    H232973   4.144   1.871   9.445  1.7490 -0.7120 -2.2449
 3828TIP3   OH232974   3.806   0.464   8.380  0.2924 -0.9117  0.1562
 3828TIP3    H132975   3.747   0.408   8.329 -0.0766 -0.6129  0.2461
 3828TIP3    H232976   3.807   0.547   8.332 -1.0522 -0.2027  1.2867
 3829TIP3   OH232977   1.034   0.084  35.150 -0.6826 -0.8545 -0.2586
 3829TIP3    H132978   0.969   0.038  35.204 -0.2195  0.1674  1.2266
 3829TIP3    H232979   0.988   0.162  35.119 -0.5245 -0.7271 -0.1713
 3830TIP3   OH232980   3.385   2.221  27.072  0.4410  0.1963  0.1167
 3830TIP3    H132981   3.342   2.248  26.991  1.1889  2.4673  0.3836
 3830TIP3    H232982   3.478   2.217  27.049  0.6115  0.4317  0.7417
 3831TIP3   OH232983   0.836   1.742  17.286 -0.7577  0.3572  0.8669
 3831TIP3    H132984   0.842   1.826  17.331  2.6194  0.8533 -0.2062
 3831TIP3    H232985   0.854   1.677  17.354 -0.8720  0.6687  1.2018
 3832TIP3   OH232986   2.198   3.923  12.476  1.0535 -0.5404 -0.4535
 3832TIP3    H132987   2.108   3.937  12.506  0.6117  0.0091 -1.9265
 3832TIP3    H232988   2.241   4.008  12.490  0.1583  0.5470 -3.4710
 3833TIP3   OH232989   3.922   0.464  27.778  0.1351  0.0017 -0.0847
 3833TIP3    H132990   4.010   0.492  27.755 -1.4720  5.1560 -1.2860
 3833TIP3    H232991   3.875   0.462  27.695 -1.5863  0.4426  0.8302
 3834TIP3   OH232992   3.700   2.550  31.295  0.0209  1.0766  0.1975
 3834TIP3    H132993   3.761   2.477  31.289 -1.9684 -0.5655 -0.9701
 3834TIP3    H232994   3.717   2.588  31.381 -0.2227 -2.0013  1.7188
 3835TIP3   OH232995   1.746   0.294  39.172 -0.7970  0.4331 -0.1292
 3835TIP3    H132996   1.822   0.298  39.229 -1.3265  0.4795  0.5806
 3835TIP3    H232997   1.693   0.370  39.197 -2.0029 -0.6591  0.7190
 3836TIP3   OH232998   3.257   0.850   5.683 -0.8574  0.0571 -0.8006
 3836TIP3    H132999   3.165   0.857   5.660 -1.0059  1.6988  0.1131
 3836TIP3    H233000   3.282   0.939   5.711 -0.4908 -1.3029  4.2480
 3837TIP3   OH233001   1.868   3.158  30.340  0.3577  0.3129  0.2496
 3837TIP3    H133002   1.787   3.121  30.375 -0.3674  1.5384 -0.0619
 3837TIP3    H233003   1.880   3.239  30.389 -0.0174  1.4394 -1.4311
 3838TIP3   OH233004   0.270   1.801  24.817  0.2719  0.5540  0.2769
 3838TIP3    H133005   0.273   1.831  24.726  0.8865  0.1385  0.1501
 3838TIP3    H233006   0.320   1.720  24.816  0.5536  0.7165  1.0531
 3839TIP3   OH233007   4.249   2.881  27.766 -0.2339 -0.4331  0.2455
 3839TIP3    H133008   4.265   2.830  27.686  0.2156 -1.3129  0.8847
 3839TIP3    H233009   4.265   2.820  27.837 -0.0684  0.5041  1.0288
 3840TIP3   OH233010   1.932   0.122  19.130 -0.2270  0.4367 -0.5554
 3840TIP3    H133011   1.933   0.213  19.159 -1.5663  0.4271 -0.3748
 3840TIP3    H233012   1.901   0.125  19.040 -2.0112  0.0853 -0.0044
 3841TIP3   OH233013   0.166   1.001  29.308 -0.1742 -0.1137 -1.0905
 3841TIP3    H133014   0.096   0.937  29.315 -0.0196 -0.3280 -1.4842
 3841TIP3    H233015   0.121   1.085  29.301 -0.3916  0.1645  2.0802
 3842TIP3   OH233016   0.946   3.071  10.024 -0.7284 -0.8522  0.0573
 3842TIP3    H133017   0.981   3.010  10.089 -1.6840 -0.3396  1.0651
 3842TIP3    H233018   0.888   3.017   9.970  0.1311 -1.2973 -0.4442
 3843TIP3   OH233019   3.988   1.828   0.644 -0.1262  0.2776 -0.1153
 3843TIP3    H133020   3.903   1.813   0.601  0.1288  0.8566 -0.8394
 3843TIP3    H233021   4.020   1.910   0.606  1.4154 -0.6449 -0.9081
 3844TIP3   OH233022   3.297   2.904   2.075  0.1566  0.6513  0.6310
 3844TIP3    H133023   3.356   2.869   2.008 -1.4431  0.7957 -0.9222
 3844TIP3    H233024   3.238   2.962   2.027 -1.5041  0.2188  2.0429
 3845TIP3   OH233025   1.689   0.027  13.424 -0.6960 -0.0519 -0.1858
 3845TIP3    H133026   1.627  -0.035  13.385  0.2401 -2.2982  1.6924
 3845TIP3    H233027   1.636   0.080  13.483 -1.1224 -0.7382  0.0535
 3846TIP3   OH233028   2.101   2.865  12.165 -0.0328  0.1271  0.5823
 3846TIP3    H133029   2.186   2.827  12.140 -0.0636  0.7499 -0.5356
 3846TIP3    H233030   2.108   2.880  12.259  1.1972  0.3893  0.4667
 3847TIP3   OH233031   4.022   1.324  31.141 -0.5151 -0.0646  0.1853
 3847TIP3    H133032   3.995   1.305  31.051 -1.7691 -0.2326  0.5822
 3847TIP3    H233033   4.021   1.239  31.185 -2.9278  0.3684  1.1238
 3848TIP3   OH233034   0.226   1.422  12.846  0.3713 -0.1095 -0.2776
 3848TIP3    H133035   0.283   1.476  12.901  0.8637 -1.1222  0.2326
 3848TIP3    H233036   0.200   1.349  12.902  0.3516 -0.8133 -1.1766
 3849TIP3   OH233037   2.368   0.608  12.981  0.1119 -0.2599 -0.2221
 3849TIP3    H133038   2.296   0.618  12.919 -1.5648 -0.3400  1.6097
 3849TIP3    H233039   2.432   0.673  12.954 -0.3626 -0.5806 -2.2581
 3850TIP3   OH233040   4.039   4.358  34.573  0.7796 -0.0491  0.1947
 3850TIP3    H133041   4.115   4.323  34.525  1.0459 -0.2635  0.7603
 3850TIP3    H233042   4.073   4.434  34.619  0.3913  0.4787 -0.3849
 3851TIP3   OH233043   1.555   3.266  30.223  0.0300 -0.5540  0.2666
 3851TIP3    H133044   1.482   3.300  30.274 -0.1102  0.9864 -0.8932
 3851TIP3    H233045   1.624   3.331  30.232 -0.3375  0.3147 -2.2010
 3852TIP3   OH233046   1.789   4.061   8.344 -0.1388  0.1663  0.1272
 3852TIP3    H133047   1.808   4.038   8.253  0.9533 -4.4186  1.2970
 3852TIP3    H233048   1.874   4.060   8.387 -0.8262  0.5407  1.5465
 3853TIP3   OH233049   1.865   4.020   6.111  0.0766 -0.0543  0.1444
 3853TIP3    H133050   1.927   4.017   6.038  0.3959  0.0398  0.4091
 3853TIP3    H233051   1.829   3.931   6.117 -0.4937  0.1136 -0.5879
 3854TIP3   OH233052   1.446   1.458  29.806  0.1710 -0.0700 -0.4983
 3854TIP3    H133053   1.517   1.500  29.855 -1.3809  2.2523 -0.1020
 3854TIP3    H233054   1.489   1.419  29.730  1.9575  0.5809  0.1296
 3855TIP3   OH233055   1.284   2.826  36.562 -0.1114 -0.3529  0.3801
 3855TIP3    H133056   1.296   2.731  36.564 -0.0608 -0.3443  0.5398
 3855TIP3    H233057   1.232   2.845  36.640  0.4730 -0.1723  0.7382
 3856TIP3   OH233058   1.574   4.296   0.725  0.5515 -0.4878  0.4964
 3856TIP3    H133059   1.656   4.248   0.729  0.6580 -0.3077  0.4619
 3856TIP3    H233060   1.571   4.332   0.636  1.3969  1.2079  1.1178
 3857TIP3   OH233061   1.490   3.865  39.641 -0.0047  0.4245 -0.2751
 3857TIP3    H133062   1.443   3.936  39.598  0.7351  0.4942 -0.9966
 3857TIP3    H233063   1.574   3.903  39.667  0.4296 -0.1975 -0.7351
 3858TIP3   OH233064   4.195   0.568  27.612 -0.5967 -0.4773  0.1507
 3858TIP3    H133065   4.236   0.630  27.552 -2.5089 -0.6591 -1.4268
 3858TIP3    H233066   4.260   0.498  27.621 -0.0176 -0.1686 -1.2770
 3859TIP3   OH233067   0.258   0.502  31.088 -0.1828 -0.9274  1.1336
 3859TIP3    H133068   0.211   0.582  31.065  1.7853  0.5679  2.0288
 3859TIP3    H233069   0.336   0.533  31.133  1.5400 -3.2771 -0.0434
 3860TIP3   OH233070   1.497   1.431  40.812 -0.5109 -0.2246 -0.4469
 3860TIP3    H133071   1.523   1.359  40.869  0.9917  0.0289 -0.7488
 3860TIP3    H233072   1.551   1.505  40.842 -2.0014  0.7902 -0.1470
 3861TIP3   OH233073   3.205   4.045   4.514  0.1740  0.2955 -0.5112
 3861TIP3    H133074   3.229   4.135   4.492  0.1401  0.3531 -0.3135
 3861TIP3    H233075   3.223   4.037   4.608  1.9034 -0.4528 -0.8745
 3862TIP3   OH233076   0.089   0.024   4.469 -0.1398  0.0917 -0.3104
 3862TIP3    H133077   0.161   0.025   4.531 -0.9697 -0.0625  0.6883
 3862TIP3    H233078   0.075   0.116   4.446 -1.6413  0.5084  1.9520
 3863TIP3   OH233079   2.112   2.104  29.481 -1.0013 -0.0059 -0.4234
 3863TIP3    H133080   2.156   2.178  29.439  1.3702 -1.1172 -0.0343
 3863TIP3    H233081   2.097   2.042  29.410 -0.1218 -0.4537 -0.2203
 3864TIP3   OH233082   0.911   2.000  26.935  0.3236 -0.5486 -0.7237
 3864TIP3    H133083   0.917   1.935  27.005 -2.2677 -0.3951 -0.2738
 3864TIP3    H233084   0.819   1.999  26.908 -0.1437  3.6105  0.0259
 3865TIP3   OH233085   4.405   2.424  37.062  0.1451  0.3455 -0.5772
 3865TIP3    H133086   4.432   2.345  37.015  0.7803  1.1561 -1.6075
 3865TIP3    H233087   4.324   2.452  37.019 -0.7608 -0.3978  0.5775
 3866TIP3   OH233088   2.913   4.356  10.043  0.3392 -0.2394  0.0082
 3866TIP3    H133089   2.923   4.443  10.081 -0.2723  0.1303 -0.6519
 3866TIP3    H233090   2.954   4.297  10.106 -1.5534  0.2205  1.7492
 3867TIP3   OH233091   3.437   3.826  39.907  0.2838 -0.1095  0.0920
 3867TIP3    H133092   3.437   3.921  39.918  0.7379 -0.1047  0.0667
 3867TIP3    H233093   3.432   3.812  39.812  0.4720 -0.1057  0.0803
 3868TIP3   OH233094   0.686   1.450   5.026  0.4158  0.2531  0.1155
 3868TIP3    H133095   0.659   1.530   4.981 -0.5916 -0.1232  0.0147
 3868TIP3    H233096   0.774   1.468   5.057  0.3073  1.3030 -0.1485
 3869TIP3   OH233097   3.492   3.290  29.639  0.1706 -0.9911  0.6933
 3869TIP3    H133098   3.588   3.293  29.646  0.2660 -1.2170 -0.3474
 3869TIP3    H233099   3.470   3.363  29.582 -0.1815 -1.5795  0.0726
 3870TIP3   OH233100   4.291   1.918   2.780 -0.3485 -0.0772 -0.1678
 3870TIP3    H133101   4.238   1.847   2.745  0.8762 -0.5077 -1.2281
 3870TIP3    H233102   4.313   1.890   2.869  0.9604 -1.5308 -0.9165
 3871TIP3   OH233103   2.074   0.766   9.689 -0.4221  0.6150 -0.2331
 3871TIP3    H133104   2.051   0.684   9.733  0.5002  1.1651  1.3821
 3871TIP3    H233105   1.995   0.819   9.698 -0.5594  0.3852 -0.0504
 3872TIP3   OH233106   1.315   1.012  29.296  0.0740  0.3882  0.1932
 3872TIP3    H133107   1.383   1.074  29.324 -0.5960  0.4288  1.8473
 3872TIP3    H233108   1.352   0.926  29.318 -0.2594  0.3940  0.8033
 3873TIP3   OH233109   1.905   3.532   1.272  0.0624  0.2945 -0.8119
 3873TIP3    H133110   1.946   3.506   1.354 -0.2248  1.6910 -0.2044
 3873TIP3    H233111   1.847   3.460   1.250  0.8288 -0.5015 -0.2891
 3874TIP3   OH233112   1.282   3.377  36.539  0.7398  0.2673  0.2760
 3874TIP3    H133113   1.319   3.289  36.543 -1.2166 -0.6019  0.3923
 3874TIP3    H233114   1.188   3.363  36.530  0.3041  2.3520  1.0004
 3875TIP3   OH233115   2.747   2.442  10.626  0.3448 -0.2492  0.2283
 3875TIP3    H133116   2.657   2.410  10.631  0.4604 -0.8109 -0.8791
 3875TIP3    H233117   2.786   2.392  10.554  1.4255  0.2714  0.4306
 3876TIP3   OH233118   4.332   0.078  10.680 -0.5838 -0.0774  0.2187
 3876TIP3    H133119   4.282   0.147  10.638  0.2261  0.4293  0.0719
 3876TIP3    H233120   4.335   0.103  10.773  0.9911  0.9033 -0.0698
 3877TIP3   OH233121   0.815   0.423   1.517  1.0927  0.3594  0.1057
 3877TIP3    H133122   0.838   0.423   1.610  0.8907  3.9933  0.3021
 3877TIP3    H233123   0.891   0.462   1.473  0.7750 -0.3659 -1.1371
 3878TIP3   OH233124   0.894   1.088  32.079 -0.0768 -0.2315 -0.1997
 3878TIP3    H133125   0.862   1.058  31.994 -0.0806 -0.2558 -0.1895
 3878TIP3    H233126   0.858   1.024  32.141 -1.6440  0.8309  0.0386
 3879TIP3   OH233127   2.687   4.122  11.334  0.0225  0.4609  0.3266
 3879TIP3    H133128   2.602   4.114  11.292 -0.2242 -0.2683  0.9448
 3879TIP3    H233129   2.681   4.067  11.412  1.6458 -1.0332 -0.5222
 3880TIP3   OH233130   1.447   0.312   7.315 -0.2930  0.2805  0.2596
 3880TIP3    H133131   1.444   0.228   7.362  1.9025 -1.9464 -3.1217
 3880TIP3    H233132   1.399   0.296   7.234  0.7476  2.0923 -0.7776
 3881TIP3   OH233133   0.040   1.139   1.896 -0.4179  0.1062  0.1401
 3881TIP3    H133134   0.134   1.138   1.878 -0.8438  1.7832 -3.0571
 3881TIP3    H233135   0.028   1.075   1.965  2.9821 -0.6633  0.2056
 3882TIP3   OH233136   0.355   3.878   3.578  0.2703  0.3078  0.2658
 3882TIP3    H133137   0.379   3.789   3.551 -0.6482  0.1515 -0.0662
 3882TIP3    H233138   0.414   3.935   3.528 -1.5753  0.0529 -2.4316
 3883TIP3   OH233139   1.771   1.985  13.675  0.0359  0.5502 -0.1872
 3883TIP3    H133140   1.679   1.984  13.700 -0.2797  0.4301 -1.3078
 3883TIP3    H233141   1.778   1.921  13.604  0.7952  1.1848 -0.7060
 3884TIP3   OH233142   3.190   2.937  32.657  0.0805 -0.6754  0.1990
 3884TIP3    H133143   3.144   2.863  32.617 -0.9068  0.2429 -0.4390
 3884TIP3    H233144   3.265   2.898  32.701  0.0630 -1.9514 -0.8465
 3885TIP3   OH233145   3.655   1.647  22.884  0.3641  0.3904  0.0800
 3885TIP3    H133146   3.728   1.669  22.826  0.6578 -0.9947 -0.1171
 3885TIP3    H233147   3.584   1.705  22.856  0.5059 -0.2073 -1.6568
 3886TIP3   OH233148   3.658   0.743   0.128 -0.0350 -0.0850  0.1797
 3886TIP3    H133149   3.747   0.778   0.127 -0.3116  0.6061 -1.5671
 3886TIP3    H233150   3.662   0.666   0.071 -0.4013 -0.5286  0.7308
 3887TIP3   OH233151   1.066   2.529  32.667  0.2420  0.2176 -0.3346
 3887TIP3    H133152   1.139   2.467  32.670 -0.6057 -0.8445 -1.1071
 3887TIP3    H233153   0.988   2.475  32.676 -0.4581  1.4565  1.8065
 3888TIP3   OH233154   0.221   1.390  11.395 -0.5088 -0.1152 -0.2523
 3888TIP3    H133155   0.297   1.401  11.338  1.4565 -0.9793  2.0296
 3888TIP3    H233156   0.155   1.348  11.339  0.5304  0.9445 -2.3896
 3889TIP3   OH233157   2.323   3.456  40.174 -0.1411  0.6095  0.1702
 3889TIP3    H133158   2.361   3.407  40.247  1.4145 -0.4999 -1.3152
 3889TIP3    H233159   2.232   3.428  40.171  0.3137 -0.9474  0.3881
 3890TIP3   OH233160   1.406   1.850  38.945  0.1577  0.1047  0.2115
 3890TIP3    H133161   1.343   1.791  38.986  0.0329 -0.7292 -1.1181
 3890TIP3    H233162   1.371   1.938  38.962 -0.6187 -0.2857  0.6761
 3891TIP3   OH233163   1.781   2.810  17.965 -0.1554 -0.1305  0.0596
 3891TIP3    H133164   1.771   2.842  18.054  0.2460 -1.0291  0.4373
 3891TIP3    H233165   1.703   2.842  17.919 -0.7430 -0.3036  0.9261
 3892TIP3   OH233166   1.943   1.723  27.155  0.1971  0.1679 -0.2561
 3892TIP3    H133167   2.023   1.725  27.102  0.5427 -1.2434  0.1725
 3892TIP3    H233168   1.911   1.634  27.146 -0.3217  0.2060  1.0519
 3893TIP3   OH233169   0.247   3.681  31.830 -0.3212 -0.1193  0.1529
 3893TIP3    H133170   0.294   3.597  31.825  0.0194  0.0764  0.0434
 3893TIP3    H233171   0.234   3.706  31.739  0.7339  0.5893  0.1908
 3894TIP3   OH233172   2.519   1.624  34.377 -0.2720  0.0715  0.2542
 3894TIP3    H133173   2.529   1.575  34.459  0.5672  2.5607  1.7204
 3894TIP3    H233174   2.577   1.699  34.386 -0.0020  0.3424 -2.7507
 3895TIP3   OH233175   3.519   1.937   8.708  0.8227  0.4620 -0.1782
 3895TIP3    H133176   3.434   1.970   8.678 -0.3885 -1.6053  0.7581
 3895TIP3    H233177   3.557   2.010   8.757 -0.9292  1.0667  0.3356
 3896TIP3   OH233178   3.253   3.566  31.451 -0.5836  0.0470  0.0440
 3896TIP3    H133179   3.172   3.585  31.500 -0.1572 -0.2653  0.8978
 3896TIP3    H233180   3.318   3.624  31.489  0.1171 -1.2464  0.9148
 3897TIP3   OH233181   1.878   0.189  39.912  0.6780 -0.4594 -0.0491
 3897TIP3    H133182   1.818   0.142  39.855  1.0010  1.5171 -2.1466
 3897TIP3    H233183   1.822   0.253  39.957  0.7875 -0.4265  0.0411
 3898TIP3   OH233184   2.993   2.960   0.516  0.4801  0.2659 -0.0812
 3898TIP3    H133185   2.919   2.952   0.576  0.6160  1.8930  0.3531
 3898TIP3    H233186   3.057   2.896   0.548  1.2259  2.1430  2.5915
 3899TIP3   OH233187   4.211   1.995  35.817 -0.2737 -0.8476  0.2786
 3899TIP3    H133188   4.125   2.024  35.846  0.4225  1.7402  0.0091
 3899TIP3    H233189   4.251   1.957  35.895 -1.2133 -0.9899  0.7042
 3900TIP3   OH233190   1.509   1.484  33.538  0.4591 -0.2999 -0.1257
 3900TIP3    H133191   1.529   1.393  33.519  2.6586  0.2999 -1.0076
 3900TIP3    H233192   1.524   1.530  33.455 -0.7631  0.8562  0.2556
 3901TIP3   OH233193   4.048   2.247  10.779  0.2928  0.6856 -0.0557
 3901TIP3    H133194   4.101   2.278  10.706  0.2361  1.5488  0.2493
 3901TIP3    H233195   4.112   2.231  10.849  0.3557 -0.2174 -0.3158
 3902TIP3   OH233196   2.806   3.614  30.903 -0.0587  0.2023  0.2308
 3902TIP3    H133197   2.783   3.660  30.983 -0.7517 -1.1105  0.8266
 3902TIP3    H233198   2.827   3.683  30.840 -2.3527  1.3986  0.6563
 3903TIP3   OH233199   0.523   2.936   7.524  0.0652 -0.0071 -0.0238
 3903TIP3    H133200   0.576   2.870   7.479  0.8607  1.4627 -1.3452
 3903TIP3    H233201   0.586   2.987   7.575 -0.5156 -0.1243  0.8316
 3904TIP3   OH233202   0.034   2.512   3.273 -0.0057 -0.0316  0.0416
 3904TIP3    H133203   0.115   2.520   3.323 -0.5370 -0.3728  0.9798
 3904TIP3    H233204   0.044   2.432   3.223  0.5045  0.2759 -0.3570
 3905TIP3   OH233205   1.176   3.707   2.864  0.1265  0.8180 -0.0965
 3905TIP3    H133206   1.172   3.721   2.958 -2.0269  2.2262 -0.3318
 3905TIP3    H233207   1.101   3.651   2.844 -0.1290  1.4805 -1.0977
 3906TIP3   OH233208   1.884   2.451  37.401  0.2710 -0.3850  0.0555
 3906TIP3    H133209   1.792   2.424  37.406  0.1657 -0.1810 -0.6812
 3906TIP3    H233210   1.927   2.377  37.358  0.5976 -0.8064  1.0777
 3907TIP3   OH233211   1.433   0.761  29.362 -0.2235 -0.3649  0.0953
 3907TIP3    H133212   1.513   0.758  29.311  0.5102 -1.7627  1.2732
 3907TIP3    H233213   1.461   0.746  29.452 -1.5288  1.5667  0.8997
 3908TIP3   OH233214   3.839   3.575  39.939  0.1034  1.4414 -0.1909
 3908TIP3    H133215   3.891   3.503  39.903 -3.2204 -1.5053  0.4218
 3908TIP3    H233216   3.848   3.566  40.034 -2.8781 -0.4527  0.0319
 3909TIP3   OH233217   2.890   3.877   1.871 -0.8498  0.2352 -0.3614
 3909TIP3    H133218   2.803   3.857   1.906 -1.0589  1.0055 -0.4315
 3909TIP3    H233219   2.874   3.931   1.794 -0.2825  1.6649  0.4735
 3910TIP3   OH233220   3.978   3.670   2.928  0.0262 -0.0963  0.2254
 3910TIP3    H133221   4.010   3.684   2.839 -0.7804 -0.2344 -0.0980
 3910TIP3    H233222   4.056   3.675   2.983  0.0830  4.4111  0.0703
 3911TIP3   OH233223   2.127   3.564  11.153  0.3596 -0.2096  0.2606
 3911TIP3    H133224   2.103   3.597  11.066  0.0934 -1.6491 -0.2401
 3911TIP3    H233225   2.130   3.642  11.208  0.8194  0.7708 -1.0962
 3912TIP3   OH233226   1.801   0.352  38.375 -0.3327  0.0440 -0.2672
 3912TIP3    H133227   1.761   0.420  38.321 -1.8955 -0.9006 -0.3609
 3912TIP3    H233228   1.889   0.385  38.395 -1.7651  3.1509  1.5654
 3913TIP3   OH233229   1.434   1.661  28.385  0.4662 -0.0848 -0.0366
 3913TIP3    H133230   1.396   1.667  28.297 -1.9026  2.0903  0.9691
 3913TIP3    H233231   1.451   1.752  28.409  0.3953 -0.5567  1.9853
 3914TIP3   OH233232   2.508   2.792   5.546  0.1294  0.3028  0.3701
 3914TIP3    H133233   2.424   2.837   5.551  0.1166  0.2280  0.8446
 3914TIP3    H233234   2.530   2.772   5.637  0.2344 -0.4602  0.1805
 3915TIP3   OH233235   4.360   0.718   7.457 -0.2231  0.5749 -0.4849
 3915TIP3    H133236   4.394   0.716   7.547 -0.8301  0.9287 -0.2388
 3915TIP3    H233237   4.419   0.662   7.408  0.6184  1.0587 -0.0383
 3916TIP3   OH233238   4.397   0.553  33.864 -0.3230  0.6386  0.5442
 3916TIP3    H133239   4.438   0.521  33.783  0.7462  1.9231  0.5493
 3916TIP3    H233240   4.334   0.485  33.886 -0.5301  0.1743 -1.2826
 3917TIP3   OH233241   3.585   3.518   5.260  0.5664 -0.2234  0.8161
 3917TIP3    H133242   3.495   3.546   5.246  0.1768 -0.5369  2.5322
 3917TIP3    H233243   3.629   3.595   5.297  1.5614  0.5647 -1.7257
 3918TIP3   OH233244   2.337   0.010  26.777  0.8748 -0.5098  0.7839
 3918TIP3    H133245   2.295   0.063  26.710  0.9462  1.0111  1.8986
 3918TIP3    H233246   2.293  -0.075  26.771 -0.1667  0.0710 -0.1664
 3919TIP3   OH233247   0.236   1.871  37.814 -0.0926  0.3753  0.2726
 3919TIP3    H133248   0.328   1.875  37.788  0.5566  2.1192  2.5168
 3919TIP3    H233249   0.232   1.798  37.876  0.2745  1.4674  1.6464
 3920TIP3   OH233250   3.887   0.074   8.159 -0.3243 -0.0319 -0.0635
 3920TIP3    H133251   3.962   0.101   8.212 -0.6727  0.0606  0.3918
 3920TIP3    H233252   3.913   0.092   8.069 -0.8602  2.6501  0.2566
 3921TIP3   OH233253   0.299   3.304  38.664  0.2601 -0.0412  0.3175
 3921TIP3    H133254   0.209   3.312  38.697  0.8921 -2.1493  2.8352
 3921TIP3    H233255   0.298   3.224  38.611  1.0516 -1.4622  2.2969
 3922TIP3   OH233256   2.811   4.139  34.615 -0.0668 -0.0786  0.2501
 3922TIP3    H133257   2.849   4.222  34.585 -3.2194  1.4131  0.0306
 3922TIP3    H233258   2.788   4.093  34.534  0.5222 -0.6515  0.3923
 3923TIP3   OH233259   0.437   2.821   7.752 -0.6812 -0.0203 -0.1105
 3923TIP3    H133260   0.441   2.906   7.795 -1.4269 -0.4742  0.8905
 3923TIP3    H233261   0.440   2.842   7.658 -0.3057  1.0603  0.1211
 3924TIP3   OH233262   2.973   3.218   7.953  0.0380  0.2875  0.5162
 3924TIP3    H133263   3.055   3.192   7.994  0.4361  0.7257  0.0077
 3924TIP3    H233264   2.964   3.311   7.973  0.2358  0.5083 -0.3648
 3925TIP3   OH233265   2.682   1.975  34.706 -0.9009 -0.8188  0.0224
 3925TIP3    H133266   2.599   1.927  34.697 -1.2795  0.2089 -2.9268
 3925TIP3    H233267   2.745   1.908  34.734 -2.5909 -1.6735  2.1297
 3926TIP3   OH233268   2.644   2.789  10.499  0.3211 -0.7567  0.5809
 3926TIP3    H133269   2.732   2.751  10.502 -0.1638 -1.9674  0.2887
 3926TIP3    H233270   2.586   2.714  10.510 -0.7090 -0.2196 -0.9371
 3927TIP3   OH233271   0.104   2.089  25.801 -0.4259  0.3037  0.2531
 3927TIP3    H133272   0.027   2.058  25.753  1.4236 -0.4930 -2.4013
 3927TIP3    H233273   0.126   2.172  25.759  1.1678 -0.3453 -0.2646
 3928TIP3   OH233274   4.178   4.346  27.589  0.3565  0.1763  0.2587
 3928TIP3    H133275   4.107   4.406  27.613 -0.4288  0.1932 -1.8913
 3928TIP3    H233276   4.225   4.391  27.519 -0.3879 -1.7135 -1.5843
 3929TIP3   OH233277   3.199   1.887  12.484  0.1732 -0.5088 -0.0653
 3929TIP3    H133278   3.104   1.902  12.485  0.4007  1.0522  0.1528
 3929TIP3    H233279   3.222   1.875  12.576 -0.0283 -2.7111 -0.2326
 3930TIP3   OH233280   0.633   1.899  12.699  0.3962  0.1395 -0.3279
 3930TIP3    H133281   0.652   1.982  12.654  2.5014 -1.1142 -1.9298
 3930TIP3    H233282   0.685   1.902  12.779  0.0775  0.5470 -0.1312
 3931TIP3   OH233283   3.441   1.254  31.438 -0.7269  0.2257  0.1614
 3931TIP3    H133284   3.386   1.191  31.392  1.0694 -0.3566 -1.2921
 3931TIP3    H233285   3.447   1.329  31.378  0.5541  0.0157  0.0123
 3932TIP3   OH233286   0.317   1.413  34.526  0.6080  0.2833  0.5102
 3932TIP3    H133287   0.336   1.322  34.550  1.5198  0.2161 -0.4029
 3932TIP3    H233288   0.366   1.427  34.445 -2.4553  0.4162 -1.4982
 3933TIP3   OH233289   2.811   3.849  35.258 -0.6383 -0.2057  0.4359
 3933TIP3    H133290   2.897   3.813  35.236  0.5309  2.6704 -0.1332
 3933TIP3    H233291   2.807   3.847  35.354 -0.8545 -2.1967  0.4202
 3934TIP3   OH233292   0.177   2.464  39.758  0.0446  0.1312 -0.0779
 3934TIP3    H133293   0.198   2.530  39.824  0.7966  2.0153 -2.0661
 3934TIP3    H233294   0.252   2.404  39.759  0.4917  0.6829  0.1635
 3935TIP3   OH233295   3.457   2.998  38.697  0.2915 -0.2772 -0.7443
 3935TIP3    H133296   3.490   3.085  38.719 -0.6571  0.7564 -3.1121
 3935TIP3    H233297   3.536   2.947  38.677  0.7999  0.2831 -0.2157
 3936TIP3   OH233298   0.219   3.559  27.846  0.1877 -0.5524  0.0769
 3936TIP3    H133299   0.203   3.481  27.899  1.0917  0.1407  1.4295
 3936TIP3    H233300   0.258   3.525  27.765  1.4911 -1.4693  1.0374
 3937TIP3   OH233301   2.250   1.062  38.019 -0.3718 -0.0280  0.7996
 3937TIP3    H133302   2.209   1.148  38.027 -1.7336 -0.6493  0.8535
 3937TIP3    H233303   2.176   1.001  38.014  0.5380 -1.0975 -0.3739
 3938TIP3   OH233304   0.717   3.067  11.831  0.0485  1.4598  0.2654
 3938TIP3    H133305   0.800   3.089  11.789 -0.1253  0.3019 -0.7438
 3938TIP3    H233306   0.665   3.148  11.824  0.2037  1.4576 -1.3767
 3939TIP3   OH233307   0.975   1.815   5.289  0.0749 -0.1636 -1.0289
 3939TIP3    H133308   1.067   1.788   5.291  0.0143 -0.3384  0.4029
 3939TIP3    H233309   0.935   1.766   5.361 -1.1367 -0.0634 -1.6223
 3940TIP3   OH233310   1.051   3.001   4.760  0.0088 -0.2180 -0.4810
 3940TIP3    H133311   0.961   2.994   4.792 -1.1599  0.5834 -3.2501
 3940TIP3    H233312   1.088   3.074   4.809 -1.8031  1.2370 -1.1543
 3941TIP3   OH233313   0.707   3.040  16.744 -0.0141  0.8766  0.9756
 3941TIP3    H133314   0.779   3.007  16.691  0.5599  0.5706  1.9085
 3941TIP3    H233315   0.718   2.996  16.829 -1.7133  0.2717  0.9216
 3942TIP3   OH233316   1.907   3.696   1.773 -0.0449 -0.2850 -0.5483
 3942TIP3    H133317   1.991   3.671   1.734 -0.8621 -0.4354 -2.2735
 3942TIP3    H233318   1.888   3.625   1.835  0.8246 -0.5382 -0.5503
 3943TIP3   OH233319   4.116   3.797   6.115 -0.1425  0.0214 -0.4869
 3943TIP3    H133320   4.191   3.825   6.168 -0.6327  2.4888 -0.9890
 3943TIP3    H233321   4.108   3.703   6.133  0.5990  0.4470  2.6773
 3944TIP3   OH233322   2.607   1.255  37.889  0.2299  0.2942  0.1664
 3944TIP3    H133323   2.565   1.258  37.974 -0.7650  1.4003 -0.3345
 3944TIP3    H233324   2.569   1.178  37.846 -1.4502  1.3454 -0.3228
 3945TIP3   OH233325   3.725   3.882   7.090  0.1937  0.3393  0.2506
 3945TIP3    H133326   3.720   3.926   7.005 -0.9937 -0.8154 -0.3194
 3945TIP3    H233327   3.806   3.914   7.129  1.1458  0.3659 -1.6257
 3946TIP3   OH233328   4.194   2.052   9.971 -0.1620 -0.0885 -0.0630
 3946TIP3    H133329   4.235   2.137   9.956 -1.8630  0.6184 -0.9510
 3946TIP3    H233330   4.247   1.991   9.920 -0.5556  0.9094 -1.7525
 3947TIP3   OH233331   4.318   2.966  35.817 -0.1074  0.0617  0.3417
 3947TIP3    H133332   4.295   2.881  35.855 -0.6759  0.1427  0.1936
 3947TIP3    H233333   4.259   3.028  35.860  1.3648  0.6423  1.6022
 3948TIP3   OH233334   2.642   0.063  10.817 -0.7749  0.0560 -0.2764
 3948TIP3    H133335   2.550   0.058  10.844 -0.5026  1.2422  0.9540
 3948TIP3    H233336   2.686  -0.005  10.868 -0.6938  0.6384  0.4536
 3949TIP3   OH233337   3.902   1.655   9.368  0.1858  0.6458  0.5579
 3949TIP3    H133338   3.806   1.660   9.359  0.3199  2.5358 -0.5482
 3949TIP3    H233339   3.932   1.740   9.336  2.4508 -1.0730 -2.3155
 3950TIP3   OH233340   0.660   0.246  33.929  0.7615 -0.0307  0.2057
 3950TIP3    H133341   0.574   0.236  33.888  1.1151  0.5258 -0.7058
 3950TIP3    H233342   0.654   0.196  34.011 -0.6147  0.5196  0.4553
 3951TIP3   OH233343   4.272   2.122  32.851  0.6293 -0.2081  0.3016
 3951TIP3    H133344   4.356   2.123  32.806 -0.8846 -1.9297 -2.8686
 3951TIP3    H233345   4.262   2.031  32.881 -0.6584 -0.4383 -0.7044
 3952TIP3   OH233346   3.207   4.322  40.559 -0.6908  0.7368  0.1774
 3952TIP3    H133347   3.142   4.261  40.525  0.2017 -0.7785  1.1128
 3952TIP3    H233348   3.291   4.280  40.543  0.1202  2.6478 -0.9826
 3953TIP3   OH233349   0.480   1.127  11.521 -0.0383 -0.5073  0.3076
 3953TIP3    H133350   0.468   1.058  11.455 -1.0903  0.2670 -0.3459
 3953TIP3    H233351   0.392   1.163  11.534  0.5435  0.9521  0.3641
 3954TIP3   OH233352   3.518   4.020   3.214 -0.4504 -0.0578  0.2763
 3954TIP3    H133353   3.513   4.031   3.309  0.5009 -1.1884  0.4904
 3954TIP3    H233354   3.554   4.102   3.182  1.1367 -0.3679  1.1460
 3955TIP3   OH233355   0.322   0.948  29.119  0.1869  0.0723 -0.5120
 3955TIP3    H133356   0.265   0.972  29.193  1.1704  0.6699  0.0766
 3955TIP3    H233357   0.387   0.890  29.158 -0.3252 -1.0605 -1.2965
 3956TIP3   OH233358   0.433   1.815  39.947 -0.3384 -0.2331  0.2026
 3956TIP3    H133359   0.447   1.845  40.037  0.8059 -0.9630  0.2928
 3956TIP3    H233360   0.520   1.820  39.906 -0.9286  0.5591 -1.0226
 3957TIP3   OH233361   2.747   2.341  31.382  0.2130  0.0222  0.0297
 3957TIP3    H133362   2.837   2.373  31.385 -0.3612  1.7410  0.3488
 3957TIP3    H233363   2.726   2.335  31.289  0.2036  1.0190 -0.0384
 3958TIP3   OH233364   3.597   3.082  35.639  0.4824 -0.2405 -0.1745
 3958TIP3    H133365   3.540   3.019  35.683  0.8418  1.5308  3.1749
 3958TIP3    H233366   3.572   3.167  35.676  4.3024  0.7657  0.5547
 3959TIP3   OH233367   0.673   3.359  10.478 -0.3519  0.0951  0.3455
 3959TIP3    H133368   0.761   3.370  10.440 -0.1859 -1.0879  0.3460
 3959TIP3    H233369   0.665   3.431  10.541  0.3732  0.5726 -0.0841
 3960TIP3   OH233370   0.494   2.664   7.115 -0.1736  0.6203  0.6995
 3960TIP3    H133371   0.497   2.759   7.120  1.6191  0.5481  1.9174
 3960TIP3    H233372   0.497   2.645   7.021 -0.4737  1.7572  0.4476
 3961TIP3   OH233373   3.591   3.184   1.291  0.2361 -0.2815  0.4425
 3961TIP3    H133374   3.584   3.275   1.261 -0.4692 -0.9781 -1.6314
 3961TIP3    H233375   3.666   3.185   1.351 -0.1112  1.7602  0.9156
 3962TIP3   OH233376   4.282   1.115  24.067  0.2882  0.2526 -0.4883
 3962TIP3    H133377   4.333   1.048  24.021 -0.1639 -0.4325  0.0020
 3962TIP3    H233378   4.207   1.131  24.010  0.5783  0.6159 -0.7788
 3963TIP3   OH233379   0.548   3.494  36.292 -0.4471  0.3472  0.0163
 3963TIP3    H133380   0.457   3.522  36.304 -0.4490  0.2496  0.2256
 3963TIP3    H233381   0.546   3.441  36.212 -0.4964  0.6987 -0.2172
 3964TIP3   OH233382   0.094   3.956   3.173  0.0928 -0.2574  0.4200
 3964TIP3    H133383   0.182   3.920   3.184  0.8607  1.4624  0.2533
 3964TIP3    H233384   0.106   4.032   3.116 -1.6784 -0.5932 -0.4980
 3965TIP3   OH233385   0.869   0.065   1.798 -0.0754  0.3267 -0.2727
 3965TIP3    H133386   0.808   0.139   1.793  1.2228  1.3625 -2.1475
 3965TIP3    H233387   0.925   0.084   1.872  0.2763  1.2760 -0.7706
 3966TIP3   OH233388   0.547   0.751   2.918 -0.6691  0.2998  0.0383
 3966TIP3    H133389   0.475   0.814   2.927 -0.9801 -0.0122 -0.2369
 3966TIP3    H233390   0.626   0.805   2.919 -0.7292  0.4989  2.6476
 3967TIP3   OH233391   1.566   2.633  39.219  0.2931 -0.3562  0.0563
 3967TIP3    H133392   1.654   2.608  39.246  0.7926  0.5875 -0.6231
 3967TIP3    H233393   1.509   2.598  39.288  1.2487 -0.5072  0.7964
 3968TIP3   OH233394   0.392   3.621  34.241 -0.4345 -0.3507  0.2493
 3968TIP3    H133395   0.323   3.671  34.286 -0.1648  1.3649 -1.1251
 3968TIP3    H233396   0.433   3.570  34.310 -0.6536  1.4357  1.8001
 3969TIP3   OH233397   2.578   3.299  12.477  0.2084  0.2595  0.0905
 3969TIP3    H133398   2.612   3.238  12.543  1.2053  1.1744  0.4524
 3969TIP3    H233399   2.590   3.253  12.394  0.8930 -0.0705  0.3606
 3970TIP3   OH233400   0.660   4.339   7.474 -0.7372 -0.4046  0.3883
 3970TIP3    H133401   0.739   4.347   7.528 -0.5491 -0.0541  0.0712
 3970TIP3    H233402   0.634   4.430   7.457 -1.4770 -0.5202  0.8745
 3971TIP3   OH233403   2.403   1.576  28.941  0.1538  0.0122  0.0245
 3971TIP3    H133404   2.333   1.636  28.964  0.3625  0.1371  0.3477
 3971TIP3    H233405   2.399   1.569  28.846 -1.0713 -0.9242  0.1211
 3972TIP3   OH233406   4.132   2.072  41.577  0.9024 -0.4153 -0.6938
 3972TIP3    H133407   4.050   2.023  41.577  0.3329  0.5126 -1.4564
 3972TIP3    H233408   4.114   2.150  41.631  1.4595 -0.4903 -0.3846
 3973TIP3   OH233409   0.400   1.901  31.921 -0.2113  0.1164 -0.2804
 3973TIP3    H133410   0.437   1.856  31.846 -0.8997  0.5449 -0.8892
 3973TIP3    H233411   0.306   1.884  31.916 -0.3079  0.4289  0.2861
 3974TIP3   OH233412   2.222   1.533  30.862 -0.1297 -0.3873 -0.0453
 3974TIP3    H133413   2.273   1.481  30.800  0.5104 -0.1223  0.2581
 3974TIP3    H233414   2.286   1.569  30.923 -0.3202  2.1812 -1.2353
 3975TIP3   OH233415   0.193   2.326  13.132  0.5089 -0.0442 -0.2471
 3975TIP3    H133416   0.185   2.356  13.223  0.6521 -1.3487  0.2194
 3975TIP3    H233417   0.192   2.230  13.138  1.9935 -0.1699 -1.4810
 3976TIP3   OH233418   1.553   2.696  33.417 -0.3056  0.3777 -0.2205
 3976TIP3    H133419   1.532   2.668  33.506 -0.1609  0.8608 -0.0297
 3976TIP3    H233420   1.585   2.786  33.427  1.4739 -0.1788 -0.5346
 3977TIP3   OH233421   1.105   4.317  30.338 -0.3491  0.0159 -0.6738
 3977TIP3    H133422   1.169   4.371  30.384 -0.1259 -0.9574  0.1841
 3977TIP3    H233423   1.030   4.375  30.327  0.3436  0.8929 -0.8958
 3978TIP3   OH233424   0.179   2.918  28.256 -0.3551 -0.6248 -0.3295
 3978TIP3    H133425   0.268   2.951  28.257 -0.4261 -0.4501  0.8137
 3978TIP3    H233426   0.155   2.917  28.163 -0.0607  1.7160 -0.4844
 3979TIP3   OH233427   2.929   2.608  36.637  0.0043  0.5007 -0.7365
 3979TIP3    H133428   2.987   2.554  36.691  0.9037  1.9319 -0.1938
 3979TIP3    H233429   2.843   2.567  36.646  0.1158  0.6491  1.8103
 3980TIP3   OH233430   2.879   4.208  31.818 -0.7627  0.2154 -0.0686
 3980TIP3    H133431   2.964   4.252  31.819  0.8137 -2.5478 -1.5002
 3980TIP3    H233432   2.831   4.249  31.746  0.4588 -0.0571 -1.0619
 3981TIP3   OH233433   0.672   1.450  33.323  0.1664 -0.1235 -0.1098
 3981TIP3    H133434   0.579   1.430  33.328  0.0636 -0.3891 -2.0927
 3981TIP3    H233435   0.703   1.402  33.246  1.3613  1.9978 -1.0535
 3982TIP3   OH233436   2.528   0.377   6.109  0.3187 -0.4081 -0.3082
 3982TIP3    H133437   2.547   0.340   6.195 -0.8938 -2.8877 -1.0120
 3982TIP3    H233438   2.434   0.361   6.096  0.7000 -1.1494 -2.5372
 3983TIP3   OH233439   2.446   0.203  40.454  0.6618  0.5131  0.3523
 3983TIP3    H133440   2.500   0.273  40.418  0.1426  0.5386 -0.3995
 3983TIP3    H233441   2.497   0.169  40.528  0.9624  1.6133  0.6786
 3984TIP3   OH233442   1.065   0.518   5.456 -0.1412 -0.5522 -0.1382
 3984TIP3    H133443   1.097   0.559   5.376 -2.2417  0.4081 -0.5589
 3984TIP3    H233444   1.132   0.537   5.521 -0.6182  3.0222 -0.4734
 3985TIP3   OH233445   1.304   3.645  16.230  0.2662 -0.1125  0.5658
 3985TIP3    H133446   1.265   3.695  16.158  0.6349 -0.3776  0.1805
 3985TIP3    H233447   1.240   3.653  16.302 -0.8061 -1.0410 -0.2405
 3986TIP3   OH233448   3.196   4.177   0.477 -0.4486 -0.5088  0.4815
 3986TIP3    H133449   3.291   4.178   0.491 -0.4010 -0.3356  0.1510
 3986TIP3    H233450   3.174   4.084   0.474 -0.1515 -0.5640 -0.3183
 3987TIP3   OH233451   4.067   3.554  39.415 -0.7954 -0.0024  0.0609
 3987TIP3    H133452   4.127   3.500  39.364 -1.9447  0.8688 -2.3308
 3987TIP3    H233453   4.124   3.618  39.459  0.3440 -1.6262  1.0795
 3988TIP3   OH233454   1.853   2.209   0.246 -0.0236  0.7758 -0.1687
 3988TIP3    H133455   1.921   2.228   0.311 -1.3212 -0.4214  1.6222
 3988TIP3    H233456   1.774   2.252   0.280 -0.9163 -0.5375 -0.5063
 3989TIP3   OH233457   1.696   1.602  29.672  0.7818  0.3845 -0.0217
 3989TIP3    H133458   1.722   1.545  29.600  0.9388  0.2454  0.1424
 3989TIP3    H233459   1.726   1.556  29.750 -1.8195 -0.8340  0.3523
 3990TIP3   OH233460   1.543   2.118   3.047 -0.4595  0.5535  0.2512
 3990TIP3    H133461   1.447   2.125   3.052 -0.3701  4.1080 -0.5687
 3990TIP3    H233462   1.560   2.093   2.956 -0.5765  1.1628  0.0616
 3991TIP3   OH233463   2.810   2.962  29.755 -0.1435  0.2368 -0.1541
 3991TIP3    H133464   2.851   2.997  29.676  0.0866 -0.6318 -0.4316
 3991TIP3    H233465   2.761   2.885  29.725 -2.7830  1.7326  0.0150
 3992TIP3   OH233466   0.013   0.666  40.877 -0.5056 -0.3517 -0.4340
 3992TIP3    H133467   0.050   0.753  40.893 -0.2107 -0.6475  0.6163
 3992TIP3    H233468   0.020   0.654  40.782  1.4406 -0.0854 -0.3685
 3993TIP3   OH233469   1.101   3.269   8.809 -0.0488 -0.6643 -0.3416
 3993TIP3    H133470   1.127   3.317   8.887 -0.8550 -0.9391  0.1047
 3993TIP3    H233471   1.074   3.183   8.841 -0.1494 -0.8659 -0.9534
 3994TIP3   OH233472   0.536   1.543  22.938  0.4245  0.0634 -0.6335
 3994TIP3    H133473   0.546   1.448  22.932  1.3589  0.0253  0.8574
 3994TIP3    H233474   0.621   1.578  22.913  1.1012  0.3081  1.7129
 3995TIP3   OH233475   1.669   3.509  27.277 -1.4917  0.0144  0.5018
 3995TIP3    H133476   1.682   3.553  27.193  1.3472 -1.6649 -0.0781
 3995TIP3    H233477   1.728   3.555  27.337 -3.3247  1.0475  1.6113
 3996TIP3   OH233478   0.212   0.390   8.249 -0.1425 -0.1403  0.2263
 3996TIP3    H133479   0.195   0.427   8.336  0.1983  1.0254 -0.1819
 3996TIP3    H233480   0.289   0.335   8.261  1.3286  1.8208  0.2464
 3997TIP3   OH233481   0.599   2.313  28.410  0.5675 -0.0948  0.0395
 3997TIP3    H133482   0.555   2.306  28.325  0.9074 -0.8262 -0.0946
 3997TIP3    H233483   0.645   2.397  28.407  0.2879  0.0469 -0.3589
 3998TIP3   OH233484   0.252   1.286   6.712  0.2675 -0.0296 -0.5831
 3998TIP3    H133485   0.267   1.257   6.622 -0.4032 -1.0992 -0.3656
 3998TIP3    H233486   0.164   1.254   6.734  0.7933 -0.6283  0.7770
 3999TIP3   OH233487   0.458   1.912   8.438 -0.2536  0.3428  0.1869
 3999TIP3    H133488   0.505   1.864   8.370 -2.7614 -0.6715 -0.9550
 3999TIP3    H233489   0.489   1.874   8.520  2.1100  0.9134 -0.3620
 4000TIP3   OH233490   0.842   4.204  33.741  0.2757  0.3962  0.4881
 4000TIP3    H133491   0.764   4.216  33.686  1.8227  1.1250 -1.6597
 4000TIP3    H233492   0.844   4.110  33.759  0.1064  0.0265 -1.3087
 4001TIP3   OH233493   0.084   4.388   4.823 -0.0167 -0.4329  0.2882
 4001TIP3    H133494   0.108   4.303   4.859 -0.7312 -0.9895 -0.5246
 4001TIP3    H233495   0.115   4.386   4.732  0.9547  0.6093  0.5634
 4002TIP3   OH233496   1.975   0.025  26.821 -0.6434  0.6686 -0.3815
 4002TIP3    H133497   2.005  -0.039  26.885 -0.6977 -0.7200 -1.6951
 4002TIP3    H233498   2.037   0.098  26.829  0.0979 -0.0206  0.3451
 4003TIP3   OH233499   2.520   1.344  10.739 -0.0769  0.3059  0.2295
 4003TIP3    H133500   2.507   1.325  10.832 -0.9223  0.5620  0.1695
 4003TIP3    H233501   2.584   1.279  10.711 -0.2338 -0.1415  0.8650
 4004TIP3   OH233502   2.964   1.203   6.908 -0.3995 -0.2650  0.2142
 4004TIP3    H133503   2.927   1.290   6.891  1.5719  0.4877 -0.5282
 4004TIP3    H233504   3.035   1.220   6.970 -0.4971 -1.4812  0.6812
 4005TIP3   OH233505   3.037   3.656  35.654  0.4393  0.0113  0.1300
 4005TIP3    H133506   3.103   3.604  35.608 -0.9122 -0.7288 -1.0422
 4005TIP3    H233507   3.010   3.601  35.727 -0.8959 -0.9468 -1.0377
 4006TIP3   OH233508   3.721   3.854   9.718  0.4406 -0.6556 -0.7240
 4006TIP3    H133509   3.674   3.771   9.727 -0.2745 -0.0727  1.5868
 4006TIP3    H233510   3.812   3.828   9.704 -0.0436 -1.7983 -2.0240
 4007TIP3   OH233511   1.185   2.743   4.771 -0.2057 -0.1039  0.2844
 4007TIP3    H133512   1.137   2.821   4.800  0.6529  0.7927 -0.6326
 4007TIP3    H233513   1.266   2.777   4.732 -0.5434 -1.3437 -1.6405
 4008TIP3   OH233514   1.241   0.061  10.686 -0.0964 -0.1630 -0.0931
 4008TIP3    H133515   1.267   0.076  10.777 -1.4299 -0.1488  0.3026
 4008TIP3    H233516   1.180  -0.012  10.690  2.0349 -2.1825 -1.3515
 4009TIP3   OH233517   2.230   0.069   6.249 -0.4150  0.3723  0.0751
 4009TIP3    H133518   2.184   0.006   6.304  0.1849 -1.0681 -1.0036
 4009TIP3    H233519   2.201   0.049   6.160  1.2313  0.3343 -0.4931
 4010TIP3   OH233520   3.272   2.405  33.090  0.0197  0.3135 -0.0340
 4010TIP3    H133521   3.314   2.366  33.014  0.6424  1.1289 -0.1191
 4010TIP3    H233522   3.318   2.368  33.165 -0.3271 -0.1843 -0.0657
 4011TIP3   OH233523   3.776   3.917  37.281  0.2233  0.5201  0.1047
 4011TIP3    H133524   3.770   3.994  37.338 -0.6007  1.1788 -0.8309
 4011TIP3    H233525   3.867   3.890  37.286 -0.1414 -0.4654  3.0302
 4012TIP3   OH233526   1.956   0.640   9.408 -0.0402  0.0613 -0.3696
 4012TIP3    H133527   1.907   0.669   9.485  0.0850  0.5072 -0.4534
 4012TIP3    H233528   2.023   0.582   9.443 -0.6543 -0.6044 -0.2595
 4013TIP3   OH233529   4.396   2.430   9.191  0.1493  0.3359 -0.2622
 4013TIP3    H133530   4.445   2.399   9.115  0.3430  1.6542 -0.7016
 4013TIP3    H233531   4.361   2.515   9.164  0.7641  1.1431  1.3410
 4014TIP3   OH233532   1.106   2.608   2.694 -0.1346  0.6081  0.2734
 4014TIP3    H133533   1.196   2.588   2.665 -0.7635  0.3064 -1.6505
 4014TIP3    H233534   1.099   2.703   2.688 -0.0851  0.5916 -0.0789
 4015TIP3   OH233535   1.388   0.238  32.540  0.3970 -0.6797 -0.1396
 4015TIP3    H133536   1.400   0.302  32.610 -0.0315 -0.0189 -0.6628
 4015TIP3    H233537   1.476   0.201  32.526  0.6380 -0.2346  0.1846
 4016TIP3   OH233538   3.143   2.144  26.902 -0.0090  0.5794  0.5023
 4016TIP3    H133539   3.163   2.214  26.839 -1.3336  0.5899  0.0603
 4016TIP3    H233540   3.100   2.189  26.975  0.4316  0.4013  0.8790
 4017TIP3   OH233541   1.436   3.791  34.103 -0.1966 -0.2226 -0.4641
 4017TIP3    H133542   1.397   3.856  34.044 -1.0309  0.3308  0.6736
 4017TIP3    H233543   1.474   3.843  34.174 -0.3491 -0.9511  0.1573
 4018TIP3   OH233544   2.667   4.335  27.438 -0.2152  0.2443  0.0440
 4018TIP3    H133545   2.751   4.359  27.400  0.4642 -0.0978  1.2863
 4018TIP3    H233546   2.689   4.296  27.523 -1.6192  0.0677  0.3506
 4019TIP3   OH233547   1.735   4.077   9.919 -0.1569 -0.5541 -0.2956
 4019TIP3    H133548   1.756   4.002   9.864 -0.1228 -0.7085 -0.0705
 4019TIP3    H233549   1.820   4.110   9.948 -0.1365 -0.0506 -0.8950
 4020TIP3   OH233550   2.108   1.158  33.796 -0.0287 -0.2167 -0.2048
 4020TIP3    H133551   2.052   1.084  33.818 -0.0587 -0.3676 -0.7856
 4020TIP3    H233552   2.075   1.190  33.713  1.2407 -0.8176 -0.9774
 4021TIP3   OH233553   3.566   3.702   2.209 -0.2460 -0.1635 -0.3340
 4021TIP3    H133554   3.562   3.672   2.118  0.4622  1.2367 -0.8549
 4021TIP3    H233555   3.611   3.632   2.255  2.6845  0.5717 -1.7960
 4022TIP3   OH233556   3.147   3.845  41.552  0.2467 -0.4070  0.2857
 4022TIP3    H133557   3.153   3.753  41.529 -0.4896  0.2138 -2.8736
 4022TIP3    H233558   3.235   3.880  41.533  0.1015 -0.2004 -0.0231
 4023TIP3   OH233559   2.746   2.139  30.912 -0.6058  0.1481 -0.1436
 4023TIP3    H133560   2.803   2.077  30.867 -1.0722  0.1155 -0.7085
 4023TIP3    H233561   2.711   2.195  30.841 -1.4931 -0.0169  0.1467
 4024TIP3   OH233562   0.508   2.913  33.761 -0.7124  0.5179  0.3986
 4024TIP3    H133563   0.545   2.826  33.745  0.3164  1.0223 -0.0400
 4024TIP3    H233564   0.522   2.961  33.679 -0.6677  1.3087  0.8576
 4025TIP3   OH233565   2.755   2.285  34.263 -0.0931  0.5449 -0.1172
 4025TIP3    H133566   2.754   2.189  34.266 -0.8105  0.5545 -0.0630
 4025TIP3    H233567   2.671   2.312  34.299 -0.3249  1.1715 -1.0875
 4026TIP3   OH233568   1.274   1.644  12.437 -0.2182 -0.2291 -0.6547
 4026TIP3    H133569   1.339   1.684  12.494  1.1377 -1.0913 -1.5343
 4026TIP3    H233570   1.210   1.605  12.497  0.2922  0.2716  0.2351
 4027TIP3   OH233571   1.498   2.659  17.954  0.0797 -0.2164  0.1981
 4027TIP3    H133572   1.544   2.579  17.929  2.3125  1.4686 -1.4844
 4027TIP3    H233573   1.473   2.700  17.872  0.5600  1.6692  0.9429
 4028TIP3   OH233574   1.555   3.254   9.203  0.3280  0.5762  0.0920
 4028TIP3    H133575   1.563   3.272   9.297 -0.7853  0.0658  0.2930
 4028TIP3    H233576   1.502   3.174   9.198  1.0416  0.1502 -0.9509
 4029TIP3   OH233577   3.321   3.305  11.944 -0.1890 -0.2500  0.1280
 4029TIP3    H133578   3.281   3.320  12.029 -0.4161  2.3262 -0.3529
 4029TIP3    H233579   3.268   3.235  11.905 -1.5919  0.1925  1.1602
 4030TIP3   OH233580   2.230   0.891  39.288  0.4364  0.0156 -0.4632
 4030TIP3    H133581   2.189   0.978  39.284 -2.8087 -1.4260 -2.8289
 4030TIP3    H233582   2.304   0.897  39.227 -0.3597  0.8949 -1.3836
 4031TIP3   OH233583   0.695   4.055  10.816 -0.5254  0.1895  0.0389
 4031TIP3    H133584   0.766   4.049  10.752 -1.6719  0.8745 -1.3568
 4031TIP3    H233585   0.621   4.089  10.767 -0.8828  2.9270  2.1905
 4032TIP3   OH233586   2.743   2.967  31.422  0.4275 -0.3459  0.1212
 4032TIP3    H133587   2.803   2.928  31.485  0.8251 -2.0832 -1.2462
 4032TIP3    H233588   2.713   2.893  31.369 -0.4460  0.9417 -1.2601
 4033TIP3   OH233589   0.058   2.026  25.464  0.0262 -0.3122 -0.0304
 4033TIP3    H133590  -0.005   1.984  25.523  0.6770 -0.6308  0.4577
 4033TIP3    H233591   0.110   2.081  25.522 -0.4745  0.7644 -0.5869
 4034TIP3   OH233592   4.232   0.867   7.011 -0.4983  0.1612  0.8732
 4034TIP3    H133593   4.281   0.878   6.930 -0.6052  0.6496  0.8678
 4034TIP3    H233594   4.299   0.872   7.080 -0.6698  2.4334  0.9657
 4035TIP3   OH233595   2.260   0.770  16.924  0.0693  0.5741  0.1018
 4035TIP3    H133596   2.198   0.752  16.853  0.9639 -0.2071 -0.4920
 4035TIP3    H233597   2.281   0.684  16.960 -0.3409  0.9513  1.3189
 4036TIP3   OH233598   2.787   3.088   6.489 -0.3387  0.1633  0.1409
 4036TIP3    H133599   2.879   3.106   6.469 -0.3444 -1.3386 -1.4396
 4036TIP3    H233600   2.752   3.172   6.520  0.8000  1.5510 -2.1229
 4037TIP3   OH233601   2.322   2.405  26.920 -0.3002 -0.3961 -0.1797
 4037TIP3    H133602   2.258   2.361  26.977 -0.5383 -0.8200 -0.7647
 4037TIP3    H233603   2.396   2.424  26.978 -0.0814 -1.8085  0.0473
 4038TIP3   OH233604   0.551   4.223  32.992 -0.7870  0.1969 -0.7152
 4038TIP3    H133605   0.639   4.239  32.956 -0.5308  1.6931  0.4434
 4038TIP3    H233606   0.506   4.172  32.925  1.3708 -1.7709 -0.7782
 4039TIP3   OH233607   0.933   0.863   6.859 -0.2201 -0.1067  0.1105
 4039TIP3    H133608   0.955   0.788   6.914 -0.1888 -0.1968 -0.0239
 4039TIP3    H233609   0.902   0.824   6.778  1.1826  0.0183 -0.5193
 4040TIP3   OH233610   0.943   2.050  29.294  0.2206 -0.1243  0.2156
 4040TIP3    H133611   0.998   2.047  29.372  3.3137 -0.1781 -1.7661
 4040TIP3    H233612   0.892   1.969  29.297  1.7085 -1.0657  1.2243
 4041TIP3   OH233613   1.623   2.820  12.052  0.1939  0.3716 -0.1553
 4041TIP3    H133614   1.698   2.865  12.090  0.1250 -0.4498  0.9871
 4041TIP3    H233615   1.609   2.864  11.968 -0.2863  2.9387  1.1614
 4042TIP3   OH233616   2.360   2.441  32.160  0.2168  0.4811 -0.0076
 4042TIP3    H133617   2.326   2.428  32.248  0.4478  0.0360  0.0206
 4042TIP3    H233618   2.345   2.357  32.116 -0.3522  0.8543 -0.5489
 4043TIP3   OH233619   2.912   1.931  36.237  0.2553  0.2220 -0.6909
 4043TIP3    H133620   2.996   1.977  36.233  1.4109 -1.8113 -1.4583
 4043TIP3    H233621   2.934   1.845  36.274 -1.7587  0.1337  0.4665
 4044TIP3   OH233622   0.566   1.510  40.827  0.6015  0.3215 -0.4566
 4044TIP3    H133623   0.537   1.561  40.752 -0.7999  1.5023  0.8329
 4044TIP3    H233624   0.506   1.436  40.831  1.3770 -0.3734 -1.1187
 4045TIP3   OH233625   3.871   0.087  33.173 -0.2132 -0.6252  0.2008
 4045TIP3    H133626   3.813   0.012  33.166 -1.8738  0.6809 -0.5929
 4045TIP3    H233627   3.843   0.132  33.252 -0.7442  0.3698 -0.5348
 4046TIP3   OH233628   0.774   1.664   5.817 -0.0035  0.7209 -0.5351
 4046TIP3    H133629   0.790   1.640   5.908  1.7603 -0.6547 -1.1529
 4046TIP3    H233630   0.680   1.684   5.814 -0.6877 -1.7154  1.0918
 4047TIP3   OH233631   2.267   3.513   3.315 -0.6665 -0.0045  0.5349
 4047TIP3    H133632   2.210   3.445   3.348  0.0654 -0.0959  1.6700
 4047TIP3    H233633   2.326   3.468   3.254 -1.4351 -0.0079 -0.2181
 4048TIP3   OH233634   2.695   4.325  13.384 -0.0232  0.4636 -0.2853
 4048TIP3    H133635   2.716   4.349  13.475  0.2030  0.2770 -0.2865
 4048TIP3    H233636   2.779   4.304  13.345  0.1503  2.5943 -1.1558
 4049TIP3   OH233637   2.997   2.768  11.365 -0.4528 -0.0299 -0.0114
 4049TIP3    H133638   3.052   2.699  11.330 -1.3164 -1.9116  2.1074
 4049TIP3    H233639   2.913   2.758  11.319 -0.6712 -0.6241  0.5025
 4050TIP3   OH233640   0.435   4.339  40.632 -0.0197 -0.0787  0.2206
 4050TIP3    H133641   0.436   4.310  40.723  1.4149  4.4256  1.9375
 4050TIP3    H233642   0.527   4.340  40.606 -0.3693 -0.7835 -1.1300
 4051TIP3   OH233643   1.847   3.934  31.468  0.4195  0.0357 -0.8115
 4051TIP3    H133644   1.854   3.839  31.475 -0.0135  0.0176 -0.5393
 4051TIP3    H233645   1.776   3.948  31.405 -1.6894  0.1300  1.4079
 4052TIP3   OH233646   0.148   3.281  11.938  0.0892 -0.0538 -0.3949
 4052TIP3    H133647   0.235   3.242  11.929  0.2609  0.1787  0.1915
 4052TIP3    H233648   0.166   3.372  11.964 -0.3157  0.2282 -1.0786
 4053TIP3   OH233649   1.547   0.306   0.278 -0.3017  0.5222  0.2002
 4053TIP3    H133650   1.504   0.328   0.361  0.5266  0.3971  0.6797
 4053TIP3    H233651   1.498   0.231   0.245  0.2386 -0.3811  1.3376
 4054TIP3   OH233652   2.722   1.971  29.792 -0.0920  0.2016 -0.6503
 4054TIP3    H133653   2.678   1.947  29.873  0.2078 -0.2593 -0.6174
 4054TIP3    H233654   2.657   2.021  29.743 -0.2725  0.4893 -0.1275
 4055TIP3   OH233655   3.981   2.821   7.600 -0.2748  0.4066 -0.0210
 4055TIP3    H133656   3.960   2.892   7.540  1.5324  0.6972 -0.3796
 4055TIP3    H233657   3.999   2.746   7.543  0.2918  0.3628  0.2053
 4056TIP3   OH233658   4.012   0.669   0.667 -0.2179 -0.8053 -0.3989
 4056TIP3    H133659   3.977   0.757   0.653 -1.7567 -1.2531  0.4076
 4056TIP3    H233660   4.073   0.679   0.740  0.6757 -0.1743 -1.2115
 4057TIP3   OH233661   2.368   4.113  40.703  0.4473 -0.1405 -0.1581
 4057TIP3    H133662   2.341   4.168  40.777  2.2570  0.9427 -0.2452
 4057TIP3    H233663   2.388   4.175  40.634  0.3213 -1.0678 -1.0432
 4058TIP3   OH233664   0.838   4.064  37.181 -0.6422  0.2315 -0.0727
 4058TIP3    H133665   0.798   4.019  37.106  1.0968 -0.7321 -0.4868
 4058TIP3    H233666   0.791   4.147  37.187 -1.4553 -0.0699 -1.6695
 4059TIP3   OH233667   2.404   3.789  33.616  0.0904 -0.3666  0.0854
 4059TIP3    H133668   2.471   3.722  33.634 -0.0184 -1.1799 -2.2751
 4059TIP3    H233669   2.336   3.772  33.681  2.2644  0.7841  2.8944
 4060TIP3   OH233670   4.113   2.768  30.797 -0.3470  0.0730  0.3738
 4060TIP3    H133671   4.205   2.745  30.806 -0.1636  0.0856 -1.1845
 4060TIP3    H233672   4.088   2.734  30.712 -1.5204  0.9103  0.3563
 4061TIP3   OH233673   0.143   3.830  40.165 -0.3772  0.6176 -0.1458
 4061TIP3    H133674   0.121   3.842  40.073  0.2619 -0.6332 -0.4926
 4061TIP3    H233675   0.227   3.874  40.176  0.0669 -0.1137 -0.4520
 4062TIP3   OH233676   3.972   0.989  24.094  0.2780  0.0146 -0.5828
 4062TIP3    H133677   4.034   0.919  24.114 -0.3221 -0.6862 -1.1083
 4062TIP3    H233678   4.005   1.065  24.142  1.3212 -0.4458 -0.5422
 4063TIP3   OH233679   1.734   4.124   5.515 -0.1259 -0.2859 -0.6289
 4063TIP3    H133680   1.675   4.160   5.448 -0.1091 -0.3150 -0.6598
 4063TIP3    H233681   1.677   4.102   5.588  0.0699  1.3523  0.0488
 4064TIP3   OH233682   0.302   3.358   3.688 -0.3623  0.4883  0.3066
 4064TIP3    H133683   0.299   3.374   3.782  0.5164  3.6353 -0.1041
 4064TIP3    H233684   0.394   3.344   3.668 -0.8066 -3.2114  0.2182
 4065TIP3   OH233685   3.290   1.064   1.636 -0.0056  1.1531 -0.4708
 4065TIP3    H133686   3.250   1.078   1.722  0.0344 -0.2350 -0.2017
 4065TIP3    H233687   3.215   1.054   1.577 -0.0352  1.3938 -0.4756
 4066TIP3   OH233688   0.136   1.557  35.426  0.5583  0.6305 -0.2197
 4066TIP3    H133689   0.197   1.587  35.494  0.5792  0.3950 -0.1314
 4066TIP3    H233690   0.049   1.569  35.465  0.6073 -0.6273  0.3283
 4067TIP3   OH233691   2.918   1.568  38.261  0.2380  0.3439 -0.4512
 4067TIP3    H133692   2.877   1.496  38.309 -0.0714 -0.0782 -1.3164
 4067TIP3    H233693   2.845   1.618  38.225  0.2577 -2.0295 -4.4183
 4068TIP3   OH233694   1.594   1.860  38.254  0.1985 -0.0350  0.1936
 4068TIP3    H133695   1.531   1.800  38.294  0.3398 -0.2301  0.1248
 4068TIP3    H233696   1.640   1.807  38.188  1.3764 -0.2694  1.1715
 4069TIP3   OH233697   0.750   4.177   9.013  0.5907  0.1195 -0.1262
 4069TIP3    H133698   0.759   4.261   9.059 -0.5606  0.4261 -0.4334
 4069TIP3    H233699   0.703   4.199   8.933  2.6783 -0.3863 -1.5664
 4070TIP3   OH233700   3.013   1.644  39.237 -0.3077  0.1015  0.2978
 4070TIP3    H133701   3.069   1.721  39.241  1.4882 -0.9692 -1.6879
 4070TIP3    H233702   3.040   1.590  39.312 -1.1124  1.0502  1.3033
 4071TIP3   OH233703   3.874   1.083   4.969 -0.9357  0.4207 -0.7063
 4071TIP3    H133704   3.950   1.037   4.934 -1.5802  0.1511 -1.7874
 4071TIP3    H233705   3.814   1.014   4.996  0.3841  0.5024  3.1144
 4072TIP3   OH233706   1.365   3.914  28.831  0.2258  0.2704 -0.1342
 4072TIP3    H133707   1.353   3.819  28.836  0.5685 -0.0983 -3.6750
 4072TIP3    H233708   1.436   3.926  28.769  0.2568  2.8867  0.2910
 4073TIP3   OH233709   4.229   0.455   4.190 -1.1992  0.4449  0.4204
 4073TIP3    H133710   4.170   0.480   4.261 -0.6458 -1.2185  1.5358
 4073TIP3    H233711   4.251   0.363   4.208 -0.8650  0.0235 -1.7955
 4074TIP3   OH233712   0.714   3.021  12.433  0.7861 -0.1679 -0.1237
 4074TIP3    H133713   0.806   3.025  12.407  1.9168 -2.8073  2.7834
 4074TIP3    H233714   0.679   2.946  12.385  0.7732 -0.4234  0.2745
 4075TIP3   OH233715   4.081   0.926   6.012  0.4682 -0.4453 -0.0461
 4075TIP3    H133716   4.038   1.011   6.023  0.6752 -0.6655  3.6454
 4075TIP3    H233717   4.158   0.945   5.958  0.7976  1.8543  1.1024
 4076TIP3   OH233718   1.103   1.123  27.031  0.1994 -0.3096  1.0124
 4076TIP3    H133719   1.089   1.062  26.959 -0.3789  3.2221 -2.2170
 4076TIP3    H233720   1.015   1.144  27.062  0.2194  0.4949  0.5529
 4077TIP3   OH233721   3.404   2.157   0.023  0.2786  0.2996 -0.5410
 4077TIP3    H133722   3.468   2.227   0.013  0.3802  0.2793 -0.0803
 4077TIP3    H233723   3.334   2.196   0.076  1.4341 -0.5950  1.7991
 4078TIP3   OH233724   1.506   1.858   9.147 -0.3236 -0.0725 -0.1067
 4078TIP3    H133725   1.486   1.765   9.154 -0.2884 -0.3283 -2.5059
 4078TIP3    H233726   1.569   1.875   9.218  0.4814 -2.1202 -0.2598
 4079TIP3   OH233727   0.815   3.213   7.027 -0.0272  0.3343  0.3308
 4079TIP3    H133728   0.780   3.262   7.101  0.9686  0.0031  1.0375
 4079TIP3    H233729   0.901   3.181   7.057  0.1702 -0.2334 -0.7779
 4080TIP3   OH233730   0.474   4.385  35.691 -0.0130 -0.8536 -0.0377
 4080TIP3    H133731   0.539   4.338  35.743  0.1541  0.3156  0.8620
 4080TIP3    H233732   0.460   4.467  35.738  0.2379  0.3279 -1.8884
 4081TIP3   OH233733   1.369   3.873  37.303 -0.2281  0.3970 -0.9756
 4081TIP3    H133734   1.287   3.903  37.343 -0.7658 -0.6413 -1.2477
 4081TIP3    H233735   1.348   3.785  37.270  1.3502 -0.4195  0.0674
 4082TIP3   OH233736   1.791   0.363  41.020 -0.0879 -0.2575  0.1740
 4082TIP3    H133737   1.872   0.385  41.066  0.1597 -1.1635  0.1966
 4082TIP3    H233738   1.780   0.269  41.035  0.0778 -0.6238 -1.7397
 4083TIP3   OH233739   3.616   1.758  32.420  0.1910 -0.0690 -0.5756
 4083TIP3    H133740   3.565   1.682  32.392 -1.6466  0.7788  0.3579
 4083TIP3    H233741   3.684   1.767  32.353 -1.1825 -0.9312 -2.1401
 4084TIP3   OH233742   0.090   2.711  38.850  0.0000  0.3822 -0.4609
 4084TIP3    H133743   0.078   2.703  38.756 -0.0584  2.5954 -0.6798
 4084TIP3    H233744   0.062   2.800  38.871  1.6067  0.5294  1.3808
 4085TIP3   OH233745   3.671   4.023  38.986  0.2532  0.3902 -0.2436
 4085TIP3    H133746   3.715   3.990  39.065 -2.2208 -1.3230  0.5380
 4085TIP3    H233747   3.654   4.115  39.005  0.1091  0.1155  1.0546
 4086TIP3   OH233748   0.747   3.250  32.421 -0.0011 -0.4042 -0.0544
 4086TIP3    H133749   0.658   3.215  32.413 -0.0024 -0.1623 -1.2855
 4086TIP3    H233750   0.768   3.241  32.514 -1.4122 -0.2141  0.3048
 4087TIP3   OH233751   3.620   0.860  32.768  0.0130 -0.1985  0.0163
 4087TIP3    H133752   3.567   0.809  32.829  0.4293 -0.2722  0.3194
 4087TIP3    H233753   3.568   0.940  32.754 -0.1573 -0.2468  0.3476
 4088TIP3   OH233754   3.232   3.506   7.390 -0.4887  0.2261 -0.6603
 4088TIP3    H133755   3.173   3.434   7.368  1.6414 -1.0363 -2.7569
 4088TIP3    H233756   3.209   3.576   7.329 -1.0196  0.4640 -0.1975
 4089TIP3   OH233757   2.224   1.117  35.393  0.0436 -0.3692 -0.0519
 4089TIP3    H133758   2.181   1.033  35.379  0.4680 -0.5715 -0.1444
 4089TIP3    H233759   2.155   1.174  35.426  0.0424 -1.0876  1.2186
 4090TIP3   OH233760   4.327   1.427  38.730 -0.9838 -0.0994  0.0330
 4090TIP3    H133761   4.359   1.345  38.768  2.5440  1.2544  0.3786
 4090TIP3    H233762   4.385   1.444  38.656 -0.7903  2.6015  0.6750
 4091TIP3   OH233763   0.507   3.935  40.919  0.0164  0.5637  0.4900
 4091TIP3    H133764   0.418   3.929  40.952 -0.1936 -0.0529 -0.1630
 4091TIP3    H233765   0.550   3.856  40.950  0.1746  0.5864  0.3279
 4092TIP3   OH233766   0.124   1.316  32.376 -0.4295 -0.4412 -0.4520
 4092TIP3    H133767   0.195   1.365  32.336  0.0693  0.0754  1.0041
 4092TIP3    H233768   0.161   1.230  32.395 -0.2192 -0.2029  0.2207
 4093TIP3   OH233769   2.084   2.917   4.447 -0.0998 -0.1223 -0.3503
 4093TIP3    H133770   2.170   2.927   4.405 -0.8337 -0.8163 -2.1374
 4093TIP3    H233771   2.057   3.006   4.468  0.0737  0.3232 -1.8918
 4094TIP3   OH233772   0.504   0.323  28.252  0.0578 -0.8575 -0.0380
 4094TIP3    H133773   0.534   0.311  28.162 -0.0807 -0.5997 -0.1188
 4094TIP3    H233774   0.458   0.407  28.251  1.6110  0.0424  0.6783
 4095TIP3   OH233775   4.081   3.900   4.114 -0.0182  0.4104  0.3475
 4095TIP3    H133776   4.160   3.899   4.060  0.1389  0.4514  0.5794
 4095TIP3    H233777   4.015   3.943   4.058 -0.6276 -1.9627 -0.9059
 4096TIP3   OH233778   0.715   3.207   8.371  0.7672 -0.5362  0.0221
 4096TIP3    H133779   0.655   3.167   8.308 -2.4052  0.5093  2.1573
 4096TIP3    H233780   0.736   3.292   8.333  1.4873 -1.1659 -1.0402
 4097TIP3   OH233781   1.441   3.436   0.287 -0.1181  0.0615  0.0888
 4097TIP3    H133782   1.452   3.363   0.226  1.4313 -0.8898  1.4056
 4097TIP3    H233783   1.392   3.502   0.238  0.4723 -0.9153 -1.9236
 4098TIP3   OH233784   0.638   3.946  12.275  0.7768 -0.9448 -0.8109
 4098TIP3    H133785   0.707   3.908  12.329 -0.6279 -1.2437  0.8544
 4098TIP3    H233786   0.610   3.874  12.218  0.4567 -1.4304 -0.0535
 4099TIP3   OH233787   2.758   1.193  29.057 -0.1185  0.1081 -0.4157
 4099TIP3    H133788   2.793   1.247  29.128  0.6322  1.8259 -2.0213
 4099TIP3    H233789   2.805   1.221  28.979  0.7020 -3.2714 -1.3135
 4100TIP3   OH233790   1.509   2.378   1.375 -0.0161  0.2842  0.8444
 4100TIP3    H133791   1.444   2.308   1.369  0.6927 -0.3679  0.5925
 4100TIP3    H233792   1.556   2.360   1.456 -0.6898  1.2481  1.4669
 4101TIP3   OH233793   3.274   4.043   5.033 -0.1138 -0.0555  0.1092
 4101TIP3    H133794   3.269   4.107   5.104 -0.5352 -0.8786  0.8401
 4101TIP3    H233795   3.286   3.959   5.077  1.4560 -0.3893 -0.8727
 4102TIP3   OH233796   1.177   3.723  18.489 -0.1172  0.1776 -0.0057
 4102TIP3    H133797   1.195   3.694  18.578 -0.3108 -0.9995 -0.3321
 4102TIP3    H233798   1.261   3.715  18.443 -0.4022 -1.0267 -0.3811
 4103TIP3   OH233799   1.745   3.244   9.008  0.3536 -0.2120  0.5843
 4103TIP3    H133800   1.700   3.179   8.955  1.3222  0.3636 -1.0359
 4103TIP3    H233801   1.680   3.273   9.072 -1.2604 -0.1588 -0.9913
 4104TIP3   OH233802   2.460   0.073   5.241 -0.4759 -0.3527 -0.3557
 4104TIP3    H133803   2.461   0.048   5.149 -0.8753 -1.8172  0.0219
 4104TIP3    H233804   2.372   0.052   5.271 -0.9492  1.7730 -0.0463
 4105TIP3   OH233805   3.347   3.758  33.155 -0.3240 -0.2120  0.1073
 4105TIP3    H133806   3.424   3.741  33.210 -0.3691 -0.4814  0.0909
 4105TIP3    H233807   3.275   3.769  33.217 -0.2421  0.2146  0.1288
 4106TIP3   OH233808   2.410   4.275  10.879  0.8890 -0.4199  0.0019
 4106TIP3    H133809   2.321   4.249  10.901  0.5636  0.4341 -0.2370
 4106TIP3    H233810   2.465   4.230  10.942  0.2205 -0.3291  0.6608
 4107TIP3   OH233811   4.391   3.983  36.432 -0.3064  0.2546  0.0505
 4107TIP3    H133812   4.304   3.947  36.451  0.0142 -0.1807  0.7377
 4107TIP3    H233813   4.419   3.938  36.352 -0.5065  0.0299  0.1083
 4108TIP3   OH233814   2.685   1.014  13.646  0.0710 -0.2858 -0.3659
 4108TIP3    H133815   2.658   0.924  13.625 -0.7392  0.0860 -0.9640
 4108TIP3    H233816   2.758   1.031  13.586  0.8252 -0.8497  0.3719
 4109TIP3   OH233817   3.002   0.029  14.006 -0.3216  0.0354  0.2546
 4109TIP3    H133818   2.940   0.009  14.077  1.1984  0.7030  1.8369
 4109TIP3    H233819   2.954   0.088  13.948 -1.8498 -1.1033  0.2917
 4110TIP3   OH233820   0.437   0.428  13.226 -0.4186 -0.5671 -0.2426
 4110TIP3    H133821   0.473   0.503  13.180 -0.1097  0.0782  1.0273
 4110TIP3    H233822   0.438   0.357  13.161  0.3078  0.2254 -1.1125
 4111TIP3   OH233823   3.516   4.151  33.682 -0.1478 -0.2197  0.3053
 4111TIP3    H133824   3.491   4.077  33.627 -0.1214  0.9244 -1.3080
 4111TIP3    H233825   3.460   4.143  33.760 -0.8129 -1.3871 -0.2689
 4112TIP3   OH233826   1.250   2.928   9.202 -0.6324  0.0664  0.4388
 4112TIP3    H133827   1.292   2.962   9.282  0.1514  1.6955 -0.6112
 4112TIP3    H233828   1.292   2.843   9.188  1.8561  1.2931 -0.1248
 4113TIP3   OH233829   1.122   2.221  40.437  0.0983 -0.0627 -0.3494
 4113TIP3    H133830   1.120   2.133  40.474 -0.1722  0.1632  0.1778
 4113TIP3    H233831   1.206   2.225  40.391 -0.1318 -0.7787 -0.8465
 4114TIP3   OH233832   0.683   2.470  30.439 -0.6937  0.2250 -0.0345
 4114TIP3    H133833   0.603   2.435  30.401 -1.1363 -0.6623  1.6564
 4114TIP3    H233834   0.670   2.467  30.533  0.7643  1.4382  0.2670
 4115TIP3   OH233835   3.293   3.024   5.682 -0.0953  1.7016  0.5948
 4115TIP3    H133836   3.320   3.089   5.747 -0.7233  2.3259  0.2487
 4115TIP3    H233837   3.199   3.013   5.697  0.3113 -0.6327  1.9619
 4116TIP3   OH233838   3.654   3.429  37.943 -0.5709  0.1787 -0.1513
 4116TIP3    H133839   3.627   3.520  37.945 -2.2893 -0.3040  0.6614
 4116TIP3    H233840   3.663   3.405  38.036  1.2428 -0.1200 -0.3730
 4117TIP3   OH233841   2.638   3.583  33.902  0.3028 -0.6172 -0.0175
 4117TIP3    H133842   2.543   3.583  33.911  0.1434 -1.2027 -1.3412
 4117TIP3    H233843   2.662   3.675  33.904 -0.2078 -0.4983  1.0152
 4118TIP3   OH233844   2.255   1.879   2.566 -0.0866 -0.4104  0.1858
 4118TIP3    H133845   2.337   1.829   2.574 -1.1420 -2.3546 -0.4958
 4118TIP3    H233846   2.225   1.891   2.656  1.0060  0.4819  0.4545
 4119TIP3   OH233847   2.297   1.234  40.803 -0.2596 -0.3236 -0.7084
 4119TIP3    H133848   2.269   1.255  40.893 -0.3061 -2.2438 -0.2224
 4119TIP3    H233849   2.215   1.225  40.755 -0.3785 -1.7750 -0.2982
 4120TIP3   OH233850   3.244   0.450   9.231 -0.0301  0.0985  0.0082
 4120TIP3    H133851   3.233   0.425   9.139  1.1097 -0.4778  0.0091
 4120TIP3    H233852   3.166   0.501   9.252 -0.8996 -0.7962 -0.9301
 4121TIP3   OH233853   1.646   2.655  37.636  0.1421  0.2638  0.1430
 4121TIP3    H133854   1.676   2.698  37.717  2.5894  0.4288 -0.7726
 4121TIP3    H233855   1.660   2.719  37.567  1.9290 -1.2219 -0.9658
 4122TIP3   OH233856   3.445   3.339  34.436 -0.5249 -0.0392 -0.4340
 4122TIP3    H133857   3.485   3.426  34.425  0.2364 -0.1744  1.0662
 4122TIP3    H233858   3.498   3.296  34.502 -1.8147 -1.0904 -0.0287
 4123TIP3   OH233859   2.200   0.675  13.797 -0.0809 -0.3738  0.1330
 4123TIP3    H133860   2.257   0.642  13.728  0.5832 -0.6587  0.8044
 4123TIP3    H233861   2.209   0.771  13.792  0.9210 -0.4326  0.6051
 4124TIP3   OH233862   3.127   1.928   9.168 -0.3640 -0.0991 -0.2129
 4124TIP3    H133863   3.197   1.869   9.139  1.0443  0.7448  1.2365
 4124TIP3    H233864   3.071   1.940   9.092  0.1669 -2.0834 -0.9638
 4125TIP3   OH233865   1.312   1.359  30.036 -0.1360 -0.1613 -0.1643
 4125TIP3    H133866   1.370   1.404  29.974 -0.2777  0.2026 -0.0324
 4125TIP3    H233867   1.240   1.328  29.982 -1.1695  1.6840  0.0596
 4126TIP3   OH233868   0.939   2.134  37.833 -0.7420  0.0759  0.6308
 4126TIP3    H133869   0.913   2.137  37.925 -1.3541  2.6114  0.4557
 4126TIP3    H233870   0.874   2.078  37.791 -2.9395  2.1143  1.1210
 4127TIP3   OH233871   1.422   3.641   4.560  0.1078 -0.0664  0.5047
 4127TIP3    H133872   1.482   3.702   4.603  0.3126  0.3678 -0.3737
 4127TIP3    H233873   1.478   3.571   4.527  0.0005 -0.1828  0.5656
 4128TIP3   OH233874   2.123   3.523  35.813  0.7282  0.4550  0.3537
 4128TIP3    H133875   2.110   3.456  35.880 -0.0953  0.4562  0.2153
 4128TIP3    H233876   2.199   3.493  35.763  0.2898 -0.4515  0.2107
 4129TIP3   OH233877   4.138   4.139  41.510  0.5157 -0.2575 -0.4066
 4129TIP3    H133878   4.178   4.078  41.448  1.3156  0.0870 -0.2463
 4129TIP3    H233879   4.044   4.123  41.502  0.6653 -0.9151 -0.9772
 4130TIP3   OH233880   2.940   1.625  34.967 -0.2459  0.1360 -0.3686
 4130TIP3    H133881   3.001   1.692  34.999 -0.4875  0.7900 -1.2109
 4130TIP3    H233882   2.995   1.549  34.950  0.4312  0.8194 -1.4333
 4131TIP3   OH233883   0.626   3.880  10.461  0.3248  0.5653 -0.5192
 4131TIP3    H133884   0.634   3.863  10.367 -0.8619 -0.5144 -0.4479
 4131TIP3    H233885   0.543   3.927  10.470 -0.0483 -0.1891  0.0718
 4132TIP3   OH233886   4.111   3.634  26.652  0.0857  0.3422 -0.0377
 4132TIP3    H133887   4.023   3.637  26.614 -1.1017 -0.2236  2.4215
 4132TIP3    H233888   4.137   3.542  26.643 -0.2500  0.1803  0.5454
 4133TIP3   OH233889   2.561   3.901   3.510 -0.0703 -0.1223 -0.3774
 4133TIP3    H133890   2.655   3.915   3.494  0.3707 -2.7610 -0.4481
 4133TIP3    H233891   2.543   3.952   3.590  1.8833 -1.0624  0.7399
 4134TIP3   OH233892   1.833   3.661  17.609  0.3475  0.1711 -0.7566
 4134TIP3    H133893   1.755   3.607  17.619 -0.5730  1.7664  1.6492
 4134TIP3    H233894   1.905   3.605  17.637 -0.2539 -0.5405 -0.5985
 4135TIP3   OH233895   2.962   1.861  29.751  0.2033 -1.0281  0.5707
 4135TIP3    H133896   2.869   1.879  29.764  0.7392  2.6787  0.2405
 4135TIP3    H233897   3.006   1.905  29.824  1.7834 -1.0851 -0.2899
 4136TIP3   OH233898   4.243   3.571  38.711 -0.4418 -0.6875  0.4993
 4136TIP3    H133899   4.246   3.638  38.779 -2.0373  0.9857 -0.9759
 4136TIP3    H233900   4.164   3.520  38.730  0.0098 -1.2852  0.8147
 4137TIP3   OH233901   3.896   1.223  33.901  0.0993  0.4522  0.1636
 4137TIP3    H133902   3.968   1.244  33.960  0.2259  1.5211 -0.3557
 4137TIP3    H233903   3.918   1.268  33.819  0.1913 -1.4152 -0.8969
 4138TIP3   OH233904   2.893   1.630  12.034 -0.7430 -0.0245  0.0398
 4138TIP3    H133905   2.941   1.626  12.117 -1.0351 -0.1470  0.2064
 4138TIP3    H233906   2.892   1.539  12.003 -0.1755  0.1009 -0.3688
 4139TIP3   OH233907   3.106   1.176  12.895  0.6594 -0.3979 -0.3307
 4139TIP3    H133908   3.012   1.191  12.892  0.5898 -0.5117  0.7190
 4139TIP3    H233909   3.132   1.207  12.982  1.4833 -0.9423 -0.3725
 4140TIP3   OH233910   3.390   2.788   8.807  0.0725  0.0157  0.1814
 4140TIP3    H133911   3.472   2.822   8.844 -0.2221  0.6274  0.2850
 4140TIP3    H233912   3.380   2.835   8.724  0.4320 -0.9318 -0.4193
 4141TIP3   OH233913   1.094   2.121  33.836 -0.6548  0.5560  0.6219
 4141TIP3    H133914   1.162   2.186  33.815 -3.4881  3.7422  0.4312
 4141TIP3    H233915   1.049   2.157  33.912 -2.6446 -0.9971  0.2621
 4142TIP3   OH233916   1.647   3.645   7.994  0.6851  0.5159  0.4589
 4142TIP3    H133917   1.589   3.720   8.010  1.2354  0.8457  0.9430
 4142TIP3    H233918   1.655   3.603   8.079  0.4611 -0.0408  0.2075
 4143TIP3   OH233919   1.488   1.289   5.750  0.1521 -0.2404  0.0925
 4143TIP3    H133920   1.399   1.269   5.779  0.5664 -1.0048  0.8834
 4143TIP3    H233921   1.483   1.285   5.654 -1.1371  1.9167 -0.0014
 4144TIP3   OH233922   2.378   0.442  19.249 -0.1637 -0.0891 -0.0972
 4144TIP3    H133923   2.323   0.472  19.177  1.2545 -0.7267 -1.4856
 4144TIP3    H233924   2.467   0.465  19.223  0.5946 -2.1260  0.5132
 4145TIP3   OH233925   1.352   0.466  10.734  0.0588  0.2523 -0.6391
 4145TIP3    H133926   1.267   0.493  10.771  0.9167  2.4964 -0.1051
 4145TIP3    H233927   1.330   0.401  10.667 -2.0346  0.4128 -0.1738
 4146TIP3   OH233928   1.107   3.639  15.328 -0.7183 -0.1565 -0.8406
 4146TIP3    H133929   1.152   3.561  15.296 -0.8983 -0.1346 -1.1554
 4146TIP3    H233930   1.143   3.710  15.275 -0.9250 -0.1022 -0.9099
 4147TIP3   OH233931   3.955   0.466   6.955 -0.0035 -0.6261 -0.0097
 4147TIP3    H133932   3.961   0.555   6.989 -0.8119 -0.0923 -1.1921
 4147TIP3    H233933   4.005   0.467   6.874 -0.7002 -1.0278 -0.4533
 4148TIP3   OH233934   1.491   2.973  30.330 -0.2778 -0.2326  0.2005
 4148TIP3    H133935   1.559   2.963  30.397  2.0860 -1.4247 -2.2004
 4148TIP3    H233936   1.489   3.067  30.311  0.3474 -0.1274  0.6321
 4149TIP3   OH233937   2.633   1.605   5.266 -0.0311  0.4693 -0.4480
 4149TIP3    H133938   2.567   1.607   5.335  0.8950 -0.8785  0.5297
 4149TIP3    H233939   2.661   1.696   5.256 -0.6970  0.7811  0.4607
 4150TIP3   OH233940   0.156   2.944  39.812 -0.5057 -0.0145  0.3015
 4150TIP3    H133941   0.097   2.979  39.745  0.4781  1.0237 -0.0409
 4150TIP3    H233942   0.151   3.008  39.883  0.7514  0.4597 -0.0269
 4151TIP3   OH233943   2.187   4.387   8.895  0.6392  0.2918  0.0468
 4151TIP3    H133944   2.114   4.431   8.850  0.2007 -0.0253  0.4346
 4151TIP3    H233945   2.264   4.441   8.875  0.6570 -0.4286 -1.9516
 4152TIP3   OH233946   0.472   1.005  29.972 -0.4593  0.2041  0.0957
 4152TIP3    H133947   0.471   0.940  29.901  1.0749  2.1180 -1.7879
 4152TIP3    H233948   0.504   0.956  30.048  1.7011 -1.0876 -1.5237
 4153TIP3   OH233949   3.411   0.857  31.519 -0.4749  0.2642  0.3733
 4153TIP3    H133950   3.345   0.844  31.451 -1.8596 -0.0627  1.7340
 4153TIP3    H233951   3.380   0.933  31.569 -0.1235 -0.2211  1.3618
 4154TIP3   OH233952   1.763   4.246   4.627 -0.0442  0.3192 -0.1500
 4154TIP3    H133953   1.821   4.181   4.587  0.1213 -0.2500  0.9712
 4154TIP3    H233954   1.822   4.310   4.666 -0.1747 -0.0163  0.6010
 4155TIP3   OH233955   0.289   2.783   0.611 -0.3894 -0.4206 -0.2637
 4155TIP3    H133956   0.382   2.798   0.598 -0.3860 -1.0603 -1.1199
 4155TIP3    H233957   0.246   2.841   0.548 -0.5772 -0.0569  0.1942
 4156TIP3   OH233958   0.521   0.089  33.495 -0.3203  0.2844 -0.3366
 4156TIP3    H133959   0.544   0.181  33.497  1.3412 -0.0973  0.1826
 4156TIP3    H233960   0.606   0.043  33.497 -1.1178 -1.2436  0.0708
 4157TIP3   OH233961   0.849   4.036  29.017 -0.3544  0.5463  0.5709
 4157TIP3    H133962   0.925   3.982  29.040 -0.1507 -0.0005 -1.2484
 4157TIP3    H233963   0.879   4.092  28.946 -1.3621  1.0768  0.5435
 4158TIP3   OH233964   4.205   3.149  36.766 -0.3691 -0.3252 -0.6129
 4158TIP3    H133965   4.248   3.082  36.818  0.3921  3.3210  4.1653
 4158TIP3    H233966   4.272   3.177  36.703  0.4679 -1.7546 -0.4033
 4159TIP3   OH233967   0.710   2.200  27.292  0.4042 -0.2179 -0.4629
 4159TIP3    H133968   0.687   2.118  27.249  1.1557 -0.5043 -0.3429
 4159TIP3    H233969   0.738   2.258  27.222  2.0517 -0.8286 -0.3598
 4160TIP3   OH233970   3.641   3.872  38.511  0.1175 -0.2135 -0.2813
 4160TIP3    H133971   3.709   3.807  38.528  0.4025  0.0937 -0.2370
 4160TIP3    H233972   3.630   3.917  38.595 -0.7781 -0.8564 -0.0384
 4161TIP3   OH233973   1.056   1.725  27.069 -0.1351 -0.5619  0.9399
 4161TIP3    H133974   1.100   1.756  26.990 -0.6088  1.2490  1.3547
 4161TIP3    H233975   1.123   1.728  27.137 -0.6979  1.7758  1.4732
 4162TIP3   OH233976   2.950   2.827   1.242  0.1405  0.5760  0.1234
 4162TIP3    H133977   2.878   2.890   1.237 -0.6071 -0.2071  0.6439
 4162TIP3    H233978   3.001   2.842   1.163 -1.2649  0.3760 -0.8544
 4163TIP3   OH233979   2.062   0.765  34.563 -0.2676 -0.2382  0.1756
 4163TIP3    H133980   2.002   0.831  34.529  0.2855 -0.7296 -1.8383
 4163TIP3    H233981   2.054   0.691  34.504  1.7018 -0.6218  0.3106
 4164TIP3   OH233982   2.876   4.129  33.852 -0.1251  0.0729  0.0688
 4164TIP3    H133983   2.863   4.215  33.893 -0.8145 -0.2316  0.5138
 4164TIP3    H233984   2.792   4.111  33.808 -0.2862 -0.7313  0.6819
 4165TIP3   OH233985   0.862   2.639  14.234 -0.0172  0.5677  0.3538
 4165TIP3    H133986   0.791   2.576  14.233  0.2974 -0.0550  3.9304
 4165TIP3    H233987   0.942   2.586  14.233  0.3159  1.0648  0.1781
 4166TIP3   OH233988   2.106   4.349   7.896 -0.1782 -0.4887  0.5054
 4166TIP3    H133989   2.049   4.373   7.823  0.5016 -0.5764 -0.0655
 4166TIP3    H233990   2.054   4.365   7.974 -0.5399  0.6453  0.0432
 4167TIP3   OH233991   0.888   0.668   5.036 -0.4186  0.0645 -0.2922
 4167TIP3    H133992   0.821   0.600   5.026 -0.2914  0.1505 -1.9072
 4167TIP3    H233993   0.853   0.743   4.989 -0.2030  0.8869  0.8249
 4168TIP3   OH233994   2.267   0.879   8.795  0.0341  0.1983 -0.1866
 4168TIP3    H133995   2.223   0.928   8.864  2.2093  0.6522  0.9786
 4168TIP3    H233996   2.239   0.922   8.714 -0.2069  1.6680  0.6368
 4169TIP3   OH233997   3.741   2.816   1.620 -0.1020  0.6125 -0.2598
 4169TIP3    H133998   3.784   2.730   1.614 -2.4624 -0.5619 -2.0641
 4169TIP3    H233999   3.705   2.819   1.708  0.6222  0.0759  0.0660
 4170TIP3   OH234000   1.615   0.369  28.719 -0.2733  0.0431 -0.2859
 4170TIP3    H134001   1.535   0.384  28.667 -0.6604  0.2000  0.3359
 4170TIP3    H234002   1.582   0.341  28.805  0.3437  0.1336 -0.0181
 4171TIP3   OH234003   3.847   2.486  35.690 -0.1186  0.0088  0.1458
 4171TIP3    H134004   3.900   2.501  35.768 -1.4247  1.4079  0.8186
 4171TIP3    H234005   3.804   2.402  35.706  0.7335 -0.4276  0.2387
 4172TIP3   OH234006   1.223   2.355  38.269  0.5333 -0.4533  0.3705
 4172TIP3    H134007   1.287   2.370  38.199  1.2333 -1.8062  0.6781
 4172TIP3    H234008   1.199   2.263  38.259  0.1338 -0.4843  1.5028
 4173TIP3   OH234009   1.724   2.034  33.462 -0.4348 -0.6763 -0.5559
 4173TIP3    H134010   1.705   2.069  33.375  1.6842 -0.4401 -0.9614
 4173TIP3    H234011   1.745   1.942  33.447  1.6046 -0.2479 -0.5759
 4174TIP3   OH234012   1.504   0.994  30.343  0.0527  0.0120 -1.0809
 4174TIP3    H134013   1.481   1.053  30.270 -0.0497  0.4074 -0.7336
 4174TIP3    H234014   1.425   0.991  30.397  1.4218  3.3508  1.4792
 4175TIP3   OH234015   1.002   3.405  38.351  0.0862 -0.2225  0.7386
 4175TIP3    H134016   0.953   3.470  38.402 -0.0266 -0.1208  0.4994
 4175TIP3    H234017   1.093   3.434  38.357 -0.0266  0.2640  0.1816
 4176TIP3   OH234018   3.093   0.597  13.292  0.1061 -0.0168 -0.4203
 4176TIP3    H134019   3.120   0.518  13.246  0.1477 -0.6558  0.6760
 4176TIP3    H234020   3.061   0.655  13.223  2.2034 -0.0704 -1.5325
 4177TIP3   OH234021   0.596   3.427   9.243  0.1451  0.1935 -0.0904
 4177TIP3    H134022   0.570   3.462   9.158 -0.1280  2.0181  0.6912
 4177TIP3    H234023   0.655   3.493   9.279  0.4040 -0.6376  1.0437
 4178TIP3   OH234024   2.044   1.833   3.142 -0.2008  0.0811 -0.0538
 4178TIP3    H134025   2.071   1.920   3.111  0.3011 -0.0621 -0.0153
 4178TIP3    H234026   2.058   1.776   3.066 -4.1446  0.6595 -1.4521
 4179TIP3   OH234027   0.775   1.201  39.762  0.2144  0.5361 -0.1876
 4179TIP3    H134028   0.807   1.149  39.836  0.8239  1.6082  0.3263
 4179TIP3    H234029   0.820   1.166  39.686 -0.5492 -0.6953 -0.0947
 4180TIP3   OH234030   4.098   1.228  40.619 -0.0922 -0.1883  0.4984
 4180TIP3    H134031   4.057   1.311  40.644  2.3076  0.8671  1.2250
 4180TIP3    H234032   4.026   1.164  40.619 -1.8533  1.7058  0.7309
 4181TIP3   OH234033   0.390   0.625  39.344  0.6419  0.5062  0.6154
 4181TIP3    H134034   0.378   0.593  39.255  0.1741  1.2980  0.3845
 4181TIP3    H234035   0.317   0.589  39.393  1.7854 -1.2866  1.0775
 4182TIP3   OH234036   1.475   4.254  11.832 -0.2911 -0.3070 -0.1595
 4182TIP3    H134037   1.524   4.316  11.885 -0.0752 -0.9755  0.4331
 4182TIP3    H234038   1.539   4.188  11.807 -0.9732 -1.4854  1.0774
 4183TIP3   OH234039   0.945   3.444   7.390 -0.0237  0.2466  0.2789
 4183TIP3    H134040   1.037   3.467   7.400 -0.4759  1.9051  0.9681
 4183TIP3    H234041   0.899   3.528   7.386 -1.4034 -0.5164 -1.3550
 4184TIP3   OH234042   1.585   3.861  29.872 -0.0505  0.3937 -0.1857
 4184TIP3    H134043   1.557   3.770  29.864  2.1792 -0.2426 -1.7611
 4184TIP3    H234044   1.512   3.912  29.838 -1.8436 -0.6719  1.8821
 4185TIP3   OH234045   0.336   3.907   4.801  0.1940 -0.4055 -0.1377
 4185TIP3    H134046   0.291   3.900   4.717  0.6181  2.9016 -0.8107
 4185TIP3    H234047   0.276   3.957   4.856  2.0184  2.2652 -0.3785
 4186TIP3   OH234048   2.364   1.144  37.392 -0.5714 -0.0385  0.2815
 4186TIP3    H134049   2.388   1.217  37.449 -0.9808 -0.8418  1.4971
 4186TIP3    H234050   2.443   1.091  37.387  0.0773  0.9862 -1.4689
 4187TIP3   OH234051   1.003   1.005  34.766  0.1098 -0.2978 -0.6753
 4187TIP3    H134052   0.978   1.069  34.832  0.1410 -1.3601  0.3997
 4187TIP3    H234053   0.951   1.028  34.689  0.4259  1.2501 -0.4630
 4188TIP3   OH234054   2.000   2.072  33.506 -0.2012  0.6279 -0.7093
 4188TIP3    H134055   1.907   2.051  33.507 -0.1810  0.5280  0.6755
 4188TIP3    H234056   2.010   2.140  33.573  0.6141  1.1628 -1.3495
 4189TIP3   OH234057   2.560   1.167  29.415  0.0735 -0.2984  0.3739
 4189TIP3    H134058   2.573   1.245  29.362 -1.4933 -0.7531 -0.7364
 4189TIP3    H234059   2.530   1.200  29.500 -1.6128  0.2950 -0.4198
 4190TIP3   OH234060   1.425   3.810   2.751 -0.0375  0.1257  0.1830
 4190TIP3    H134061   1.342   3.784   2.789  0.2797  0.7282  1.3386
 4190TIP3    H234062   1.481   3.733   2.758  0.3332  0.5103  1.9159
 4191TIP3   OH234063   3.413   1.137  38.074 -0.2227  0.3677  0.8160
 4191TIP3    H134064   3.478   1.067  38.072 -0.2617  0.3397  0.4143
 4191TIP3    H234065   3.332   1.095  38.044  0.3449  1.1783 -2.2341
 4192TIP3   OH234066   0.016   1.013   4.407 -0.0649  0.1419  0.3754
 4192TIP3    H134067  -0.028   1.096   4.390  1.1957  0.5319 -1.2808
 4192TIP3    H234068  -0.034   0.948   4.357  0.6396  0.4325 -0.7505
 4193TIP3   OH234069   0.788   3.869  41.590 -0.7765 -0.5159  0.2408
 4193TIP3    H134070   0.830   3.925  41.524 -0.4118  2.0236  2.4393
 4193TIP3    H234071   0.723   3.819  41.541  1.4927 -1.0718 -2.5136
 4194TIP3   OH234072   4.099   4.341   0.430  0.1267  0.1737  0.1745
 4194TIP3    H134073   4.070   4.425   0.465 -2.4832 -0.4310 -0.2888
 4194TIP3    H234074   4.108   4.356   0.336 -1.3987 -0.2412 -0.0782
 4195TIP3   OH234075   3.984   4.022   0.554 -0.3247 -0.4153  0.4199
 4195TIP3    H134076   4.078   4.031   0.541 -0.2808 -0.8548  0.4086
 4195TIP3    H234077   3.975   3.997   0.646 -0.4122 -0.5947  0.3636
 4196TIP3   OH234078   1.266   2.985   4.512  0.1467  0.0262  0.0139
 4196TIP3    H134079   1.331   2.917   4.531 -1.1331 -1.1672  0.3116
 4196TIP3    H234080   1.222   3.000   4.596 -0.3419  0.4164 -0.3069
 4197TIP3   OH234081   2.882   2.624  10.458  0.1313  0.5160 -0.1962
 4197TIP3    H134082   2.824   2.594  10.528 -1.6107 -1.4453 -2.3417
 4197TIP3    H234083   2.967   2.585  10.479 -0.6618 -1.0708  0.2029
 4198TIP3   OH234084   0.330   0.479  34.817 -0.1883  0.0371  0.2434
 4198TIP3    H134085   0.411   0.438  34.786  0.8174  1.7123  0.5446
 4198TIP3    H234086   0.262   0.414  34.798  0.8079 -0.3628 -2.4413
 4199TIP3   OH234087   0.659   4.318  31.437  0.2728  0.3079  0.6407
 4199TIP3    H134088   0.667   4.257  31.364 -0.4271  0.4459  0.4411
 4199TIP3    H234089   0.724   4.386  31.419  0.3544  0.1473  0.3353
 4200TIP3   OH234090   0.888   1.657  11.920 -0.5954 -0.0893  0.1561
 4200TIP3    H134091   0.872   1.743  11.960  1.7489  0.0007  1.0652
 4200TIP3    H234092   0.801   1.627  11.894 -1.9298  1.1920  2.6476
 4201TIP3   OH234093   1.592   2.217  11.031 -0.2783  0.3362 -0.1558
 4201TIP3    H134094   1.618   2.254  10.947 -0.1595 -1.2854 -0.8491
 4201TIP3    H234095   1.596   2.292  11.091 -0.5752  1.5697 -1.6032
 4202TIP3   OH234096   3.486   1.724  30.364  0.3437  0.2970  0.0742
 4202TIP3    H134097   3.577   1.719  30.336  0.1215  0.0736 -0.6471
 4202TIP3    H234098   3.490   1.747  30.457  1.1111  2.2120 -0.3780
 4203TIP3   OH234099   2.844   0.968  28.109 -0.5618 -0.3802  0.4750
 4203TIP3    H134100   2.888   0.959  28.025  1.5081  0.6354  1.3751
 4203TIP3    H234101   2.774   0.903  28.107 -0.0523 -0.9377 -1.6858
 4204TIP3   OH234102   4.094   0.419  40.535  0.6111 -0.1664  0.0543
 4204TIP3    H134103   4.041   0.349  40.573 -1.3191  0.6798 -0.9048
 4204TIP3    H234104   4.106   0.482  40.606 -0.4852  0.0514  0.0586
 4205TIP3   OH234105   1.091   0.758  11.301  0.0731  0.2520  0.3002
 4205TIP3    H134106   1.080   0.850  11.327  0.1434  0.0161  1.2090
 4205TIP3    H234107   1.186   0.749  11.287  0.0224  0.4080 -0.1436
 4206TIP3   OH234108   1.355   1.367   1.589 -0.0549  0.5328 -0.0420
 4206TIP3    H134109   1.272   1.411   1.608 -0.5243 -0.0942 -0.5988
 4206TIP3    H234110   1.331   1.276   1.573  0.6378  0.5126 -1.0546
 4207TIP3   OH234111   0.190   2.859  29.860 -0.2840  0.4367  0.0070
 4207TIP3    H134112   0.281   2.873  29.834 -0.2623 -0.6087 -0.5250
 4207TIP3    H234113   0.161   2.944  29.894 -0.0051  1.6095 -2.4948
 4208TIP3   OH234114   1.120   4.165   4.441  0.2384  0.4344  0.5665
 4208TIP3    H134115   1.106   4.141   4.533  1.6099  0.5969  0.8440
 4208TIP3    H234116   1.074   4.249   4.431 -0.2396  0.2305  1.0005
 4209TIP3   OH234117   1.902   0.821   5.008 -0.2306 -0.0588  0.1629
 4209TIP3    H134118   1.825   0.822   5.064  0.1217  0.5584  0.6619
 4209TIP3    H234119   1.939   0.910   5.016 -0.6241  0.3223 -1.6949
 4210TIP3   OH234120   4.260   0.839  35.148 -0.4322  0.1237  0.5557
 4210TIP3    H134121   4.274   0.831  35.053 -0.5557 -0.1362  0.5550
 4210TIP3    H234122   4.325   0.781  35.187 -0.0830  0.5810  0.6491
 4211TIP3   OH234123   1.857   3.461   7.969 -0.2874 -0.1032 -0.3763
 4211TIP3    H134124   1.844   3.396   8.037 -0.5727  0.4257  0.0795
 4211TIP3    H234125   1.778   3.515   7.971  0.2142  0.6370 -0.3254
 4212TIP3   OH234126   2.182   1.166  11.465 -0.2762  0.0016  0.2145
 4212TIP3    H134127   2.263   1.116  11.460 -1.1172 -1.2859 -2.1817
 4212TIP3    H234128   2.139   1.135  11.544  1.1459  0.0587  1.0341
 4213TIP3   OH234129   1.162   2.472  34.670 -0.2523 -0.2395 -0.6052
 4213TIP3    H134130   1.071   2.486  34.695 -0.0067 -0.6552  0.6015
 4213TIP3    H234131   1.209   2.466  34.753  0.7752 -0.6666 -1.1922
 4214TIP3   OH234132   2.935   0.868   3.521  0.4319 -0.0401 -0.1862
 4214TIP3    H134133   3.026   0.840   3.531  0.1408 -1.1607 -0.6110
 4214TIP3    H234134   2.885   0.810   3.580  0.1422  1.5702  1.2431
 4215TIP3   OH234135   0.927   3.505  11.517  0.0292  0.1153 -0.3838
 4215TIP3    H134136   0.858   3.533  11.457  0.5716  3.3589  0.3156
 4215TIP3    H234137   0.881   3.458  11.586 -1.5557  2.1236  0.0168
 4216TIP3   OH234138   0.764   0.137  12.651  0.2899  0.7583  0.0911
 4216TIP3    H134139   0.719   0.086  12.584  0.9619  0.8576 -0.4415
 4216TIP3    H234140   0.693   0.175  12.704 -0.2399  0.5612 -0.4682
 4217TIP3   OH234141   0.107   2.499   5.585 -0.5718 -0.1077  0.0122
 4217TIP3    H134142   0.137   2.577   5.538 -0.0147  1.4362  2.6683
 4217TIP3    H234143   0.015   2.516   5.603 -0.4440 -0.0106  0.6157
 4218TIP3   OH234144   0.546   2.251   7.575 -0.2893 -0.4670 -0.2228
 4218TIP3    H134145   0.467   2.262   7.627  0.2552 -0.2557  0.5840
 4218TIP3    H234146   0.611   2.217   7.637  0.1869 -0.8583 -0.9264
 4219TIP3   OH234147   3.188   0.148  40.730 -0.0893 -0.0284 -0.1335
 4219TIP3    H134148   3.197   0.073  40.672 -1.7998 -0.6411  0.3426
 4219TIP3    H234149   3.277   0.180  40.742  0.4394 -0.7117 -1.9884
 4220TIP3   OH234150   2.663   3.752  10.198 -0.1862 -0.1854  0.2427
 4220TIP3    H134151   2.741   3.796  10.162 -1.8223  2.2792 -0.6098
 4220TIP3    H234152   2.677   3.752  10.292  2.0283 -2.3590  0.0201
 4221TIP3   OH234153   4.393   3.061   3.079  0.5970  0.2814  0.0221
 4221TIP3    H134154   4.460   2.994   3.090 -1.6438 -1.7389  2.7691
 4221TIP3    H234155   4.399   3.114   3.159  0.4918  1.7006 -0.8614
 4222TIP3   OH234156   4.326   2.743  33.324  0.2030 -0.2177  0.1683
 4222TIP3    H134157   4.418   2.736  33.299  0.2205  1.1045 -0.2337
 4222TIP3    H234158   4.327   2.794  33.405 -0.1472 -0.6825  0.4718
 4223TIP3   OH234159   2.365   3.014  36.852  1.0888  0.0790 -0.2345
 4223TIP3    H134160   2.293   2.951  36.847  0.8200  0.4558 -1.3941
 4223TIP3    H234161   2.407   3.010  36.766  0.7348  1.8389 -0.5270
 4224TIP3   OH234162   1.150   0.693  14.285  0.1723 -0.7743 -0.0156
 4224TIP3    H134163   1.225   0.718  14.339 -0.3112 -0.1110  0.3633
 4224TIP3    H234164   1.185   0.688  14.196  0.7420 -0.8313  0.2059
 4225TIP3   OH234165   4.201   1.264   9.103 -0.1346 -0.1743 -0.1272
 4225TIP3    H134166   4.192   1.188   9.160  1.2012 -0.2116  0.0551
 4225TIP3    H234167   4.148   1.243   9.026  1.1149 -1.8048 -0.5934
 4226TIP3   OH234168   2.051   1.459  40.320  0.3945  0.4201  0.3777
 4226TIP3    H134169   1.976   1.511  40.350  0.7762 -0.1890  2.5745
 4226TIP3    H234170   2.023   1.368  40.332  1.8760  0.1626  2.5520
 4227TIP3   OH234171   1.747   0.344  32.453 -0.4961 -0.5249  0.7259
 4227TIP3    H134172   1.829   0.369  32.495  0.6054 -1.8136 -0.5441
 4227TIP3    H234173   1.729   0.415  32.391 -0.4425 -0.1630  1.1201
 4228TIP3   OH234174   3.650   1.637   3.873  0.6401  0.0557  0.4193
 4228TIP3    H134175   3.586   1.569   3.852 -0.9772  1.1628  1.5744
 4228TIP3    H234176   3.701   1.600   3.946  0.2409 -0.1848  0.5768
 4229TIP3   OH234177   3.331   4.079  33.333 -0.6162 -0.1562  0.5486
 4229TIP3    H134178   3.345   4.001  33.386 -1.0247  0.3234  1.3749
 4229TIP3    H234179   3.251   4.118  33.368 -1.2176 -0.1398 -0.7971
 4230TIP3   OH234180   1.242   4.402  38.360 -0.2010  1.0457  0.6283
 4230TIP3    H134181   1.248   4.323  38.414 -1.3805  0.1591 -0.4729
 4230TIP3    H234182   1.306   4.462  38.398  0.6506 -0.3967  1.5604
 4231TIP3   OH234183   1.704   0.637  28.615  0.6377  0.0820 -0.0371
 4231TIP3    H134184   1.788   0.641  28.660  0.5730 -0.1878  0.1088
 4231TIP3    H234185   1.657   0.565  28.657  0.3287  0.2384 -0.1059
 4232TIP3   OH234186   0.388   1.674  33.554  0.0409  0.2170 -0.5402
 4232TIP3    H134187   0.403   1.764  33.524 -4.3822  1.0701 -0.8451
 4232TIP3    H234188   0.371   1.682  33.648  1.7028 -0.6974 -0.1163
 4233TIP3   OH234189   3.449   3.734   0.010 -0.0854 -0.3567  0.4045
 4233TIP3    H134190   3.432   3.780  -0.072  1.0106  0.5237  0.6440
 4233TIP3    H234191   3.488   3.800   0.067  2.4547 -1.7664  0.4437
 4234TIP3   OH234192   3.436   0.347   0.369 -0.0240 -0.2471 -0.4088
 4234TIP3    H134193   3.449   0.423   0.426 -0.4339 -0.7148  0.3345
 4234TIP3    H234194   3.504   0.355   0.302 -1.0239  1.5758 -1.2536
 4235TIP3   OH234195   2.609   2.943   8.351  0.1417  0.2197  0.1094
 4235TIP3    H134196   2.630   2.942   8.257  2.8694  1.4138  0.6347
 4235TIP3    H234197   2.573   3.030   8.366 -0.9469 -0.2106  0.0825
 4236TIP3   OH234198   3.818   0.638   9.496 -0.1322  0.0088  0.0722
 4236TIP3    H134199   3.899   0.635   9.546 -1.6098  0.9345  2.6692
 4236TIP3    H234200   3.775   0.718   9.524 -2.5482 -1.0991 -0.2457
 4237TIP3   OH234201   4.048   1.177   0.123  0.7301 -1.2073  0.1834
 4237TIP3    H134202   4.051   1.113   0.051  0.3862 -2.4135  1.2090
 4237TIP3    H234203   4.137   1.178   0.157  1.4842  1.0252 -1.6000
 4238TIP3   OH234204   2.666   3.695   3.714 -0.0898 -0.0941 -0.0571
 4238TIP3    H134205   2.622   3.763   3.664  1.5103  1.3216  0.3945
 4238TIP3    H234206   2.756   3.696   3.683  0.6005 -0.1676  1.8251
 4239TIP3   OH234207   0.905   1.804  38.589 -0.7228  0.1930 -0.7534
 4239TIP3    H134208   0.874   1.796  38.679 -0.3740 -1.1728 -0.7394
 4239TIP3    H234209   0.984   1.858  38.596 -2.1522  2.3974 -0.6103
 4240TIP3   OH234210   0.694   1.569  39.373 -0.0643  0.5462  0.4958
 4240TIP3    H134211   0.630   1.497  39.372 -0.0376  0.5023 -1.4373
 4240TIP3    H234212   0.641   1.647  39.392 -0.5812  0.3825 -0.1949
 4241TIP3   OH234213   3.475   0.062   9.087  0.1639  0.3539  0.4341
 4241TIP3    H134214   3.532   0.066   9.010  0.9869 -0.2795  0.9880
 4241TIP3    H234215   3.530   0.091   9.160 -0.3048  0.0088  0.9379
 4242TIP3   OH234216   4.271   2.247  28.469 -0.0712  0.5346 -0.3294
 4242TIP3    H134217   4.266   2.342  28.461  0.8399  0.4836 -1.8633
 4242TIP3    H234218   4.305   2.232  28.558  0.2284  1.6457 -0.2396
 4243TIP3   OH234219   3.112   2.278  38.657 -0.4237 -0.0133 -0.1190
 4243TIP3    H134220   3.070   2.316  38.734 -0.9787  1.2593 -1.0030
 4243TIP3    H234221   3.044   2.282  38.589  0.7873  1.1868 -1.3219
 4244TIP3   OH234222   0.432   4.091  10.052  0.2654 -0.7797  0.3881
 4244TIP3    H134223   0.347   4.127  10.079 -0.3814 -1.4500 -0.6660
 4244TIP3    H234224   0.485   4.168  10.032 -1.1305 -0.2925 -1.9561
 4245TIP3   OH234225   2.694   3.087  12.284  0.0739 -0.0667  0.0793
 4245TIP3    H134226   2.751   3.155  12.247 -1.1072  0.8246 -0.1799
 4245TIP3    H234227   2.609   3.103  12.242 -0.7221 -0.4812  1.4887
 4246TIP3   OH234228   2.213   1.992  37.574  0.3080  0.7053 -0.0366
 4246TIP3    H134229   2.302   2.004  37.609  1.0863 -0.3797 -1.5613
 4246TIP3    H234230   2.195   1.899  37.586 -0.9190  1.0313  0.8569
 4247TIP3   OH234231   3.763   1.708  37.886  0.7629 -0.3122  0.5224
 4247TIP3    H134232   3.712   1.777  37.843 -0.6098 -0.5236  1.7249
 4247TIP3    H234233   3.784   1.745  37.972 -0.8296 -1.6993  1.5692
 4248TIP3   OH234234   2.481   2.636   7.694 -0.0170 -0.4141  0.4597
 4248TIP3    H134235   2.557   2.688   7.671 -1.4694  0.5600 -2.7521
 4248TIP3    H234236   2.458   2.589   7.614 -1.4282 -2.5288  1.9807
 4249TIP3   OH234237   3.866   1.956   6.746 -0.4303 -0.0253  0.6896
 4249TIP3    H134238   3.946   2.008   6.742 -0.9329  0.7807  0.7791
 4249TIP3    H234239   3.839   1.961   6.838 -0.0242 -1.1834  0.8936
 4250TIP3   OH234240   4.179   2.605  11.799  0.3052 -0.3820  0.2742
 4250TIP3    H134241   4.107   2.586  11.858 -0.5661  0.7095 -0.3900
 4250TIP3    H234242   4.239   2.531  11.808  0.3653 -0.0862  2.7262
 4251TIP3   OH234243   1.017   2.268  40.824 -0.1336 -0.2333 -0.2775
 4251TIP3    H134244   0.977   2.203  40.882 -0.9219  0.4561 -0.0368
 4251TIP3    H234245   0.970   2.349  40.842  1.6596  0.7464  0.3669
 4252TIP3   OH234246   2.370   3.383   1.021 -0.3208  0.0825  0.3563
 4252TIP3    H134247   2.425   3.362   1.097 -0.3354  1.4826  0.7774
 4252TIP3    H234248   2.286   3.410   1.059 -1.7290 -2.8758 -0.2874
 4253TIP3   OH234249   3.729   0.767  21.619  0.2280 -0.3713 -0.4064
 4253TIP3    H134250   3.812   0.723  21.603  1.2544  0.3655  2.2532
 4253TIP3    H234251   3.685   0.712  21.684 -0.4990  0.2064 -0.3976
 4254TIP3   OH234252   2.262   2.473  37.490  0.1581 -0.0012  0.6332
 4254TIP3    H134253   2.299   2.528  37.420  2.2631 -0.8523  0.9896
 4254TIP3    H234254   2.174   2.508  37.504  0.8672  2.3217 -0.1739
 4255TIP3   OH234255   2.607   2.943  38.214 -0.3975  0.0679 -0.6899
 4255TIP3    H134256   2.578   3.027  38.179 -0.9266 -0.8454 -2.5757
 4255TIP3    H234257   2.615   2.887  38.137 -0.1522 -1.6456  0.5354
 4256TIP3   OH234258   1.392   2.584   2.625  0.0342  0.4388  0.4522
 4256TIP3    H134259   1.461   2.565   2.561  0.1437 -2.4844  1.2994
 4256TIP3    H234260   1.434   2.638   2.691  1.6039 -1.2926  0.9492
 4257TIP3   OH234261   0.873   3.382  27.049  0.0905  0.1840  0.4252
 4257TIP3    H134262   0.968   3.394  27.055  0.6129 -2.3495 -1.1599
 4257TIP3    H234263   0.852   3.402  26.958 -0.4954 -1.3456  0.2001
 4258TIP3   OH234264   1.691   2.742   7.135  0.5006 -0.3887 -0.4696
 4258TIP3    H134265   1.776   2.736   7.093  0.4910 -2.1722 -0.3180
 4258TIP3    H234266   1.628   2.721   7.066  0.4422 -2.5939  0.1789
 4259TIP3   OH234267   1.783   1.085   4.426  0.0448 -0.0938 -0.6620
 4259TIP3    H134268   1.824   1.156   4.376 -1.1799  0.0750 -1.4863
 4259TIP3    H234269   1.840   1.010   4.414  0.2837  0.2140 -1.5247
 4260TIP3   OH234270   0.775   4.355  30.436  0.0901  0.6140 -0.6781
 4260TIP3    H134271   0.754   4.310  30.518 -0.1788  1.1129 -0.4731
 4260TIP3    H234272   0.759   4.289  30.368 -0.6847  0.5202 -0.4128
 4261TIP3   OH234273   2.066   2.250   0.429  0.2852  0.5107 -0.1587
 4261TIP3    H134274   2.141   2.246   0.370  0.2672  0.8291 -0.2039
 4261TIP3    H234275   2.105   2.261   0.516  0.3471 -0.7617  0.0001
 4262TIP3   OH234276   1.608   0.498  26.990 -0.2107 -0.2366  0.2388
 4262TIP3    H134277   1.637   0.534  26.906  0.1318  0.0377  0.4774
 4262TIP3    H234278   1.616   0.570  27.052  2.1603 -1.1683  1.1166
 4263TIP3   OH234279   3.265   0.406  29.776 -0.2072 -0.0405  0.1711
 4263TIP3    H134280   3.215   0.463  29.835 -0.6595 -1.4276  1.1791
 4263TIP3    H234281   3.201   0.375  29.712 -0.4443 -1.0426  0.8759
 4264TIP3   OH234282   2.002   4.099  34.434  0.0670  0.1400 -0.0383
 4264TIP3    H134283   1.979   4.184  34.398 -0.9487  0.8611  2.1610
 4264TIP3    H234284   2.097   4.092  34.421  0.2859  1.9388  0.4190
 4265TIP3   OH234285   1.226   1.843   9.031 -0.1559  0.1821  0.2220
 4265TIP3    H134286   1.172   1.801   8.964 -0.4944 -0.5919  0.9548
 4265TIP3    H234287   1.193   1.808   9.114  1.1500  0.0633  0.7166
 4266TIP3   OH234288   3.963   0.887  34.617 -0.1192 -0.1820 -0.6576
 4266TIP3    H134289   3.875   0.900  34.653 -0.0223 -1.9700  0.3338
 4266TIP3    H234290   4.005   0.973  34.624 -1.1839  0.2672  0.5646
 4267TIP3   OH234291   0.807   2.888  37.750 -0.4235 -0.1856 -0.0599
 4267TIP3    H134292   0.858   2.953  37.797 -0.4520  0.2781 -0.6646
 4267TIP3    H234293   0.870   2.818  37.730 -0.1271  0.1811 -0.4156
 4268TIP3   OH234294   3.989   3.609   7.561 -0.8334  0.2625 -0.6526
 4268TIP3    H134295   3.937   3.681   7.526  0.2603  0.6131 -1.6170
 4268TIP3    H234296   4.043   3.649   7.628  0.2778  0.5222 -1.6633
 4269TIP3   OH234297   0.891   2.149   2.932  0.5319 -0.4194 -0.2730
 4269TIP3    H134298   0.954   2.172   2.864  1.8841 -0.3010  0.9555
 4269TIP3    H234299   0.854   2.066   2.904  0.2224  0.1706 -1.6847
 4270TIP3   OH234300   0.684   1.979  36.562 -0.0949 -0.2935  0.0672
 4270TIP3    H134301   0.614   2.033  36.525  0.5964  1.2490  0.8814
 4270TIP3    H234302   0.666   1.978  36.656  0.4673 -0.6377  0.1782
 4271TIP3   OH234303   3.577   0.947  21.041 -0.5137  0.1295  0.0096
 4271TIP3    H134304   3.606   0.889  21.111  0.6917 -0.9184 -1.2945
 4271TIP3    H234305   3.484   0.960  21.058 -0.8127 -2.1115  0.4211
 4272TIP3   OH234306   1.878   1.977  32.133  0.7335 -0.5022  0.2622
 4272TIP3    H134307   1.852   1.885  32.137  1.3011 -0.8121 -1.8843
 4272TIP3    H234308   1.835   2.018  32.208  0.1373 -2.4193  1.0214
 4273TIP3   OH234309   4.116   3.613  40.745  0.1041  0.6038 -0.0579
 4273TIP3    H134310   4.040   3.670  40.754  1.1573  1.8750  1.3186
 4273TIP3    H234311   4.151   3.631  40.658 -1.2589 -0.1504 -0.7810
 4274TIP3   OH234312   0.034   1.163  29.545  0.0821  0.0632  0.0383
 4274TIP3    H134313   0.072   1.160  29.457 -1.6466  0.2339 -0.7599
 4274TIP3    H234314  -0.003   1.076  29.558  0.2652  0.0621  0.5760
 4275TIP3   OH234315   0.905   2.156  12.535 -0.1059  0.0174 -0.3143
 4275TIP3    H134316   0.942   2.116  12.456  0.6607  0.2627 -0.0877
 4275TIP3    H234317   0.812   2.138  12.530 -0.3967  1.7189 -2.2870
 4276TIP3   OH234318   0.782   0.117  26.320 -0.5465 -0.0434  0.4327
 4276TIP3    H134319   0.815   0.173  26.250 -0.9921  0.3134  0.5047
 4276TIP3    H234320   0.749   0.177  26.386 -0.7136 -0.3875  0.6684
 4277TIP3   OH234321   4.098   4.227  32.212  0.1880  0.3594 -0.2292
 4277TIP3    H134322   4.110   4.220  32.306  0.6641 -1.0508 -0.3671
 4277TIP3    H234323   4.179   4.193  32.174 -0.2342  0.3255 -1.1448
 4278TIP3   OH234324   4.369   2.717  26.656  0.0293 -0.2852  0.3669
 4278TIP3    H134325   4.309   2.774  26.607 -0.2629  0.0730  1.1330
 4278TIP3    H234326   4.406   2.659  26.589 -0.3573  0.1983 -0.2819
 4279TIP3   OH234327   2.311   0.166   7.607  0.0415 -0.0088  0.3393
 4279TIP3    H134328   2.361   0.248   7.613 -1.6786  1.1270  0.0128
 4279TIP3    H234329   2.364   0.102   7.654  1.2076  1.4088  1.0551
 4280TIP3   OH234330   3.426   3.544  24.535 -1.1548 -0.6182  0.3340
 4280TIP3    H134331   3.454   3.457  24.510 -1.1694 -0.4885 -0.1486
 4280TIP3    H234332   3.419   3.541  24.630  2.4838 -0.0724  0.7446
 4281TIP3   OH234333   1.300   1.279  37.746 -0.0001  0.5971  0.1162
 4281TIP3    H134334   1.233   1.234  37.797  2.8581 -0.6600  3.1187
 4281TIP3    H234335   1.336   1.211  37.690  0.5455  0.5776  0.4888
 4282TIP3   OH234336   3.363   0.024  28.972  0.3593 -0.1142 -0.6431
 4282TIP3    H134337   3.278  -0.017  28.958 -0.4230  1.1235  0.2300
 4282TIP3    H234338   3.396  -0.015  29.053  0.9912 -1.1385 -1.3747
 4283TIP3   OH234339   0.542   0.954   9.378 -0.0390  0.2716 -0.4173
 4283TIP3    H134340   0.467   0.912   9.420 -0.6641  2.1771  0.4886
 4283TIP3    H234341   0.600   0.977   9.451  0.7754  0.0616 -0.9860
 4284TIP3   OH234342   0.701   2.145  39.093  0.0478  0.4416 -0.0391
 4284TIP3    H134343   0.691   2.086  39.018 -0.2527 -1.3919  1.3701
 4284TIP3    H234344   0.716   2.231  39.054 -2.5362  0.0390 -2.2473
 4285TIP3   OH234345   3.124   3.795   6.363 -0.5442  0.2552  0.1117
 4285TIP3    H134346   3.192   3.849   6.322 -0.0687  1.0086  1.7788
 4285TIP3    H234347   3.095   3.847   6.438 -1.1347 -1.1880  0.9123
 4286TIP3   OH234348   4.166   3.494  27.939 -0.4480 -0.2581 -0.5252
 4286TIP3    H134349   4.153   3.582  27.976 -1.7836 -0.3512 -0.7335
 4286TIP3    H234350   4.140   3.435  28.009  5.6387 -0.8168  1.8372
 4287TIP3   OH234351   3.226   0.330  30.746 -0.1051  0.7186 -0.2073
 4287TIP3    H134352   3.203   0.393  30.678  2.0417  1.2653 -0.4969
 4287TIP3    H234353   3.298   0.279  30.708 -0.2687 -0.3812  0.8828
 4288TIP3   OH234354   4.225   0.845  36.023 -0.0540  0.2817 -0.4248
 4288TIP3    H134355   4.189   0.934  36.015 -0.8782  0.5289  3.6892
 4288TIP3    H234356   4.200   0.817  36.111  0.7119 -3.8599 -1.3048
 4289TIP3   OH234357   0.840   4.027  10.588 -0.5420 -0.2001  0.0175
 4289TIP3    H134358   0.773   3.970  10.550  1.9841 -4.5220  1.2742
 4289TIP3    H234359   0.900   4.045  10.516 -1.1018  0.4895 -0.2810
 4290TIP3   OH234360   1.346   3.169  29.392 -0.5621  0.2324  1.0982
 4290TIP3    H134361   1.264   3.160  29.442 -1.3927  0.3545 -0.1821
 4290TIP3    H234362   1.390   3.245  29.431 -1.0066  0.1191  1.8563
 4291TIP3   OH234363   0.896   1.849  37.479  0.1136 -0.0639  0.0348
 4291TIP3    H134364   0.923   1.849  37.388  0.9134  2.8601  0.1511
 4291TIP3    H234365   0.978   1.862  37.528 -0.4684 -0.0988  1.0375
 4292TIP3   OH234366   0.324   2.556   0.958 -0.5785  0.1928  0.0129
 4292TIP3    H134367   0.283   2.562   0.872 -0.3157  1.8315 -0.0279
 4292TIP3    H234368   0.402   2.611   0.951  0.4236 -1.0737  0.7713
 4293TIP3   OH234369   2.009   0.375  39.328 -0.3648 -0.7880  0.2678
 4293TIP3    H134370   2.021   0.326  39.247 -0.3205 -2.0092  0.9877
 4293TIP3    H234371   2.095   0.410  39.349 -0.4902 -0.0065 -0.4877
 4294TIP3   OH234372   1.913   1.062   6.722 -0.4390 -0.1018  0.4903
 4294TIP3    H134373   1.983   1.033   6.780 -1.5455  0.6876  2.3108
 4294TIP3    H234374   1.958   1.098   6.645  1.1300  0.1667  1.4980
 4295TIP3   OH234375   3.246   3.571   0.400  0.3392  1.0511  0.4492
 4295TIP3    H134376   3.265   3.534   0.314  1.3365  1.0174  0.6681
 4295TIP3    H234377   3.150   3.570   0.406  0.2887 -0.1856 -0.1163
 4296TIP3   OH234378   3.764   0.258   7.017  0.0462  0.2228 -0.4583
 4296TIP3    H134379   3.758   0.289   7.107  1.7556 -1.0049  0.1204
 4296TIP3    H234380   3.831   0.315   6.977  2.2434 -1.7256  0.2433
 4297TIP3   OH234381   0.608   1.168  30.951 -0.2601  0.3861  0.1934
 4297TIP3    H134382   0.624   1.078  30.978 -0.7358  0.5238  0.9712
 4297TIP3    H234383   0.694   1.203  30.930  0.4800  0.8777  3.5090
 4298TIP3   OH234384   0.373   3.884  26.880 -0.3418  0.1436 -0.3016
 4298TIP3    H134385   0.282   3.884  26.850  0.1841  2.9742 -2.2836
 4298TIP3    H234386   0.376   3.952  26.947  0.3314  0.1072 -0.2875
 4299TIP3   OH234387   3.719   4.346  29.397 -0.2437 -0.5852  0.2040
 4299TIP3    H134388   3.673   4.285  29.455 -1.7360  0.0488 -0.2785
 4299TIP3    H234389   3.802   4.363  29.442 -0.4056 -1.8469  1.0367
 4300TIP3   OH234390   0.910   1.314  10.697  0.5701 -0.0159  0.5768
 4300TIP3    H134391   0.827   1.337  10.654  1.1000 -2.0019 -1.6824
 4300TIP3    H234392   0.890   1.320  10.791 -2.1356 -0.4518  0.1136
 4301TIP3   OH234393   3.333   1.098  26.785 -0.2697 -0.7777 -0.4918
 4301TIP3    H134394   3.237   1.101  26.786 -0.3563 -2.3653  1.2112
 4301TIP3    H234395   3.360   1.169  26.843 -0.3366  0.1944 -1.5993
 4302TIP3   OH234396   2.734   1.642  39.213 -0.2107  0.0440 -0.1259
 4302TIP3    H134397   2.722   1.549  39.196 -0.2302 -0.4176  2.1335
 4302TIP3    H234398   2.828   1.652  39.228 -0.4141  0.0717  1.2079
 4303TIP3   OH234399   2.785   1.944  33.046 -0.0847  0.4325 -0.2300
 4303TIP3    H134400   2.731   1.931  33.123  0.5749  0.6599  0.2751
 4303TIP3    H234401   2.723   1.963  32.976 -0.7366 -0.4828  0.0833
 4304TIP3   OH234402   1.827   4.367  16.513  0.8572 -0.0567 -0.5465
 4304TIP3    H134403   1.757   4.346  16.451 -0.1883  1.8188 -0.0776
 4304TIP3    H234404   1.816   4.303  16.584  1.2079 -1.3392 -1.6031
 4305TIP3   OH234405   3.402   4.280  41.325 -0.3617  0.7287 -0.0148
 4305TIP3    H134406   3.459   4.230  41.266 -2.6959 -0.0759 -1.7666
 4305TIP3    H234407   3.409   4.370  41.294  1.9286  1.1838  1.5426
 4306TIP3   OH234408   1.849   3.992  39.195 -0.1257 -0.7774  0.0721
 4306TIP3    H134409   1.882   4.046  39.124  0.6456  0.7025  1.4902
 4306TIP3    H234410   1.864   3.902  39.166  0.0448 -0.2253 -1.6667
 4307TIP3   OH234411   3.678   1.584  27.534  0.2358  0.0882 -0.2364
 4307TIP3    H134412   3.737   1.608  27.606 -2.0014  0.7624  1.4935
 4307TIP3    H234413   3.627   1.664  27.517 -1.4037 -0.9516 -0.4018
 4308TIP3   OH234414   0.631   3.002   5.172 -0.2934 -0.3535 -0.0059
 4308TIP3    H134415   0.547   2.973   5.208 -0.1403 -1.7857 -0.7214
 4308TIP3    H234416   0.678   3.038   5.247 -1.4720  0.3090  0.4377
 4309TIP3   OH234417   4.257   3.488  30.217 -0.4716  0.2643  0.2683
 4309TIP3    H134418   4.223   3.566  30.174  0.0321 -0.2413 -1.1164
 4309TIP3    H234419   4.181   3.445  30.255 -1.1976 -0.0994 -1.5210
 4310TIP3   OH234420   2.083   3.458   3.719 -0.2612  0.4488 -0.0555
 4310TIP3    H134421   2.052   3.390   3.779 -0.2313 -0.8192 -1.3991
 4310TIP3    H234422   2.155   3.500   3.765  1.1169 -1.8540  0.0497
 4311TIP3   OH234423   4.062   4.013  39.636  0.5258 -0.3141  0.6616
 4311TIP3    H134424   4.054   4.085  39.698  2.1476  0.0720  0.4519
 4311TIP3    H234425   4.040   4.051  39.551 -0.6612 -0.5975  0.8161
 4312TIP3   OH234426   3.057   3.055   6.405 -0.3620 -0.0305 -0.0962
 4312TIP3    H134427   3.027   2.968   6.380 -1.0343 -0.0493  0.7110
 4312TIP3    H234428   3.054   3.106   6.324 -3.4858  0.2170  0.0203
 4313TIP3   OH234429   0.866   1.628   5.516 -0.9320 -0.2327  0.7936
 4313TIP3    H134430   0.857   1.633   5.611 -0.9008  1.0010  0.7399
 4313TIP3    H234431   0.777   1.636   5.482 -0.7205  2.1334  0.6397
 4314TIP3   OH234432   1.638   3.604   0.362  0.1022 -0.0843  0.8038
 4314TIP3    H134433   1.613   3.689   0.325  2.4282  0.3779  0.1217
 4314TIP3    H234434   1.565   3.546   0.340 -2.1298  1.9253  2.3145
 4315TIP3   OH234435   2.274   0.893  11.291 -0.1097  0.4427 -0.0284
 4315TIP3    H134436   2.291   0.939  11.209 -0.7086  0.2900 -0.2384
 4315TIP3    H234437   2.200   0.940  11.330  1.3101  1.6806  1.3270
 4316TIP3   OH234438   4.029   3.094  29.062 -0.2634 -0.2627  0.0766
 4316TIP3    H134439   3.968   3.163  29.037  0.2556 -0.2303 -1.1706
 4316TIP3    H234440   4.076   3.130  29.137 -1.1663  0.0532  0.5070
 4317TIP3   OH234441   2.776   2.490  41.466 -0.0509 -0.8658 -0.2665
 4317TIP3    H134442   2.781   2.458  41.555 -1.6864 -3.0678 -0.8789
 4317TIP3    H234443   2.707   2.556  41.468 -0.1260 -0.9538  0.0584
 4318TIP3   OH234444   4.270   3.089   4.739 -0.0395 -0.1733 -0.1411
 4318TIP3    H134445   4.253   3.146   4.813  2.3396 -0.1273  0.4503
 4318TIP3    H234446   4.291   3.149   4.667  0.8745 -0.2275  0.0592
 4319TIP3   OH234447   0.721   3.783  32.588  0.2221  0.0275 -0.2887
 4319TIP3    H134448   0.795   3.834  32.620 -0.8825 -0.3124  3.2658
 4319TIP3    H234449   0.739   3.694  32.618 -1.5104 -0.0865  0.5357
 4320TIP3   OH234450   0.660   0.445   5.807 -0.4721 -0.4107  0.4473
 4320TIP3    H134451   0.684   0.533   5.836  0.3100 -0.0737 -1.0918
 4320TIP3    H234452   0.605   0.410   5.877 -0.7120  1.2661  1.1364
 4321TIP3   OH234453   2.072   2.042   0.997 -0.4457 -0.3025  0.0053
 4321TIP3    H134454   2.091   2.110   1.062  2.7198  0.5677 -1.6465
 4321TIP3    H234455   2.020   2.086   0.931 -0.1228 -0.0282 -0.0690
 4322TIP3   OH234456   2.089   0.720  36.577 -0.2494  0.0529  0.1246
 4322TIP3    H134457   2.028   0.661  36.619  0.2547 -0.1807  0.5433
 4322TIP3    H234458   2.038   0.799  36.558 -1.1618 -0.8397 -1.2721
 4323TIP3   OH234459   3.637   4.113   0.891  0.1221  0.0936 -0.1830
 4323TIP3    H134460   3.561   4.070   0.853 -1.8673  1.1137  2.3982
 4323TIP3    H234461   3.656   4.185   0.830 -1.2254  0.0486 -0.6892
 4324TIP3   OH234462   4.241   3.675   0.167 -0.2032 -0.1649  0.0830
 4324TIP3    H134463   4.331   3.643   0.156  0.0327 -0.3389  2.0556
 4324TIP3    H234464   4.187   3.597   0.166 -0.0335 -0.3194  1.2835
 4325TIP3   OH234465   1.712   2.262  31.348  0.3897 -0.0601 -0.0750
 4325TIP3    H134466   1.728   2.266  31.253 -0.6574  0.0957 -0.2620
 4325TIP3    H234467   1.744   2.346  31.381 -0.8496  0.6418 -0.5797
 4326TIP3   OH234468   0.712   1.852   7.907 -0.5557 -0.0020  0.3518
 4326TIP3    H134469   0.673   1.935   7.933 -0.4598 -0.0616  0.6894
 4326TIP3    H234470   0.797   1.851   7.950 -0.9021 -0.6516  1.0391
 4327TIP3   OH234471   1.993   3.763  28.991 -0.2867 -0.1279 -0.2435
 4327TIP3    H134472   1.989   3.723  29.078  2.2005 -1.7425 -0.7852
 4327TIP3    H234473   2.026   3.852  29.007 -0.4288 -0.1946  0.4740
 4328TIP3   OH234474   3.816   0.803  33.910 -0.2771 -0.6738  0.3790
 4328TIP3    H134475   3.814   0.855  33.829  2.0937  0.2660  0.8443
 4328TIP3    H234476   3.845   0.716  33.882 -0.0919 -0.5371  0.1421
 4329TIP3   OH234477   3.350   1.637   8.401  0.0115 -0.0708 -0.5178
 4329TIP3    H134478   3.397   1.588   8.333  0.9155 -0.8654  0.6510
 4329TIP3    H234479   3.264   1.596   8.406 -0.3198  0.4400 -1.6399
 4330TIP3   OH234480   0.921   1.447  35.908 -0.2524 -0.3263 -0.0568
 4330TIP3    H134481   0.849   1.508  35.925 -0.4903 -1.1963  2.4385
 4330TIP3    H234482   0.902   1.413  35.820 -3.0366 -0.6363  0.5572
 4331TIP3   OH234483   1.754   0.076  13.891  0.5814 -0.2040  0.3353
 4331TIP3    H134484   1.774  -0.016  13.874  0.3979 -0.2450  0.3333
 4331TIP3    H234485   1.773   0.088  13.984 -0.0237 -0.4173  0.4929
 4332TIP3   OH234486   3.131   3.289   9.886  0.6023 -0.5715  0.2521
 4332TIP3    H134487   3.195   3.235   9.840  0.3795 -0.1627 -0.5641
 4332TIP3    H234488   3.173   3.312   9.968  0.5293 -2.3435  0.8225
 4333TIP3   OH234489   0.986   2.003   0.352  0.1331  0.5610 -0.1993
 4333TIP3    H134490   1.002   1.992   0.446  1.3382  0.6034 -0.3828
 4333TIP3    H234491   1.026   1.925   0.312 -0.4299  0.5092 -0.6826
 4334TIP3   OH234492   2.019   2.301  40.280 -0.1085 -0.0259  0.4729
 4334TIP3    H134493   2.059   2.279  40.364 -0.4739  0.0760  0.6771
 4334TIP3    H234494   1.986   2.390  40.292 -1.1971 -0.4410  0.6100
 4335TIP3   OH234495   0.748   2.660  38.112  0.1939  0.8072 -0.1644
 4335TIP3    H134496   0.771   2.737  38.163 -1.3153  0.0037  1.8717
 4335TIP3    H234497   0.664   2.682  38.071 -0.9838 -0.1656  1.5862
 4336TIP3   OH234498   1.470   0.375  29.388 -0.0754 -0.1394  0.4796
 4336TIP3    H134499   1.482   0.290  29.346  0.6918  0.4473 -0.5159
 4336TIP3    H234500   1.412   0.423  29.329  0.5529  0.4910  0.3656
 4337TIP3   OH234501   2.868   1.233   1.154 -0.1865  0.4770 -0.5299
 4337TIP3    H134502   2.809   1.184   1.212  1.4313 -2.4118 -1.0955
 4337TIP3    H234503   2.814   1.260   1.081 -1.1952 -0.5540 -0.1943
 4338TIP3   OH234504   0.008   0.554  41.262 -0.2999  0.1126 -0.2478
 4338TIP3    H134505   0.079   0.608  41.298  0.0676 -1.1205  0.9443
 4338TIP3    H234506  -0.056   0.549  41.333 -0.5847 -0.5587 -0.5488
 4339TIP3   OH234507   2.752   0.505  12.347  0.4795  0.7263 -0.1882
 4339TIP3    H134508   2.703   0.585  12.327  0.5752  0.5597 -1.1335
 4339TIP3    H234509   2.792   0.480  12.263  0.2345 -0.4574  0.0344
 4340TIP3   OH234510   0.750   0.861  38.225 -0.0293 -0.0117  0.2858
 4340TIP3    H134511   0.828   0.909  38.251 -0.0328 -0.0832  0.4351
 4340TIP3    H234512   0.679   0.901  38.276 -0.2384  0.6343 -0.4972
 4341TIP3   OH234513   0.839   2.405   6.135  0.0037  0.5437 -0.0162
 4341TIP3    H134514   0.877   2.489   6.162 -1.0960  0.7661  0.8945
 4341TIP3    H234515   0.781   2.381   6.207  0.7605 -1.3185  0.0231
 4342TIP3   OH234516   2.612   0.582  31.001  0.1130 -0.2545  0.1223
 4342TIP3    H134517   2.573   0.623  30.924  0.8530  1.3730  0.5770
 4342TIP3    H234518   2.538   0.559  31.057 -0.4758 -1.9725 -1.2814
 4343TIP3   OH234519   1.831   0.232  36.186 -0.4902 -0.1803 -0.1563
 4343TIP3    H134520   1.841   0.137  36.174 -0.2758 -0.3002  0.8725
 4343TIP3    H234521   1.751   0.254  36.139 -1.6407 -1.2228  1.2468
 4344TIP3   OH234522   4.211   2.787   0.573  0.0008  0.3098 -0.2324
 4344TIP3    H134523   4.140   2.746   0.623  0.6179 -2.5722 -1.5586
 4344TIP3    H234524   4.173   2.804   0.487 -0.7635  4.3708  0.6708
 4345TIP3   OH234525   0.261   0.959  36.507 -0.5599  0.2542 -0.5914
 4345TIP3    H134526   0.340   0.967  36.560 -2.4062  0.0671  2.4159
 4345TIP3    H234527   0.292   0.970  36.417  2.6826  1.3691  0.4945
 4346TIP3   OH234528   3.150   4.146  40.859  0.6572  0.4024 -0.0534
 4346TIP3    H134529   3.066   4.114  40.892  0.9743  0.7095  1.1123
 4346TIP3    H234530   3.137   4.157  40.765  0.0024 -1.4611 -0.2296
 4347TIP3   OH234531   2.849   3.454  29.715  0.5794  0.0898  0.5108
 4347TIP3    H134532   2.773   3.487  29.667  1.5460  1.8123  0.0761
 4347TIP3    H234533   2.813   3.421  29.797 -0.6025  1.4094  0.5706
 4348TIP3   OH234534   2.528   3.575   2.050  0.2618  0.0164  0.0946
 4348TIP3    H134535   2.539   3.485   2.022  0.2948  0.5605 -1.7612
 4348TIP3    H234536   2.469   3.570   2.126 -2.4759 -1.3550 -1.9383
 4349TIP3   OH234537   1.889   0.038   2.845  0.0085  0.3297 -0.1483
 4349TIP3    H134538   1.977   0.057   2.814 -0.3867  0.9369 -0.9421
 4349TIP3    H234539   1.831   0.087   2.786 -1.0162 -2.1850 -1.3957
 4350TIP3   OH234540   1.142   0.899  26.643  0.2884 -0.2466  0.1154
 4350TIP3    H134541   1.231   0.864  26.643  0.0785 -0.9648  2.3679
 4350TIP3    H234542   1.093   0.839  26.699 -1.4952  0.4545 -0.6187
 4351TIP3   OH234543   1.480   3.982  31.001  0.2496  0.0837  0.1813
 4351TIP3    H134544   1.430   3.901  31.009  1.5614 -0.7345  0.5199
 4351TIP3    H234545   1.555   3.969  31.060  0.9186  1.1951 -0.4004
 4352TIP3   OH234546   0.802   1.536   3.624 -0.0854 -0.4122  0.0505
 4352TIP3    H134547   0.879   1.580   3.659  0.6294 -1.5559 -0.0284
 4352TIP3    H234548   0.764   1.599   3.563 -0.3180  0.9020  1.4984
 4353TIP3   OH234549   2.705   4.348  35.873  0.5345  1.1504 -0.4894
 4353TIP3    H134550   2.742   4.262  35.854  0.6887  0.6883  1.6318
 4353TIP3    H234551   2.780   4.404  35.891  0.3687  0.8586  1.3112
 4354TIP3   OH234552   3.782   4.001  12.610  0.4776 -0.1828  0.0632
 4354TIP3    H134553   3.791   3.912  12.644 -3.5014 -0.3251  1.2749
 4354TIP3    H234554   3.805   4.057  12.684  2.8427 -0.1244 -0.6563
 4355TIP3   OH234555   1.475   3.605  12.542  0.0867 -0.2422 -0.0867
 4355TIP3    H134556   1.410   3.654  12.491  1.2018  0.2659 -1.0564
 4355TIP3    H234557   1.424   3.567  12.614 -1.1649  0.6945 -0.4302
 4356TIP3   OH234558   1.555   1.463   8.467 -0.3904 -0.0778  0.1179
 4356TIP3    H134559   1.627   1.436   8.524 -1.1911 -0.4248  0.9964
 4356TIP3    H234560   1.551   1.558   8.476 -0.9316 -0.1923  1.1701
 4357TIP3   OH234561   3.416   1.550  10.860  0.5669 -0.7363 -0.0751
 4357TIP3    H134562   3.362   1.594  10.926  1.0094  0.4171 -0.4578
 4357TIP3    H234563   3.462   1.621  10.815  1.6036 -1.6182 -0.4651
 4358TIP3   OH234564   1.666   3.533  30.431 -0.7317  0.2134 -0.2010
 4358TIP3    H134565   1.744   3.514  30.379 -0.7887  0.0990 -0.2442
 4358TIP3    H234566   1.619   3.600  30.381 -0.3762  0.6982  0.1000
 4359TIP3   OH234567   0.081   2.453  22.063  0.3106  0.1971  0.2311
 4359TIP3    H134568   0.133   2.424  21.988 -0.7011  0.6941 -0.6955
 4359TIP3    H234569   0.038   2.374  22.094 -0.4584  0.2378 -0.6893
 4360TIP3   OH234570   1.602   2.850  36.653 -0.3260  0.1132  0.0158
 4360TIP3    H134571   1.534   2.842  36.586 -0.5157  1.5036  0.0120
 4360TIP3    H234572   1.676   2.890  36.608  0.1250 -0.3914  0.2848
 4361TIP3   OH234573   4.363   2.555   4.384 -0.1969  0.2729  0.0026
 4361TIP3    H134574   4.439   2.584   4.434 -0.0623  1.6388 -0.9394
 4361TIP3    H234575   4.400   2.504   4.312 -0.4387 -2.5715  1.7341
 4362TIP3   OH234576   0.220   3.121  38.084 -0.3387 -0.4493 -0.1509
 4362TIP3    H134577   0.158   3.193  38.100 -0.0734 -0.2217 -0.1291
 4362TIP3    H234578   0.178   3.068  38.016 -0.8490 -0.6572  0.3224
 4363TIP3   OH234579   1.277   0.063  30.867 -0.3765  0.2150 -0.2431
 4363TIP3    H134580   1.296   0.040  30.958  0.2178 -0.8985 -0.6320
 4363TIP3    H234581   1.222  -0.008  30.835 -1.0062  0.8569 -0.6137
 4364TIP3   OH234582   4.262   3.884  32.596  0.6866  0.3973  0.1225
 4364TIP3    H134583   4.193   3.922  32.651  0.4429  0.6183 -0.3398
 4364TIP3    H234584   4.295   3.810  32.648 -0.6152 -0.3652 -0.1058
 4365TIP3   OH234585   4.209   1.536  35.453 -0.4351 -0.5084 -0.3583
 4365TIP3    H134586   4.122   1.504  35.477 -0.1852  0.0265  1.4227
 4365TIP3    H234587   4.235   1.591  35.526  1.6317 -1.0708 -0.6042
 4366TIP3   OH234588   3.311   1.951  31.597  0.0987  0.3816 -0.4309
 4366TIP3    H134589   3.305   1.893  31.673  1.0284 -0.8496 -1.2439
 4366TIP3    H234590   3.375   1.908  31.539 -2.5575 -0.2264 -3.1967
 4367TIP3   OH234591   3.163   3.294  29.574  0.1334  0.4876  0.5870
 4367TIP3    H134592   3.224   3.334  29.636  0.1063  0.7548  0.4443
 4367TIP3    H234593   3.180   3.339  29.491 -0.6412  0.9671  0.6688
 4368TIP3   OH234594   2.387   3.898  14.044 -0.3774  0.3498 -0.3020
 4368TIP3    H134595   2.327   3.825  14.065  2.5278 -1.9470  0.6807
 4368TIP3    H234596   2.329   3.973  14.030 -3.3981 -1.1440  2.7295
 4369TIP3   OH234597   0.009   3.355  36.040 -0.0106  0.2615 -0.3442
 4369TIP3    H134598  -0.074   3.350  36.088 -0.4288 -0.5931 -1.1307
 4369TIP3    H234599   0.068   3.297  36.088  0.3606  1.4112  0.6227
 4370TIP3   OH234600   3.703   3.093   9.580  0.1887 -0.3112  0.6286
 4370TIP3    H134601   3.728   3.176   9.537  0.9627 -1.0729 -0.4393
 4370TIP3    H234602   3.767   3.082   9.650  1.5200 -1.1016 -0.6525
 4371TIP3   OH234603   2.820   3.641  34.240  0.2494 -0.3852 -0.5493
 4371TIP3    H134604   2.844   3.649  34.333 -0.7663 -0.0856 -0.2970
 4371TIP3    H234605   2.814   3.547  34.224 -0.0996 -0.4287 -0.1677
 4372TIP3   OH234606   2.563   0.396  13.585 -0.2642 -0.5046 -0.2805
 4372TIP3    H134607   2.551   0.311  13.544  1.2867 -0.4356 -0.9529
 4372TIP3    H234608   2.657   0.415  13.575 -0.2183  0.4508  1.4930
 4373TIP3   OH234609   3.314   4.090   6.590 -0.7124 -0.3206 -0.0950
 4373TIP3    H134610   3.381   4.158   6.582  1.1808 -2.0033  0.4555
 4373TIP3    H234611   3.315   4.066   6.682 -2.0830 -0.3905 -0.0884
 4374TIP3   OH234612   1.520   3.074   5.627  0.3313  0.2727  0.0188
 4374TIP3    H134613   1.569   3.087   5.546  0.8746 -0.2853  0.2471
 4374TIP3    H234614   1.443   3.131   5.619  0.6445  0.6026 -0.6617
 4375TIP3   OH234615   3.643   2.971  40.788 -0.0854  0.2468 -0.3073
 4375TIP3    H134616   3.581   2.905  40.819 -1.7778  1.5466 -0.7009
 4375TIP3    H234617   3.661   3.025  40.864 -2.0733  1.7912 -0.8278
 4376TIP3   OH234618   3.314   2.327   3.101  0.0540  0.2251 -0.6251
 4376TIP3    H134619   3.306   2.373   3.018  1.3711 -0.7635 -1.3349
 4376TIP3    H234620   3.371   2.382   3.154 -0.7770  0.8502 -0.3624
 4377TIP3   OH234621   1.433   0.605  34.641  0.0241  0.1279  0.3950
 4377TIP3    H134622   1.503   0.574  34.699 -0.0900  0.5352  0.7443
 4377TIP3    H234623   1.352   0.576  34.683 -0.2247  2.6932  1.8541
 4378TIP3   OH234624   1.270   1.914  10.930 -0.3613 -0.3346 -0.0237
 4378TIP3    H134625   1.195   1.857  10.947  0.2061 -0.9273  0.5366
 4378TIP3    H234626   1.288   1.956  11.014 -0.4472  0.2773 -0.3059
 4379TIP3   OH234627   1.373   0.114  38.133  0.4863 -0.5687 -0.2830
 4379TIP3    H134628   1.330   0.054  38.194 -0.3916 -0.2588 -0.5694
 4379TIP3    H234629   1.340   0.088  38.046  0.8111 -0.2645 -0.4999
 4380TIP3   OH234630   4.110   0.212   4.585  0.1242  0.4548 -0.1831
 4380TIP3    H134631   4.125   0.190   4.677 -1.4640 -0.1648 -0.0388
 4380TIP3    H234632   4.029   0.264   4.586  0.5996  1.2560 -1.1505
 4381TIP3   OH234633   3.953   0.049  32.178 -0.9484 -0.3961  0.0649
 4381TIP3    H134634   3.996  -0.037  32.181  1.0895  0.5008 -1.5439
 4381TIP3    H234635   3.977   0.090  32.262  2.2440  0.4050 -1.1045
 4382TIP3   OH234636   0.462   2.700  37.721  0.4560  0.3036 -0.3618
 4382TIP3    H134637   0.473   2.649  37.640  1.2225 -2.8241  1.5201
 4382TIP3    H234638   0.397   2.650  37.771  0.9621  1.4131  1.4854
 4383TIP3   OH234639   1.758   1.882   1.034  0.6128 -0.1622  0.2507
 4383TIP3    H134640   1.807   1.868   0.953  0.0349 -1.8726  0.1605
 4383TIP3    H234641   1.800   1.826   1.099 -0.9855 -1.4841  0.2324
 4384TIP3   OH234642   1.384   2.262   7.387 -0.0992 -0.1258  0.2364
 4384TIP3    H134643   1.380   2.348   7.345 -0.6138 -0.1104  0.3130
 4384TIP3    H234644   1.292   2.238   7.402  0.0817  0.3887  2.3966
 4385TIP3   OH234645   0.867   1.849   7.680 -0.4446 -0.1644 -0.2280
 4385TIP3    H134646   0.819   1.845   7.762 -0.2559  1.4352 -0.0056
 4385TIP3    H234647   0.800   1.849   7.612 -0.6533 -0.2055 -0.0213
 4386TIP3   OH234648   2.873   1.778  33.930 -0.5883  0.1859  0.4508
 4386TIP3    H134649   2.820   1.809  33.857 -1.5351 -2.8250 -0.2968
 4386TIP3    H234650   2.812   1.773  34.003 -0.0544  1.5344  1.0158
 4387TIP3   OH234651   1.691   2.564  37.203 -0.6420  0.0570 -0.3108
 4387TIP3    H134652   1.697   2.533  37.293 -0.4443 -1.1978 -0.7329
 4387TIP3    H234653   1.768   2.528  37.160 -1.2950 -0.2976 -1.2288
 4388TIP3   OH234654   0.562   4.215  13.376 -0.4832 -0.0285 -0.5734
 4388TIP3    H134655   0.573   4.307  13.352  1.9832  0.3266  1.4680
 4388TIP3    H234656   0.638   4.171  13.338 -0.1399 -0.6654  0.7921
 4389TIP3   OH234657   2.857   0.670  11.571 -0.6371 -0.1590 -0.2132
 4389TIP3    H134658   2.762   0.670  11.581 -0.6173  0.9655  0.1719
 4389TIP3    H234659   2.889   0.621  11.646 -0.8700  0.8585  0.5856
 4390TIP3   OH234660   1.944   1.761  41.017 -0.2377 -0.3023  0.2758
 4390TIP3    H134661   2.015   1.698  41.009 -0.6429 -0.9527  1.5979
 4390TIP3    H234662   1.959   1.804  41.102 -1.6134 -0.7146  0.7519
 4391TIP3   OH234663   3.388   1.728  33.415 -0.5498 -0.1575 -0.2120
 4391TIP3    H134664   3.455   1.795  33.426  0.6456 -1.4288  0.7497
 4391TIP3    H234665   3.430   1.662  33.358 -0.7442 -1.2407  0.8574
 4392TIP3   OH234666   4.177   1.530   1.935 -0.6705 -0.1290  0.2702
 4392TIP3    H134667   4.233   1.461   1.971  3.1372  1.7432 -1.4030
 4392TIP3    H234668   4.221   1.556   1.854 -4.7174  0.8833 -1.8491
 4393TIP3   OH234669   0.834   3.245  17.003 -0.1469 -0.3771  0.2309
 4393TIP3    H134670   0.800   3.282  16.922  0.5203 -0.5346 -0.1236
 4393TIP3    H234671   0.926   3.271  17.005 -0.4956  0.9182  1.6874
 4394TIP3   OH234672   0.222   0.052  11.926  0.8399  0.0680  0.5293
 4394TIP3    H134673   0.239   0.058  11.832  4.0002  2.8272  1.0704
 4394TIP3    H234674   0.256  -0.034  11.950  1.4146 -0.0598 -0.6393
 4395TIP3   OH234675   3.139   3.621  11.094 -0.0162 -0.1853  0.1089
 4395TIP3    H134676   3.092   3.613  11.177  0.4280 -1.1592  0.2804
 4395TIP3    H234677   3.156   3.530  11.067 -1.2287  0.0474 -1.6753
 4396TIP3   OH234678   2.501   1.661   8.099  0.2903 -0.0870 -0.4121
 4396TIP3    H134679   2.466   1.662   8.010  1.4770  0.6377 -0.8879
 4396TIP3    H234680   2.495   1.752   8.128  0.6955 -0.1704 -0.0652
 4397TIP3   OH234681   1.464   1.440  37.186  0.4769 -0.0393  0.8262
 4397TIP3    H134682   1.483   1.399  37.271 -0.3037 -0.6355  0.7314
 4397TIP3    H234683   1.500   1.528  37.193  0.3237 -0.0399  1.8293
 4398TIP3   OH234684   0.329   2.483  24.132 -0.4087  0.2316 -0.0460
 4398TIP3    H134685   0.282   2.461  24.051 -0.1519  3.2722 -1.1716
 4398TIP3    H234686   0.416   2.510  24.102  0.0455  0.4014  1.3716
 4399TIP3   OH234687   2.328   2.051  27.007  0.4279 -0.1829 -0.8131
 4399TIP3    H134688   2.318   2.024  26.915 -0.4335 -0.8947 -0.5204
 4399TIP3    H234689   2.380   1.981  27.046  0.0475 -0.3298 -0.5633
 4400TIP3   OH234690   1.777   3.675  27.473  0.5200  0.4909  0.1087
 4400TIP3    H134691   1.727   3.665  27.554  0.6116  1.6944  0.3207
 4400TIP3    H234692   1.867   3.655  27.498  0.5491  0.8665  0.3089
 4401TIP3   OH234693   2.977   4.284  36.955 -0.2228 -0.4444  0.3587
 4401TIP3    H134694   2.973   4.257  36.863  3.1014 -0.6943  0.1603
 4401TIP3    H234695   2.916   4.358  36.962  0.6671  0.6654 -2.4685
 4402TIP3   OH234696   1.859   2.649  33.870 -0.1863 -0.2645 -0.2998
 4402TIP3    H134697   1.812   2.578  33.827 -0.9318  0.2531 -0.3503
 4402TIP3    H234698   1.803   2.675  33.943  0.5117 -0.3365  0.2780
 4403TIP3   OH234699   0.147   3.671  11.898  0.0247 -0.3678 -0.0369
 4403TIP3    H134700   0.147   3.648  11.806 -0.2411 -0.2745 -0.0613
 4403TIP3    H234701   0.222   3.730  11.909  0.0572 -0.3817 -0.1909
 4404TIP3   OH234702   3.495   3.721  13.421  0.2601  0.0268  0.4612
 4404TIP3    H134703   3.433   3.733  13.493  0.4910 -1.1465  0.8687
 4404TIP3    H234704   3.472   3.790  13.359  0.1483  1.1635  1.7125
 4405TIP3   OH234705   3.929   2.330   9.357  0.5743  0.3402 -0.2330
 4405TIP3    H134706   4.020   2.350   9.335  0.6273 -0.2092 -0.5221
 4405TIP3    H234707   3.904   2.400   9.417  0.7357  1.3060 -1.2503
 4406TIP3   OH234708   0.525   3.510  37.602  0.0315  0.5339  0.2935
 4406TIP3    H134709   0.494   3.423  37.626 -0.5823  0.7310  0.2321
 4406TIP3    H234710   0.559   3.547  37.684  2.9159 -0.7856 -0.1738
 4407TIP3   OH234711   2.335   2.736  12.099 -0.2302  0.4863  0.0630
 4407TIP3    H134712   2.406   2.753  12.160 -1.2445  1.0147  1.1428
 4407TIP3    H234713   2.378   2.715  12.016  1.1578  0.8708  0.6664
 4408TIP3   OH234714   3.974   2.039  12.110 -0.1142 -0.3367 -0.1621
 4408TIP3    H134715   3.910   1.970  12.094 -1.3689  0.7769 -0.1278
 4408TIP3    H234716   3.924   2.109  12.153  1.1446  0.5325 -0.0398
 4409TIP3   OH234717   2.583   1.105  39.055 -0.2486 -0.6135  0.1039
 4409TIP3    H134718   2.629   1.159  39.119 -0.5105  1.5528 -1.4051
 4409TIP3    H234719   2.631   1.120  38.973  1.1829 -4.6779 -0.0233
 4410TIP3   OH234720   3.167   3.013  27.934 -0.2118 -0.1831 -0.1764
 4410TIP3    H134721   3.094   3.024  27.873  0.6904  0.9505 -1.1217
 4410TIP3    H234722   3.243   3.047  27.886  1.1019 -2.0505  0.4622
 4411TIP3   OH234723   0.344   3.495  35.689 -0.0457 -0.1663  0.0956
 4411TIP3    H134724   0.394   3.451  35.621 -1.1485  0.8919 -1.4743
 4411TIP3    H234725   0.277   3.432  35.715 -0.1409 -0.2815 -0.4209
 4412TIP3   OH234726   0.758   0.501  33.733  0.3984 -0.0800 -0.1059
 4412TIP3    H134727   0.835   0.556  33.746 -0.6788  1.3454  0.5105
 4412TIP3    H234728   0.695   0.532  33.798 -0.4830 -1.6219 -0.1874
 4413TIP3   OH234729   1.375   1.672  28.100  0.2897 -0.0122 -0.6082
 4413TIP3    H134730   1.431   1.750  28.109  0.6959 -0.3158 -0.4411
 4413TIP3    H234731   1.319   1.691  28.025  0.4761  0.3868 -0.6513
 4414TIP3   OH234732   3.570   4.299  28.393 -0.2795 -0.1122  0.5954
 4414TIP3    H134733   3.491   4.288  28.339  0.1788  1.9049 -0.6133
 4414TIP3    H234734   3.642   4.303  28.330  0.3658  1.4813  1.3655
 4415TIP3   OH234735   1.150   1.300  14.521  0.1410 -0.0339 -0.0859
 4415TIP3    H134736   1.104   1.229  14.565  1.3077 -0.7949 -0.0401
 4415TIP3    H234737   1.117   1.298  14.431 -0.3459 -0.1831  0.0957
 4416TIP3   OH234738   4.274   0.530   3.500  0.1887 -0.2673 -0.2294
 4416TIP3    H134739   4.246   0.493   3.417 -0.1151 -1.5611  0.4295
 4416TIP3    H234740   4.360   0.492   3.517  0.2951  0.0667  0.0103
 4417TIP3   OH234741   2.993   2.430  31.359 -0.0079  0.2822 -0.0547
 4417TIP3    H134742   3.081   2.426  31.397 -0.4253  0.2935  0.9341
 4417TIP3    H234743   3.004   2.394  31.271  0.6188 -1.5104  0.7104
 4418TIP3   OH234744   3.549   1.482   9.771 -0.3323  0.0264 -0.8573
 4418TIP3    H134745   3.583   1.551   9.828  0.5944  0.1747 -1.5639
 4418TIP3    H234746   3.540   1.524   9.685  2.2210 -1.1683 -1.8358
 4419TIP3   OH234747   2.099   0.596   5.474  0.4291  0.0339  0.6088
 4419TIP3    H134748   2.058   0.643   5.546  0.3568  0.9589 -0.0175
 4419TIP3    H234749   2.188   0.631   5.470  0.0387  0.9972 -0.5773
 4420TIP3   OH234750   0.067   1.491  34.546  0.0434  0.1973 -0.1776
 4420TIP3    H134751   0.157   1.457  34.542 -0.3347 -0.7441 -2.0652
 4420TIP3    H234752   0.054   1.513  34.638  2.1803  0.3070  0.1673
 4421TIP3   OH234753   0.942   1.194   8.925  0.1418  0.0062  0.3762
 4421TIP3    H134754   0.883   1.189   8.850 -0.7867  1.5428  0.9398
 4421TIP3    H234755   0.889   1.233   8.995  1.5205  0.4346  1.2373
 4422TIP3   OH234756   2.556   1.110  31.271  0.1725  0.6845 -0.3451
 4422TIP3    H134757   2.558   1.057  31.351 -0.9131 -0.8951 -1.2963
 4422TIP3    H234758   2.551   1.200  31.302  0.2492  0.1416  1.3628
 4423TIP3   OH234759   1.795   4.346  30.896 -0.1431 -0.0164 -0.4871
 4423TIP3    H134760   1.792   4.361  30.802 -0.3291 -0.2387 -0.5173
 4423TIP3    H234761   1.703   4.333  30.921 -0.3118  1.8228  0.0185
 4424TIP3   OH234762   0.269   1.530   8.432 -0.2255  0.5612 -0.1598
 4424TIP3    H134763   0.220   1.609   8.409 -0.0208  0.3547 -1.3866
 4424TIP3    H234764   0.352   1.538   8.385  0.1283 -0.0046  0.3508
 4425TIP3   OH234765   3.950   4.089   3.896  0.7107  0.1560  0.0094
 4425TIP3    H134766   4.041   4.099   3.868  0.7118  0.5545  0.1538
 4425TIP3    H234767   3.908   4.042   3.824  0.7132  1.1671 -0.6769
 4426TIP3   OH234768   0.548   2.635   3.337 -0.5023  0.2343 -0.0326
 4426TIP3    H134769   0.456   2.649   3.318 -0.9728 -0.0461  1.7784
 4426TIP3    H234770   0.552   2.545   3.370  0.3548  0.3529  0.2138
 4427TIP3   OH234771   3.701   3.525  38.732  0.5375  0.0719  0.0198
 4427TIP3    H134772   3.767   3.591  38.752 -0.6340  1.1505  0.4236
 4427TIP3    H234773   3.693   3.474  38.813  0.9791 -0.1619 -0.0823
 4428TIP3   OH234774   2.121   1.159  28.517 -0.7193 -0.3235  0.4557
 4428TIP3    H134775   2.199   1.125  28.561 -0.0639  1.6635  0.9257
 4428TIP3    H234776   2.063   1.083  28.510  0.7226 -1.5600  1.2706
 4429TIP3   OH234777   2.304   1.805   0.183  0.0967 -0.4828 -0.7387
 4429TIP3    H134778   2.356   1.846   0.114  0.1072  2.0483  0.6458
 4429TIP3    H234779   2.308   1.867   0.256 -0.7842 -2.5418  1.1823
 4430TIP3   OH234780   4.066   0.948  38.513 -0.4861 -0.5247 -0.0170
 4430TIP3    H134781   4.160   0.932  38.519 -0.1360  1.4530  0.3104
 4430TIP3    H234782   4.045   0.999  38.590 -1.6639 -0.1337 -0.5698
 4431TIP3   OH234783   3.484   4.305   8.297 -0.1247  0.6539 -0.1977
 4431TIP3    H134784   3.536   4.230   8.266  0.4043  0.6947  0.5601
 4431TIP3    H234785   3.451   4.278   8.383 -0.6764  0.9532 -0.3098
 4432TIP3   OH234786   1.087   3.229   2.626  0.1833  0.2972 -0.1810
 4432TIP3    H134787   1.118   3.320   2.620 -1.3951  0.8662 -0.3275
 4432TIP3    H234788   1.049   3.211   2.540  2.5568 -1.3599 -0.9711
 4433TIP3   OH234789   0.691   2.180   9.781 -0.0206 -0.0077  0.0706
 4433TIP3    H134790   0.701   2.272   9.804 -1.4158  0.3488 -0.6072
 4433TIP3    H234791   0.676   2.136   9.864 -1.5985  0.7456  0.2297
 4434TIP3   OH234792   3.736   0.883  41.056  1.0802 -0.5651 -0.1571
 4434TIP3    H134793   3.789   0.806  41.036  1.6275 -0.2828  0.1900
 4434TIP3    H234794   3.657   0.872  41.002 -0.8053 -3.4415  2.8028
 4435TIP3   OH234795   1.273   0.822   6.495 -0.2486 -0.5648  0.3721
 4435TIP3    H134796   1.280   0.903   6.546 -1.7988  0.5228 -1.0222
 4435TIP3    H234797   1.359   0.780   6.505  1.1438  1.9719 -0.0215
 4436TIP3   OH234798   2.246   2.181   3.102  0.3783  0.0597  0.0746
 4436TIP3    H134799   2.327   2.131   3.094  0.3127  0.2696 -2.4901
 4436TIP3    H234800   2.252   2.248   3.034 -1.8579  0.2004 -0.0650
 4437TIP3   OH234801   3.906   3.369  10.487 -0.1061 -0.3696 -0.2492
 4437TIP3    H134802   3.859   3.399  10.409 -0.8214  0.9840  0.6588
 4437TIP3    H234803   3.937   3.450  10.529 -0.5823 -0.9810  1.3626
 4438TIP3   OH234804   1.130   1.418  38.123 -0.7200  0.0419 -0.2945
 4438TIP3    H134805   1.051   1.471  38.138 -0.5627  0.5630 -1.2083
 4438TIP3    H234806   1.153   1.384  38.209 -0.3894  2.0759  0.4882
 4439TIP3   OH234807   0.660   0.947  27.343 -0.5740 -0.1193 -0.1567
 4439TIP3    H134808   0.725   1.014  27.324  1.2111 -2.2222 -2.0074
 4439TIP3    H234809   0.640   0.908  27.258  1.7509 -4.7184  1.0529
 4440TIP3   OH234810   0.850   1.499  41.474  0.0913 -0.5309  0.2351
 4440TIP3    H134811   0.907   1.424  41.455 -0.8279 -0.9820 -0.8712
 4440TIP3    H234812   0.775   1.486  41.417 -0.4237  0.8603  0.5740
 4441TIP3   OH234813   0.198   3.729   3.758 -0.0048 -0.2608 -0.9392
 4441TIP3    H134814   0.185   3.819   3.728 -0.8498  0.2016  0.7059
 4441TIP3    H234815   0.134   3.678   3.708 -0.4659  0.2644 -0.8895
 4442TIP3   OH234816   1.844   0.926  17.238 -0.3770  0.0172 -0.1161
 4442TIP3    H134817   1.819   0.863  17.171 -3.3372  0.9342 -0.0509
 4442TIP3    H234818   1.877   1.002  17.190  1.3477 -0.8170 -0.2867
 4443TIP3   OH234819   0.884   3.556  13.459 -0.6564 -0.3242 -0.3465
 4443TIP3    H134820   0.864   3.507  13.538  0.0578  1.1914  0.8249
 4443TIP3    H234821   0.859   3.646  13.479  1.1880  0.4349 -1.1474
 4444TIP3   OH234822   1.067   3.444  10.143 -0.1584  0.6635  0.4713
 4444TIP3    H134823   1.101   3.487  10.222  2.6913 -0.1934 -0.1812
 4444TIP3    H234824   1.139   3.448  10.081 -1.1533 -1.6433 -0.9523
 4445TIP3   OH234825   0.974   3.506  15.630 -0.2156 -0.0959  0.5281
 4445TIP3    H134826   0.997   3.597  15.647 -1.1362  0.0685  0.9277
 4445TIP3    H234827   0.927   3.477  15.708 -0.9589 -0.5588 -0.0751
 4446TIP3   OH234828   0.012   0.268  29.963  0.6692  0.0359  0.3273
 4446TIP3    H134829  -0.055   0.235  30.024 -0.6599  0.1098 -1.0327
 4446TIP3    H234830   0.089   0.213  29.980 -0.1976 -1.0283  0.9299
 4447TIP3   OH234831   1.908   0.380  11.571  0.0291  0.2556 -0.0544
 4447TIP3    H134832   1.839   0.334  11.523  0.2343 -0.6393  0.4799
 4447TIP3    H234833   1.987   0.329  11.553  0.2779  0.4521  0.4796
 4448TIP3   OH234834   1.331   2.583   7.249 -0.2731  0.2242 -0.6393
 4448TIP3    H134835   1.250   2.556   7.207 -1.2290  0.2184  1.1398
 4448TIP3    H234836   1.399   2.529   7.208 -1.7521 -3.1975  1.0130
 4449TIP3   OH234837   1.870   3.765   8.179 -0.3310 -0.0752 -0.3088
 4449TIP3    H134838   1.809   3.832   8.148  0.2281  0.6296  0.0748
 4449TIP3    H234839   1.944   3.770   8.118 -1.0986 -1.6585 -1.4141
 4450TIP3   OH234840   1.626   1.265  13.888 -0.0956 -0.4435 -0.1075
 4450TIP3    H134841   1.655   1.260  13.979  1.3043 -1.1048 -0.5689
 4450TIP3    H234842   1.599   1.176  13.866 -2.1332  0.0435  0.1545
 4451TIP3   OH234843   2.231   1.383  28.415  0.8179 -0.8195 -0.0270
 4451TIP3    H134844   2.183   1.302  28.434 -0.2134 -0.0288  0.8156
 4451TIP3    H234845   2.174   1.453  28.447  2.5999  0.1487  1.1715
 4452TIP3   OH234846   1.328   1.208   9.298 -0.0950 -0.0526  0.2494
 4452TIP3    H134847   1.248   1.237   9.342  0.2102  0.8307  0.2314
 4452TIP3    H234848   1.395   1.268   9.328  0.5529 -0.7386  0.1970
 4453TIP3   OH234849   0.114   3.898  32.024  1.3850  0.3173  0.3019
 4453TIP3    H134850   0.098   3.973  31.967 -2.1513 -0.1463  0.4739
 4453TIP3    H234851   0.115   3.823  31.965 -2.2733 -0.1621  0.6768
 4454TIP3   OH234852   1.415   2.451   2.922  0.3672 -0.6287  0.1602
 4454TIP3    H134853   1.498   2.428   2.963  0.6375 -1.0212 -0.5885
 4454TIP3    H234854   1.403   2.544   2.942 -0.7108 -1.3072  3.1749
 4455TIP3   OH234855   1.517   3.115  28.866  0.0512 -0.7085  0.3190
 4455TIP3    H134856   1.532   3.075  28.951  2.5049 -0.9252 -0.1431
 4455TIP3    H234857   1.473   3.046  28.815 -1.6793 -0.4815  1.4328
 4456TIP3   OH234858   1.148   3.361  27.778 -0.0340  0.2035  0.4357
 4456TIP3    H134859   1.226   3.345  27.832 -0.2150  0.8839  0.9230
 4456TIP3    H234860   1.178   3.419  27.709  0.3733 -1.2802 -0.6794
 4457TIP3   OH234861   2.512   0.948  39.980 -0.1666 -0.1328  0.2744
 4457TIP3    H134862   2.470   1.006  39.917  1.3517 -1.7488 -2.4325
 4457TIP3    H234863   2.452   0.945  40.054 -1.4559  2.8610 -0.4840
 4458TIP3   OH234864   1.711   4.317  38.709 -0.1037 -0.1773 -0.4703
 4458TIP3    H134865   1.730   4.400  38.666  1.1921 -0.0914  0.2281
 4458TIP3    H234866   1.615   4.313  38.711 -0.1967  0.5826 -1.8376
 4459TIP3   OH234867   1.683   4.218  14.233 -0.0115 -0.2193 -0.0612
 4459TIP3    H134868   1.677   4.311  14.214  1.0027 -0.3236 -0.9579
 4459TIP3    H234869   1.684   4.212  14.329  4.7579  1.1089  0.2305
 4460TIP3   OH234870   3.123   2.499  10.501  0.1437 -0.2865 -0.3029
 4460TIP3    H134871   3.197   2.514  10.559 -0.3307  0.1361  0.2090
 4460TIP3    H234872   3.109   2.404  10.501 -0.4290 -0.2155  1.0115
 4461TIP3   OH234873   2.053   2.603   3.020  0.1172 -0.5068  0.0115
 4461TIP3    H134874   2.122   2.608   2.953 -1.0133  0.4263 -1.1412
 4461TIP3    H234875   1.981   2.557   2.977 -0.3311 -0.6151  0.8695
 4462TIP3   OH234876   2.440   2.085  18.400  0.8482  0.2791  0.4054
 4462TIP3    H134877   2.426   2.156  18.463 -1.0304  0.1827  0.1461
 4462TIP3    H234878   2.466   2.130  18.319 -0.0042  0.6575  0.3354
 4463TIP3   OH234879   1.624   1.081  36.208  0.4370  0.0043  0.1792
 4463TIP3    H134880   1.720   1.083  36.217  0.2851  0.9590  1.9472
 4463TIP3    H234881   1.609   1.103  36.116  1.9118  0.3351 -0.0171
 4464TIP3   OH234882   0.740   2.484   2.849 -0.2862 -0.0861  0.0502
 4464TIP3    H134883   0.832   2.476   2.874 -0.1143  0.8484 -0.2618
 4464TIP3    H234884   0.698   2.408   2.888  0.6538 -0.6242  0.0377
 4465TIP3   OH234885   3.563   1.669  41.128  0.0900 -0.1069 -0.7429
 4465TIP3    H134886   3.528   1.582  41.111  0.2578 -0.1549 -0.8470
 4465TIP3    H234887   3.651   1.653  41.162 -0.4835 -0.0464  0.8539
 4466TIP3   OH234888   3.597   1.896  33.476  0.2706 -1.1097  0.2458
 4466TIP3    H134889   3.584   1.942  33.559 -0.0316 -1.8117  0.6031
 4466TIP3    H234890   3.692   1.888  33.468  0.3192 -0.5500  0.2445
 4467TIP3   OH234891   3.397   2.022  35.756  0.0440 -0.1788  0.0411
 4467TIP3    H134892   3.442   2.035  35.673  1.4205 -0.8921  0.6274
 4467TIP3    H234893   3.364   1.932  35.752 -1.6103  0.4282 -0.4904
 4468TIP3   OH234894   1.026   0.711   5.965  0.4783 -0.8453  0.1483
 4468TIP3    H134895   1.119   0.698   5.984  0.7577 -0.7334 -1.0751
 4468TIP3    H234896   0.983   0.634   6.003  1.2231 -1.5361 -0.3840
 4469TIP3   OH234897   1.838   3.386  12.418  0.6099  0.2208 -0.0641
 4469TIP3    H134898   1.868   3.386  12.509 -0.8235 -0.2360  0.4364
 4469TIP3    H234899   1.884   3.459  12.377  0.7131  0.8988  1.2207
 4470TIP3   OH234900   3.864   4.202  10.971  0.1022  0.8020 -0.2885
 4470TIP3    H134901   3.787   4.236  10.926 -0.2868  0.7625  0.3352
 4470TIP3    H234902   3.907   4.280  11.007 -0.4538  0.7004  0.6163
 4471TIP3   OH234903   4.001   3.925  29.411  0.1141 -0.0048  0.1452
 4471TIP3    H134904   4.032   3.872  29.338 -0.2309 -0.5639  0.3992
 4471TIP3    H234905   3.990   4.013  29.374 -2.5391 -0.7980 -1.1738
 4472TIP3   OH234906   3.913   3.679  34.209  0.2154  0.1403  0.3259
 4472TIP3    H134907   4.005   3.684  34.182  0.9600 -1.6652  2.2787
 4472TIP3    H234908   3.889   3.587  34.196 -2.2205  1.0519 -2.6440
 4473TIP3   OH234909   2.616   3.507  31.137  0.1242 -0.2007  0.3594
 4473TIP3    H134910   2.611   3.472  31.048 -0.1016 -1.7712  0.9588
 4473TIP3    H234911   2.709   3.503  31.159 -0.1102 -2.6746  1.2284
 4474TIP3   OH234912   3.708   4.150   5.646 -0.4555  0.2140  0.4314
 4474TIP3    H134913   3.626   4.107   5.672 -0.2032  1.0546  2.7938
 4474TIP3    H234914   3.736   4.198   5.724  1.5306  1.1557 -0.7931
 4475TIP3   OH234915   1.346   0.832   4.717 -0.3936  0.5680  0.3060
 4475TIP3    H134916   1.369   0.741   4.736 -1.5380  0.1234 -0.3113
 4475TIP3    H234917   1.424   0.868   4.675  0.4988  0.2411  1.6243
 4476TIP3   OH234918   0.889   0.232  10.432  0.2547 -0.3920 -0.0252
 4476TIP3    H134919   0.844   0.174  10.370 -0.7843 -0.1965  0.5355
 4476TIP3    H234920   0.904   0.312  10.383  3.2018 -1.6026 -1.3759
 4477TIP3   OH234921   0.747   0.161   8.515  0.0994 -0.2075  0.7446
 4477TIP3    H134922   0.840   0.161   8.533 -0.2385  2.3522  3.0993
 4477TIP3    H234923   0.724   0.254   8.505 -2.2538 -0.7371  0.5159
 4478TIP3   OH234924   1.683   3.499  37.201 -0.2595 -0.1763 -0.1731
 4478TIP3    H134925   1.691   3.545  37.118 -1.2263 -0.7344 -0.5859
 4478TIP3    H234926   1.702   3.407  37.179 -0.3243 -0.2957  0.2607
 4479TIP3   OH234927   3.372   2.633  35.977 -0.1615 -0.4289  0.0526
 4479TIP3    H134928   3.324   2.627  35.895  0.5559 -0.9908 -0.3389
 4479TIP3    H234929   3.338   2.712  36.019  0.2110  0.4665 -1.2733
 4480TIP3   OH234930   0.281   2.867  12.939 -0.3755 -0.0946  0.8265
 4480TIP3    H134931   0.236   2.882  13.022  0.3075 -0.7009  1.3219
 4480TIP3    H234932   0.363   2.826  12.964 -0.0923 -0.1417 -0.1493
 4481TIP3   OH234933   0.501   1.532  12.881  0.1697 -0.4240  0.4915
 4481TIP3    H134934   0.551   1.451  12.887 -0.6472 -0.8320  2.1181
 4481TIP3    H234935   0.520   1.579  12.962  1.1631  1.3845 -0.6987
 4482TIP3   OH234936   0.920   3.349  29.704 -0.0647  0.0193  0.5402
 4482TIP3    H134937   0.928   3.316  29.615 -1.0712  1.1571  0.0017
 4482TIP3    H234938   1.004   3.391  29.723  0.0852 -0.0703  0.0677
 4483TIP3   OH234939   2.766   1.498  35.371 -0.0983  0.3119 -0.0731
 4483TIP3    H134940   2.697   1.558  35.345  0.0699 -0.0701 -1.4796
 4483TIP3    H234941   2.816   1.545  35.438 -0.6046  1.3098 -0.3852
 4484TIP3   OH234942   1.787   3.966  14.095  0.1615 -0.4095  0.5303
 4484TIP3    H134943   1.757   3.989  14.007 -0.8909 -1.5696  0.5604
 4484TIP3    H234944   1.804   4.050  14.137 -2.6270  0.3390  0.3383
 4485TIP3   OH234945   2.899   3.289  38.638  0.3615  0.2488 -0.0810
 4485TIP3    H134946   2.875   3.354  38.572 -3.2416 -0.6292  0.1578
 4485TIP3    H234947   2.948   3.339  38.703 -1.2782  2.5524 -0.4545
 4486TIP3   OH234948   0.285   0.480  36.699  0.1334 -0.2918  0.1740
 4486TIP3    H134949   0.212   0.421  36.719  0.1110 -0.5327 -0.5652
 4486TIP3    H234950   0.264   0.561  36.745  0.4871 -1.0570  1.7337
 4487TIP3   OH234951   0.501   4.102  30.561  0.0678 -0.7171 -0.0155
 4487TIP3    H134952   0.492   4.017  30.604  1.4625 -1.0467 -0.3406
 4487TIP3    H234953   0.581   4.139  30.597 -0.2778  0.2694 -0.2237
 4488TIP3   OH234954   1.403   1.118   1.978 -0.0907 -0.3076  0.1202
 4488TIP3    H134955   1.326   1.061   1.975 -1.3192  1.2906 -0.0015
 4488TIP3    H234956   1.396   1.164   2.062  1.4345 -1.0243  0.6844
 4489TIP3   OH234957   1.555   0.808   2.916  0.0694 -0.6214 -0.2714
 4489TIP3    H134958   1.569   0.805   3.011  0.2362  0.4673 -0.2397
 4489TIP3    H234959   1.517   0.723   2.894  0.7834 -1.1922  0.6406
 4490TIP3   OH234960   0.285   2.294  33.858 -0.5926  0.1261  0.2977
 4490TIP3    H134961   0.247   2.234  33.794 -1.5348 -1.1036  1.9320
 4490TIP3    H234962   0.210   2.343  33.892 -0.5006 -0.8753  2.0858
 4491TIP3   OH234963   3.126   1.343   7.992 -0.1830 -0.0450  0.1231
 4491TIP3    H134964   3.192   1.393   7.944 -0.0375 -0.2638  0.0937
 4491TIP3    H234965   3.060   1.408   8.016 -0.2618  0.0712 -0.3790
 4492TIP3   OH234966   2.377   4.037  11.466  0.0904 -0.0001 -0.6059
 4492TIP3    H134967   2.383   4.061  11.373 -1.5119  0.2049 -0.6859
 4492TIP3    H234968   2.374   3.941  11.466 -1.5480  0.0070 -0.9450
 4493TIP3   OH234969   3.882   3.844  27.770  0.0001 -0.4406 -0.5298
 4493TIP3    H134970   3.977   3.847  27.781  0.0026 -0.3104 -0.5849
 4493TIP3    H234971   3.858   3.933  27.743 -0.1059 -0.5416 -0.7722
 4494TIP3   OH234972   1.119   3.865  27.781  0.6512 -0.3460  0.0450
 4494TIP3    H134973   1.106   3.960  27.775 -0.0978 -0.4554 -0.1274
 4494TIP3    H234974   1.208   3.855  27.816  0.9270  0.4136 -0.4251
 4495TIP3   OH234975   4.378   0.311  12.779  0.4158  0.5016  0.6438
 4495TIP3    H134976   4.418   0.397  12.792 -0.2713  1.1247 -1.0210
 4495TIP3    H234977   4.354   0.282  12.867  2.4556  1.0906  1.4632
 4496TIP3   OH234978   1.197   0.980  35.035  0.3062 -0.2407  0.1753
 4496TIP3    H134979   1.222   0.913  35.099 -1.4444 -0.8826  0.2435
 4496TIP3    H234980   1.114   1.015  35.068  0.0180  0.3118 -1.0723
 4497TIP3   OH234981   1.850   1.313  36.447  0.1066  0.1411 -0.0277
 4497TIP3    H134982   1.943   1.296  36.436  0.5582  0.8951  2.2086
 4497TIP3    H234983   1.817   1.324  36.358  2.1183 -0.2129 -0.8629
 4498TIP3   OH234984   0.488   1.309  32.947  0.5864  0.1734  0.1637
 4498TIP3    H134985   0.393   1.314  32.950  0.3633 -2.2083 -0.9451
 4498TIP3    H234986   0.507   1.219  32.922  3.1764  0.2229  1.5513
 4499TIP3   OH234987   1.956   1.887   9.296  0.1265 -0.3165  0.5614
 4499TIP3    H134988   2.025   1.911   9.358 -0.1009  0.3246  0.5816
 4499TIP3    H234989   1.878   1.874   9.351  0.3996 -1.7894  0.6187
 4500TIP3   OH234990   1.469   3.993   6.481 -0.4549 -0.6021  0.7481
 4500TIP3    H134991   1.551   3.979   6.528  0.4922  0.0848 -0.6032
 4500TIP3    H234992   1.441   4.081   6.507  0.3480 -0.0048 -0.2880
 4501TIP3   OH234993   1.628   2.368  36.952  0.0285 -0.3402  0.1425
 4501TIP3    H134994   1.721   2.393  36.958  0.1401 -0.3153 -1.3044
 4501TIP3    H234995   1.589   2.435  36.895 -0.7505 -0.6658  0.2895
 4502TIP3   OH234996   3.138   0.935   3.288 -0.3014  0.4824  0.0575
 4502TIP3    H134997   3.136   0.916   3.194 -1.5373  1.0241 -0.0520
 4502TIP3    H234998   3.071   1.003   3.299 -0.5516  0.0326  1.4144
 4503TIP3   OH234999   2.154   1.461  39.239 -0.2416 -0.3449  0.0785
 4503TIP3    H135000   2.150   1.551  39.207 -1.2280 -0.8837 -1.4305
 4503TIP3    H235001   2.241   1.429  39.214 -0.6137 -0.4180 -1.1602
 4504TIP3   OH235002   0.915   0.327  38.848  0.5260 -0.1189  0.1855
 4504TIP3    H135003   0.855   0.352  38.778 -0.4442 -1.9830  0.2688
 4504TIP3    H235004   0.972   0.403  38.860 -0.0928  0.7151 -1.7492
 4505TIP3   OH235005   3.005   2.472  27.235 -0.5316  0.0003 -0.2596
 4505TIP3    H135006   3.055   2.453  27.314 -0.9446 -0.6449 -0.1417
 4505TIP3    H235007   2.931   2.525  27.266 -1.0065 -0.7348 -0.1156
 4506TIP3   OH235008   3.707   2.925   8.563  0.1217 -0.3263 -0.4871
 4506TIP3    H135009   3.650   2.856   8.596  0.3556  1.0196  3.1885
 4506TIP3    H235010   3.652   2.976   8.503 -0.7722 -2.2154 -1.3475
 4507TIP3   OH235011   1.432   2.845  17.501  0.0133  0.0869 -0.0972
 4507TIP3    H135012   1.400   2.934  17.493 -1.8678 -0.6247 -1.1080
 4507TIP3    H235013   1.444   2.815  17.411 -0.4844 -1.0444  0.1882
 4508TIP3   OH235014   4.258   4.392  21.780  0.7743 -0.0325  0.3795
 4508TIP3    H135015   4.252   4.430  21.693  1.5064 -0.5962  0.0729
 4508TIP3    H235016   4.196   4.442  21.833 -2.2797 -1.8315 -1.2335
 4509TIP3   OH235017   4.345   0.704  12.543  0.5836 -0.1041 -0.2242
 4509TIP3    H135018   4.364   0.702  12.449  1.7603  0.7717 -0.0265
 4509TIP3    H235019   4.343   0.797  12.565  1.0015 -0.3073  0.7371
 4510TIP3   OH235020   4.298   0.017   1.586 -0.1434 -0.1821 -0.3773
 4510TIP3    H135021   4.231   0.000   1.652 -0.0870 -0.1047 -0.2985
 4510TIP3    H235022   4.380   0.020   1.636  0.0786 -1.5006 -0.6303
 4511TIP3   OH235023   0.856   4.141  40.874  0.4523  0.2105  0.0817
 4511TIP3    H135024   0.883   4.231  40.854 -0.6789  0.6390  0.4275
 4511TIP3    H235025   0.885   4.128  40.965 -0.7169  0.7684  0.5490
 4512TIP3   OH235026   3.330   4.133  34.243  0.4432  0.1164 -0.5730
 4512TIP3    H135027   3.396   4.064  34.253  0.3221 -0.2095 -1.8535
 4512TIP3    H235028   3.249   4.094  34.277  0.8790  0.5307  1.0430
 4513TIP3   OH235029   1.309   1.598  10.955 -0.2041  0.2188  0.4581
 4513TIP3    H135030   1.380   1.630  10.901 -1.9679 -0.3697 -2.3940
 4513TIP3    H235031   1.299   1.506  10.930 -0.8873 -0.1899  2.0656
 4514TIP3   OH235032   1.215   2.518  13.452  0.1207 -0.1544 -0.0938
 4514TIP3    H135033   1.256   2.438  13.418 -1.4221 -1.6931  1.4496
 4514TIP3    H235034   1.256   2.589  13.402  1.7750 -1.8615 -1.3159
 4515TIP3   OH235035   2.142   0.344  27.817 -0.0528 -0.8556  0.2828
 4515TIP3    H135036   2.199   0.394  27.760 -0.7927 -1.0074 -0.6114
 4515TIP3    H235037   2.146   0.389  27.901  1.2848 -0.8076  0.2070
 4516TIP3   OH235038   4.274   0.754  31.121  0.0653  0.4984 -0.0179
 4516TIP3    H135039   4.229   0.687  31.172  0.4015  0.1749 -0.1466
 4516TIP3    H235040   4.223   0.834  31.137 -0.0899  0.3069  0.4670
 4517TIP3   OH235041   1.410   1.295  38.759 -0.0689 -0.1831  0.0306
 4517TIP3    H135042   1.420   1.319  38.667  1.6504 -2.1764 -0.3818
 4517TIP3    H235043   1.487   1.241  38.778  0.1160  0.9456  2.9247
 4518TIP3   OH235044   4.235   0.227  25.645  0.1408 -0.8500 -0.1805
 4518TIP3    H135045   4.187   0.290  25.699  0.6336 -0.4993 -0.1446
 4518TIP3    H235046   4.174   0.154  25.634 -1.0012  0.2502 -1.4666
 4519TIP3   OH235047   3.865   1.975  11.147  0.1328 -0.1945 -0.2153
 4519TIP3    H135048   3.934   2.041  11.154  2.0467 -2.0726 -0.7073
 4519TIP3    H235049   3.867   1.947  11.055  0.0052 -1.5909  0.1867
 4520TIP3   OH235050   3.414   0.865   0.570 -0.9078 -0.2175  0.1755
 4520TIP3    H135051   3.388   0.926   0.638 -0.0660  0.3151  0.0358
 4520TIP3    H235052   3.464   0.918   0.508 -1.1892 -0.8046 -0.5722
 4521TIP3   OH235053   4.190   2.445   4.100  0.2354 -0.3199 -0.2417
 4521TIP3    H135054   4.170   2.376   4.036  1.3966  0.3756 -1.4167
 4521TIP3    H235055   4.281   2.428   4.125  0.5993  0.8579 -0.6875
 4522TIP3   OH235056   0.078   0.041  34.609 -0.0794 -0.1324 -0.3649
 4522TIP3    H135057   0.155  -0.012  34.628  0.6940  1.1832  0.3776
 4522TIP3    H235058   0.044   0.066  34.695  0.5127  1.8080 -0.6326
 4523TIP3   OH235059   1.367   1.234   5.507  0.1331 -0.1864 -0.7936
 4523TIP3    H135060   1.417   1.155   5.487 -1.1699 -0.9207 -1.3330
 4523TIP3    H235061   1.278   1.214   5.477 -0.7664  0.6138  1.1667
 4524TIP3   OH235062   1.542   2.012  27.092  0.0944  0.0320 -0.3950
 4524TIP3    H135063   1.600   2.088  27.096 -0.4700  0.4504  0.1236
 4524TIP3    H235064   1.532   1.994  26.998 -0.1826  0.9299 -0.5465
 4525TIP3   OH235065   2.990   2.333  11.324  0.0643 -0.5573 -0.2995
 4525TIP3    H135066   2.912   2.282  11.347  0.4941 -0.1726  2.3287
 4525TIP3    H235067   3.062   2.272  11.334  0.5562  0.3228  2.6124
 4526TIP3   OH235068   2.863   4.346   3.281  0.2961 -0.2491 -1.2262
 4526TIP3    H135069   2.797   4.278   3.269  0.4871 -0.5239 -0.7662
 4526TIP3    H235070   2.859   4.367   3.374  0.9840 -0.4066 -1.1548
 4527TIP3   OH235071   1.758   2.679  13.284 -0.2994 -0.0735 -0.4460
 4527TIP3    H135072   1.741   2.698  13.376  0.0735  0.7817 -0.5440
 4527TIP3    H235073   1.743   2.585  13.276  1.7658 -0.5903  0.9870
 4528TIP3   OH235074   2.843   3.366   6.539 -0.4732 -0.0054 -0.0501
 4528TIP3    H135075   2.914   3.395   6.482 -0.7620 -0.7554 -0.8084
 4528TIP3    H235076   2.765   3.367   6.483 -1.1546  1.1900  0.8757
 4529TIP3   OH235077   1.037   0.026  15.836  0.4844  0.2054  0.7754
 4529TIP3    H135078   1.044   0.121  15.848 -0.2940  0.3894 -0.0999
 4529TIP3    H235079   1.016  -0.008  15.923 -0.1788  0.9498  0.9172
 4530TIP3   OH235080   0.828   3.566  41.253  0.1256  0.4158  0.2933
 4530TIP3    H135081   0.761   3.512  41.211  0.9053 -0.9781  0.7610
 4530TIP3    H235082   0.804   3.656  41.231 -0.5162 -0.1647 -1.5742
 4531TIP3   OH235083   3.633   0.779  33.228 -0.3874  0.1658  0.0541
 4531TIP3    H135084   3.607   0.869  33.210 -0.0382  0.3700  0.5279
 4531TIP3    H235085   3.723   0.787  33.260 -0.8816 -0.1889  1.6034
 4532TIP3   OH235086   0.180   3.749   2.428 -0.4128  0.2393  1.1929
 4532TIP3    H135087   0.254   3.797   2.465  0.4451 -1.0300  1.1884
 4532TIP3    H235088   0.213   3.661   2.414 -1.5879 -0.0605  0.0840
 4533TIP3   OH235089   0.054   2.610  38.230 -0.0262  0.2816  0.1544
 4533TIP3    H135090   0.039   2.517  38.212 -0.1004  0.5469 -1.2521
 4533TIP3    H235091   0.073   2.648  38.144 -1.4224  1.8292  0.4845
 4534TIP3   OH235092   1.649   4.289  31.334  0.5538 -0.1556 -0.3504
 4534TIP3    H135093   1.737   4.284  31.371 -0.0052  0.5732  1.1445
 4534TIP3    H235094   1.648   4.371  31.285  0.0857  0.9642  1.4440
 4535TIP3   OH235095   0.437   0.891  30.242 -0.1003  0.1234  0.1647
 4535TIP3    H135096   0.458   0.958  30.308  0.3992 -1.2473  1.4633
 4535TIP3    H235097   0.456   0.808  30.286  1.4638 -0.8324 -2.1381
 4536TIP3   OH235098   0.298   2.978   4.933 -0.1586  0.2876 -0.4214
 4536TIP3    H135099   0.239   2.968   5.008 -2.4828  1.0444 -2.0077
 4536TIP3    H235100   0.256   2.929   4.863  1.0798  0.9516 -1.6720
 4537TIP3   OH235101   0.578   1.514  34.607 -0.3938  0.1623 -0.1916
 4537TIP3    H135102   0.615   1.443  34.554 -1.5699 -1.0394  0.5400
 4537TIP3    H235103   0.485   1.515  34.585 -0.8689 -0.2022  1.6285
 4538TIP3   OH235104   3.999   0.052  40.822 -0.1413  0.7525  0.8586
 4538TIP3    H135105   3.946  -0.028  40.816 -1.5073  1.7212 -1.1779
 4538TIP3    H235106   4.083   0.027  40.783 -0.4264  0.2057  0.5881
 4539TIP3   OH235107   3.838   0.112   0.029 -0.5696  0.1800 -0.5828
 4539TIP3    H135108   3.836   0.170   0.105 -1.3570 -1.2497  0.5247
 4539TIP3    H235109   3.930   0.083   0.024  0.1746  2.5272 -2.0007
 4540TIP3   OH235110   4.203   0.658  29.703 -0.5628 -0.2161 -0.0165
 4540TIP3    H135111   4.164   0.741  29.676 -0.9995  0.1574  1.6252
 4540TIP3    H235112   4.142   0.591  29.672 -1.1820  0.2057  0.2699
 4541TIP3   OH235113   4.150   1.743  37.645  1.0611 -0.1362 -0.1532
 4541TIP3    H135114   4.208   1.813  37.615  2.2361 -1.2990 -0.6932
 4541TIP3    H235115   4.106   1.780  37.722  3.5930  0.3382  1.1956
 4542TIP3   OH235116   3.316   3.440   4.973  0.1631 -0.7029 -0.0432
 4542TIP3    H135117   3.406   3.454   4.942 -0.4696 -1.2827 -2.3806
 4542TIP3    H235118   3.325   3.384   5.050  1.8541  0.2235  0.4687
 4543TIP3   OH235119   3.839   3.337  27.291  0.2858  0.1898 -0.0479
 4543TIP3    H135120   3.902   3.265  27.286  0.3148  0.1948  0.2471
 4543TIP3    H235121   3.816   3.343  27.383  0.0191  0.3337 -0.1215
 4544TIP3   OH235122   4.167   2.878  23.945  0.2122  0.1451 -0.3839
 4544TIP3    H135123   4.141   2.875  23.853  0.0965 -1.7552 -0.3244
 4544TIP3    H235124   4.128   2.800  23.984  0.1508  0.9719  1.3344
 4545TIP3   OH235125   1.415   3.636  18.143  0.0919 -1.1295  0.2674
 4545TIP3    H135126   1.366   3.717  18.130  2.6929  0.7587  1.4263
 4545TIP3    H235127   1.409   3.617  18.236 -0.1837 -2.0985  0.0722
 4546TIP3   OH235128   1.030   2.765   9.401 -0.3414  0.1499  0.2350
 4546TIP3    H135129   1.101   2.800   9.455  1.0267 -1.4597 -0.4262
 4546TIP3    H235130   1.073   2.735   9.321 -1.7279 -1.1041 -0.0814
 4547TIP3   OH235131   1.658   0.440   6.882  0.5320 -0.4553 -0.1854
 4547TIP3    H135132   1.662   0.458   6.788 -1.1260  1.8975  0.1184
 4547TIP3    H235133   1.601   0.363   6.890 -0.6705  0.3199 -1.0396
 4548TIP3   OH235134   1.984   4.098   9.097 -0.0807 -0.1715 -0.0849
 4548TIP3    H135135   1.957   4.092   9.188 -1.5898  1.6333 -0.3580
 4548TIP3    H235136   1.935   4.029   9.053  0.2186 -0.6738  0.3516
 4549TIP3   OH235137   0.649   2.260   2.971 -0.5418  0.5188  0.1581
 4549TIP3    H135138   0.729   2.222   2.935 -0.4944  0.9102 -0.1671
 4549TIP3    H235139   0.597   2.185   3.000  0.1097  0.2833  0.7421
 4550TIP3   OH235140   2.642   0.521  28.637 -0.6959 -0.5785 -0.1794
 4550TIP3    H135141   2.696   0.587  28.678 -1.1955 -0.3653  0.1470
 4550TIP3    H235142   2.614   0.465  28.709 -1.4850 -0.2682 -0.2369
 4551TIP3   OH235143   3.127   0.437  38.691  0.6796 -0.1900 -0.5021
 4551TIP3    H135144   3.192   0.440  38.621  0.3481 -1.5069 -0.8868
 4551TIP3    H235145   3.159   0.500  38.756  1.8069 -0.0869 -1.1399
 4552TIP3   OH235146   3.517   3.775   6.792  0.0201 -0.3363 -0.0660
 4552TIP3    H135147   3.558   3.849   6.837 -0.5700 -1.0281  1.7281
 4552TIP3    H235148   3.588   3.735   6.741  0.2809  1.5865 -1.3002
 4553TIP3   OH235149   1.872   3.340  39.523 -0.7051 -0.6265 -0.0930
 4553TIP3    H135150   1.850   3.428  39.490 -0.5144 -1.4633 -2.7078
 4553TIP3    H235151   1.966   3.343  39.536 -0.7162 -0.3968 -0.0540
 4554TIP3   OH235152   1.028   2.129  34.103  0.1817 -0.0963  0.0191
 4554TIP3    H135153   0.936   2.155  34.104 -0.0704 -0.9439  1.0664
 4554TIP3    H235154   1.070   2.184  34.169 -0.1185 -1.4492  1.3974
 4555TIP3   OH235155   3.370   0.462  28.616 -1.0925 -0.4414 -0.1788
 4555TIP3    H135156   3.433   0.486  28.548 -0.0123 -0.4454  0.8104
 4555TIP3    H235157   3.315   0.540  28.627 -0.2704  0.1102  0.0571
 4556TIP3   OH235158   1.389   1.690  30.539  0.4343  0.4429  0.6769
 4556TIP3    H135159   1.344   1.706  30.456  0.6229 -0.7752  0.3130
 4556TIP3    H235160   1.478   1.720  30.524  0.5955 -0.2219  0.2581
 4557TIP3   OH235161   0.757   3.018   5.423  0.4187  0.2562  0.0968
 4557TIP3    H135162   0.786   3.109   5.436 -0.1079  0.5829 -0.8513
 4557TIP3    H235163   0.735   2.987   5.510  1.1258  0.8642  0.5056
 4558TIP3   OH235164   3.724   3.151  40.969  0.6096  0.2031  0.3265
 4558TIP3    H135165   3.680   3.171  41.052  0.5461  0.0286  0.3364
 4558TIP3    H235166   3.738   3.237  40.929 -0.5633  0.2069 -0.1017
 4559TIP3   OH235167   2.296   1.558  28.681  0.1497  0.3651 -0.3005
 4559TIP3    H135168   2.245   1.638  28.668 -1.2330 -0.1751  1.4744
 4559TIP3    H235169   2.231   1.488  28.689  1.3363 -1.0178 -2.0197
 4560TIP3   OH235170   2.550   0.227  27.575  0.3020 -0.0244  0.3973
 4560TIP3    H135171   2.480   0.265  27.628  0.4357  0.5220  0.1898
 4560TIP3    H235172   2.504   0.173  27.510 -0.1017  2.1794 -1.2463
 4561TIP3   OH235173   0.806   2.809  30.719  0.2819 -0.5192 -0.2889
 4561TIP3    H135174   0.751   2.855  30.782  1.3382  0.7946 -0.2660
 4561TIP3    H235175   0.885   2.787  30.768  1.2157  0.7232 -1.1770
 4562TIP3   OH235176   1.303   1.186   0.343 -0.0607  0.2034  0.2455
 4562TIP3    H135177   1.272   1.171   0.432 -1.1152  0.3142 -0.0956
 4562TIP3    H235178   1.302   1.281   0.333 -0.6682  0.1645 -0.1253
 4563TIP3   OH235179   1.521   0.153  40.943 -0.0975  0.2082  0.7812
 4563TIP3    H135180   1.472   0.147  41.026  0.6837  0.2540  1.2551
 4563TIP3    H235181   1.612   0.167  40.970  0.1117  0.5956 -0.1001
 4564TIP3   OH235182   3.392   3.520   7.620 -0.2864  0.2342  0.2720
 4564TIP3    H135183   3.455   3.448   7.620 -0.3599  0.1682 -0.4406
 4564TIP3    H235184   3.347   3.512   7.536 -0.5648  0.8760  0.3616
 4565TIP3   OH235185   0.066   1.720  27.948  0.1988 -0.3710  0.0193
 4565TIP3    H135186  -0.020   1.687  27.973 -2.1547  2.9423 -2.6382
 4565TIP3    H235187   0.088   1.784  28.015 -0.1328 -0.1888 -0.0441
 4566TIP3   OH235188   1.542   4.200  10.954  0.2876  0.4845  0.0188
 4566TIP3    H135189   1.608   4.131  10.943 -0.9986 -0.6595 -0.8959
 4566TIP3    H235190   1.497   4.177  11.035  0.9205  1.2007  0.5838
 4567TIP3   OH235191   3.315   0.680  27.137  0.0718 -0.4324 -0.3125
 4567TIP3    H135192   3.397   0.730  27.130 -1.3672  2.1774  0.0197
 4567TIP3    H235193   3.252   0.731  27.086 -2.2129 -0.2464  2.4307
 4568TIP3   OH235194   3.232   1.699   5.699  0.1635 -0.5072 -0.1743
 4568TIP3    H135195   3.144   1.669   5.675  0.1948 -1.1248  0.4585
 4568TIP3    H235196   3.221   1.792   5.719 -0.0929 -0.2682 -1.3672
 4569TIP3   OH235197   1.666   0.732  32.658 -0.1465  0.4076 -0.2440
 4569TIP3    H135198   1.670   0.656  32.716 -0.0302  0.7465  0.1886
 4569TIP3    H235199   1.646   0.806  32.715 -0.8028  0.6221 -0.7455
 4570TIP3   OH235200   0.427   3.889  28.627  0.0283  0.0098 -0.7948
 4570TIP3    H135201   0.440   3.795  28.642 -1.2003 -0.1265 -0.4227
 4570TIP3    H235202   0.504   3.931  28.665  1.5805 -0.9445 -2.7129
 4571TIP3   OH235203   4.073   3.207  41.041 -0.3532 -0.3058 -0.0330
 4571TIP3    H135204   4.069   3.113  41.020 -0.5529 -0.1506 -0.7117
 4571TIP3    H235205   4.057   3.251  40.958  0.5837  0.3357  0.1095
 4572TIP3   OH235206   4.078   0.651   5.318  0.6411 -0.0345  0.1787
 4572TIP3    H135207   4.077   0.657   5.413 -2.6029  0.0230  0.2564
 4572TIP3    H235208   4.142   0.716   5.290 -0.8279  2.5249  2.2723
 4573TIP3   OH235209   1.976   0.180  37.176 -0.3627  0.1433  0.6428
 4573TIP3    H135210   1.981   0.162  37.270  0.6077  0.3910  0.6483
 4573TIP3    H235211   2.054   0.233  37.158 -0.7658  0.4439 -0.2220
 4574TIP3   OH235212   1.972   1.743   0.344  0.2063  0.2119 -0.0705
 4574TIP3    H135213   1.993   1.785   0.261 -0.2117  1.4095  0.4194
 4574TIP3    H235214   1.885   1.775   0.366  0.1285 -0.4473  0.6140
 4575TIP3   OH235215   1.992   0.215  33.848 -0.2768  0.1558 -0.1672
 4575TIP3    H135216   2.048   0.275  33.897 -0.8855  0.9390 -0.3970
 4575TIP3    H235217   1.952   0.270  33.781 -2.8040  0.1112  1.1736
 4576TIP3   OH235218   2.331   3.798  29.885 -0.1622 -0.1292  0.0740
 4576TIP3    H135219   2.278   3.845  29.820 -0.1604 -1.1152 -0.6466
 4576TIP3    H235220   2.273   3.791  29.961 -0.3820  0.4767 -0.0250
 4577TIP3   OH235221   2.582   0.381   6.405  0.3270 -0.2624 -0.5847
 4577TIP3    H135222   2.549   0.471   6.400 -0.7349 -0.6591 -1.2491
 4577TIP3    H235223   2.636   0.379   6.484  0.1112  0.8772 -0.3895
 4578TIP3   OH235224   2.341   1.587   3.119 -1.0092 -0.4777 -0.1399
 4578TIP3    H135225   2.381   1.505   3.148  0.6445  0.7709  1.3836
 4578TIP3    H235226   2.327   1.636   3.200 -1.4846  0.9280 -1.0442
 4579TIP3   OH235227   0.970   1.435   8.781  0.1495  0.0614 -0.4268
 4579TIP3    H135228   1.007   1.362   8.830 -2.2849 -1.2570 -0.4187
 4579TIP3    H235229   1.023   1.440   8.702  0.8096 -1.2206 -0.0877
 4580TIP3   OH235230   1.909   2.761   3.194 -0.1060 -0.6460 -0.0809
 4580TIP3    H135231   1.937   2.708   3.268  2.2822  0.0210 -0.4174
 4580TIP3    H235232   1.961   2.727   3.120  0.0246  0.8575 -0.7051
 4581TIP3   OH235233   3.675   3.497  31.664  0.2508  0.2483  0.1055
 4581TIP3    H135234   3.629   3.576  31.634  1.1259  1.2179  1.2136
 4581TIP3    H235235   3.744   3.530  31.721  0.0587 -1.3922  1.3612
 4582TIP3   OH235236   0.003   2.973  24.709 -0.2966  0.1172  0.3694
 4582TIP3    H135237  -0.039   3.054  24.740  1.1568  1.5982 -1.3265
 4582TIP3    H235238   0.096   2.995  24.705  0.0788 -1.5289 -0.5291
 4583TIP3   OH235239   3.254   3.914  31.326 -0.4161 -0.4122  0.2950
 4583TIP3    H135240   3.181   3.956  31.281 -1.0105  0.0809  1.6586
 4583TIP3    H235241   3.282   3.978  31.392  0.3673 -1.1312  0.6853
 4584TIP3   OH235242   2.187   1.681  33.784  0.0840 -0.2922  0.0506
 4584TIP3    H135243   2.197   1.734  33.705 -3.7635 -0.4727 -0.7919
 4584TIP3    H235244   2.201   1.591  33.755 -2.8121 -0.5250 -0.9941
 4585TIP3   OH235245   1.396   3.084  40.755  0.1582  0.5794 -0.5917
 4585TIP3    H135246   1.305   3.055  40.757 -0.4288  2.2793 -1.1304
 4585TIP3    H235247   1.422   3.088  40.847  0.5008 -2.1596 -0.4806
 4586TIP3   OH235248   1.392   0.369   0.487  0.3221 -0.6914  0.3903
 4586TIP3    H135249   1.401   0.290   0.541  0.7393  0.8482  2.7579
 4586TIP3    H235250   1.464   0.426   0.517  0.0453  0.5841 -1.2442
 4587TIP3   OH235251   1.657   2.740  15.353  0.0600 -0.4523 -0.6364
 4587TIP3    H135252   1.680   2.822  15.397 -0.6950 -1.4477  1.7897
 4587TIP3    H235253   1.741   2.698  15.335  0.3866 -0.4201  0.7280
 4588TIP3   OH235254   1.093   2.512   6.373 -0.1468 -0.3955 -0.7326
 4588TIP3    H135255   1.152   2.577   6.412  0.3865 -0.9432 -0.6120
 4588TIP3    H235256   1.026   2.564   6.328 -1.6132  0.3099  2.0439
 4589TIP3   OH235257   1.804   1.185  28.254 -0.0305  0.3001  0.2331
 4589TIP3    H135258   1.846   1.104  28.282 -0.5437 -0.3584 -0.8074
 4589TIP3    H235259   1.718   1.183  28.297 -0.8518 -0.7521 -1.3456
 4590TIP3   OH235260   1.973   0.241  40.369 -0.1915 -0.2152 -0.4486
 4590TIP3    H135261   2.051   0.276  40.413  0.2342  0.1965 -1.4956
 4590TIP3    H235262   1.924   0.197  40.439  0.8106 -0.1943  0.2990
 4591TIP3   OH235263   1.588   3.441  39.711 -0.1602 -0.1314  0.2496
 4591TIP3    H135264   1.543   3.419  39.629  0.6786 -0.7784 -0.0546
 4591TIP3    H235265   1.652   3.371  39.722  0.8966  0.8522  0.5631
 4592TIP3   OH235266   1.056   3.758  35.261  0.4139 -0.3020 -0.0044
 4592TIP3    H135267   1.099   3.702  35.325 -0.8253 -1.7277 -0.3799
 4592TIP3    H235268   1.041   3.840  35.308  3.2745  0.2054  0.2031
 4593TIP3   OH235269   4.147   3.639   3.722  0.0086  0.1147  0.1452
 4593TIP3    H135270   4.199   3.558   3.722 -0.0428  0.0743  0.7996
 4593TIP3    H235271   4.212   3.709   3.712  0.0436 -0.0087 -0.5273
 4594TIP3   OH235272   2.572   3.764   9.532  0.5833 -0.1855 -0.5047
 4594TIP3    H135273   2.516   3.787   9.606  1.8104  1.9619 -0.1491
 4594TIP3    H235274   2.619   3.845   9.511  3.2091 -1.7041 -1.0703
 4595TIP3   OH235275   3.584   1.880  36.560 -0.4641  0.9347  0.6510
 4595TIP3    H135276   3.515   1.945  36.549 -0.8216  0.2052 -2.9182
 4595TIP3    H235277   3.663   1.921  36.523 -0.0304  0.3189  0.8648
 4596TIP3   OH235278   0.983   1.283   7.168 -0.5048 -0.1185  0.3051
 4596TIP3    H135279   1.068   1.299   7.126 -0.1169  0.4493  1.2742
 4596TIP3    H235280   0.988   1.331   7.251 -1.5169 -0.6433  0.6848
 4597TIP3   OH235281   0.762   3.426  13.684 -0.3608 -0.1980 -0.2721
 4597TIP3    H135282   0.823   3.352  13.686 -1.1337 -0.8355  0.9936
 4597TIP3    H235283   0.681   3.389  13.647 -0.9827 -0.1996  1.0497
 4598TIP3   OH235284   0.087   0.176  30.299 -0.1088  0.4609 -0.4501
 4598TIP3    H135285   0.075   0.135  30.213 -1.3421 -0.0032 -0.0829
 4598TIP3    H235286   0.084   0.270  30.281 -0.2605  0.3676 -0.9301
 4599TIP3   OH235287   2.319   4.013   9.975 -0.4044  0.3675 -0.0459
 4599TIP3    H135288   2.254   3.965  10.026 -0.9067 -0.8038 -1.7076
 4599TIP3    H235289   2.272   4.043   9.897  0.7631  0.4869 -0.7330
 4600TIP3   OH235290   4.385   1.361   5.868  0.1324 -0.6097  0.2637
 4600TIP3    H135291   4.304   1.349   5.818  1.3270 -1.0374 -1.6864
 4600TIP3    H235292   4.369   1.440   5.920 -0.8956  0.4672 -1.5479
 4601TIP3   OH235293   3.732   2.983  32.217 -0.0978  0.3955  0.3675
 4601TIP3    H135294   3.650   2.994  32.168 -0.2940  3.7276  1.1745
 4601TIP3    H235295   3.800   2.989  32.149 -0.4637  1.8998  0.0823
 4602TIP3   OH235296   2.681   1.600   8.460 -0.4142 -0.1490  0.2425
 4602TIP3    H135297   2.605   1.579   8.515  0.0764  2.8214  2.3091
 4602TIP3    H235298   2.649   1.592   8.370 -2.5548 -1.0143  1.0268
 4603TIP3   OH235299   0.826   1.108   8.068  0.0093 -0.1960  0.1359
 4603TIP3    H135300   0.831   1.065   7.983  0.3672  1.6009 -0.7912
 4603TIP3    H235301   0.755   1.063   8.114 -0.0743 -1.2962 -1.0313
 4604TIP3   OH235302   0.737   2.403  38.998 -0.6214 -0.7242  0.1443
 4604TIP3    H135303   0.669   2.471  39.006  0.9208  1.0380 -0.8466
 4604TIP3    H235304   0.781   2.424  38.916  1.1737 -1.7588  0.7982
 4605TIP3   OH235305   2.458   1.083   2.979 -0.5702  0.4216  0.2825
 4605TIP3    H135306   2.543   1.067   3.021 -0.1520 -1.9043 -1.2833
 4605TIP3    H235307   2.395   1.074   3.050  0.2516 -1.5067  0.8376
 4606TIP3   OH235308   3.885   1.254  39.444 -0.1027 -0.2387  0.7024
 4606TIP3    H135309   3.875   1.347  39.423  1.4127  0.2421  1.8989
 4606TIP3    H235310   3.904   1.253  39.538  3.4166 -1.4124  0.1165
 4607TIP3   OH235311   2.704   3.284  35.058  0.8614  0.2451 -0.0728
 4607TIP3    H135312   2.696   3.275  34.963 -1.0729 -3.6778  0.2560
 4607TIP3    H235313   2.785   3.237  35.079 -0.1056 -1.3033  0.3490
 4608TIP3   OH235314   0.398   4.209   9.088  0.5804  0.0550 -0.1656
 4608TIP3    H135315   0.324   4.247   9.136  1.3030 -0.1942  1.1992
 4608TIP3    H235316   0.458   4.180   9.156  2.8656  1.9728 -1.2259
 4609TIP3   OH235317   2.985   3.133  39.666 -0.2590 -0.6162  0.4356
 4609TIP3    H135318   3.020   3.112  39.753 -0.5486  1.5533  1.1431
 4609TIP3    H235319   2.971   3.228  39.669  1.2780 -0.1965 -2.5454
 4610TIP3   OH235320   1.564   2.784  36.341 -0.3428 -0.1085 -0.2619
 4610TIP3    H135321   1.544   2.709  36.397  1.8270 -0.5358  0.0054
 4610TIP3    H235322   1.657   2.777  36.323 -0.7050  0.7607 -2.9027
 4611TIP3   OH235323   3.973   0.655  25.722  0.3074  0.0021  0.5546
 4611TIP3    H135324   3.899   0.711  25.746  0.3746  0.7816 -0.9658
 4611TIP3    H235325   3.991   0.676  25.631  2.4774 -0.0784  0.9097
 4612TIP3   OH235326   0.086   0.606  23.353  0.0417  0.1232 -0.4136
 4612TIP3    H135327   0.137   0.534  23.389  1.1425  0.9969 -0.1935
 4612TIP3    H235328  -0.000   0.567  23.335  0.4544 -1.1113  0.1635
 4613TIP3   OH235329   0.992   0.388  11.732  0.1439 -1.0682 -0.3331
 4613TIP3    H135330   0.978   0.316  11.670  1.3294 -1.2276 -0.4352
 4613TIP3    H235331   1.070   0.433  11.700 -0.0389 -0.3018  0.2669
 4614TIP3   OH235332   3.181   0.839   9.069  0.1242 -0.3019  0.5066
 4614TIP3    H135333   3.128   0.917   9.084  0.5296  0.1776 -0.4589
 4614TIP3    H235334   3.268   0.863   9.100  0.2533 -0.3641  0.1946
 4615TIP3   OH235335   1.104   0.405  32.286 -0.6561  0.2864  0.3194
 4615TIP3    H135336   1.195   0.403  32.256 -0.3315  1.5903  1.1247
 4615TIP3    H235337   1.071   0.317  32.270  1.4026 -0.8467  1.9853
 4616TIP3   OH235338   3.437   2.639  33.652  0.0095  0.4919 -0.2825
 4616TIP3    H135339   3.357   2.675  33.688 -0.8145  0.0680 -1.6174
 4616TIP3    H235340   3.425   2.643  33.557  1.8119  0.9538 -0.5237
 4617TIP3   OH235341   3.839   2.010  41.655  0.0552  0.2284  0.3730
 4617TIP3    H135342   3.836   1.946  41.583 -1.6891 -0.9487  1.4100
 4617TIP3    H235343   3.813   2.093  41.616  2.1662  0.3386 -0.9657
 4618TIP3   OH235344   3.552   3.751   8.534 -0.4507  0.5176  0.1732
 4618TIP3    H135345   3.502   3.805   8.595 -0.7600  0.6256 -0.1750
 4618TIP3    H235346   3.491   3.733   8.462 -0.0326  0.5288 -0.1844
 4619TIP3   OH235347   0.692   1.653  34.844 -0.2764 -0.3360  0.7306
 4619TIP3    H135348   0.664   1.618  34.759  1.2234  1.1748 -0.4475
 4619TIP3    H235349   0.642   1.733  34.855  0.1521 -0.0846  0.8716
 4620TIP3   OH235350   3.846   1.769  28.399  0.0402 -0.0074  0.3471
 4620TIP3    H135351   3.782   1.838  28.416  0.2934  0.2635  0.2115
 4620TIP3    H235352   3.895   1.760  28.480 -0.1008 -0.1413  0.4184
 4621TIP3   OH235353   0.201   0.160   6.893 -0.5064 -0.8614  0.2274
 4621TIP3    H135354   0.226   0.237   6.944 -0.3835 -0.5700 -0.2760
 4621TIP3    H235355   0.116   0.134   6.930 -1.4681  0.6325 -0.8174
 4622TIP3   OH235356   4.400   3.480   4.619  0.4461 -0.2754 -0.6075
 4622TIP3    H135357   4.425   3.548   4.557  1.7164  0.7659  0.9544
 4622TIP3    H235358   4.477   3.470   4.676 -0.3842 -1.7153  0.3393
 4623TIP3   OH235359   0.201   2.114   6.239 -0.5543  0.4691 -0.3997
 4623TIP3    H135360   0.233   2.164   6.164  1.7597  1.9107  1.4059
 4623TIP3    H235361   0.271   2.050   6.256 -2.3159 -1.7949 -1.0848
 4624TIP3   OH235362   1.403   0.156  41.206  0.1209 -0.3711  0.1159
 4624TIP3    H135363   1.472   0.105  41.249  0.7134 -0.7199 -1.2119
 4624TIP3    H235364   1.384   0.226  41.268  1.9055 -0.0768  0.3834
 4625TIP3   OH235365   0.888   1.676  13.451 -0.4934  0.2093 -0.2614
 4625TIP3    H135366   0.950   1.635  13.390 -0.8644 -1.1748  0.2642
 4625TIP3    H235367   0.802   1.652  13.417 -0.7216 -2.0310  1.6810
 4626TIP3   OH235368   1.979   1.394  11.766 -0.3563  0.2725 -0.0592
 4626TIP3    H135369   2.071   1.406  11.790 -0.5803 -0.9214  1.5355
 4626TIP3    H235370   1.933   1.390  11.850 -1.7548  0.0046 -0.8168
 4627TIP3   OH235371   0.799   2.111  10.546  0.4587  0.4684 -0.0156
 4627TIP3    H135372   0.886   2.072  10.543  0.6005  0.7074  0.8220
 4627TIP3    H235373   0.740   2.038  10.525  0.7575 -0.0700  0.9691
 4628TIP3   OH235374   3.079   2.444  29.402 -0.5370  0.1289 -0.1825
 4628TIP3    H135375   3.161   2.394  29.404 -1.2390 -1.0202  1.0080
 4628TIP3    H235376   3.038   2.419  29.319 -0.6763 -0.9602  0.2021
 4629TIP3   OH235377   1.332   0.884  34.734  0.0899  0.7685  0.2839
 4629TIP3    H135378   1.379   0.841  34.662  1.8321  2.2601  0.4771
 4629TIP3    H235379   1.400   0.924  34.788 -1.3581  2.9390  0.6445
 4630TIP3   OH235380   2.051   1.555   9.691  0.2073  0.0946 -0.0107
 4630TIP3    H135381   2.080   1.578   9.779  0.6414  3.6692 -0.9421
 4630TIP3    H235382   2.002   1.631   9.661  0.6544 -0.6983 -3.0995
 4631TIP3   OH235383   3.670   1.292  33.043  0.1703  0.1755 -0.3239
 4631TIP3    H135384   3.757   1.331  33.055  0.9435 -0.3974 -3.2270
 4631TIP3    H235385   3.665   1.272  32.949 -2.1205 -2.1252  0.1538
 4632TIP3   OH235386   0.838   3.223  32.954  0.2941 -0.0549 -0.4334
 4632TIP3    H135387   0.921   3.246  32.996 -0.6892  0.8436  1.1187
 4632TIP3    H235388   0.788   3.178  33.022 -0.1900 -1.3598 -1.6093
 4633TIP3   OH235389   1.642   0.834   5.084  0.5158 -0.4756 -0.5226
 4633TIP3    H135390   1.588   0.760   5.057  1.3907 -1.7983  1.1219
 4633TIP3    H235391   1.643   0.893   5.008 -1.6851 -1.2567 -1.2420
 4634TIP3   OH235392   2.488   2.311   5.936 -0.1900  0.0154  0.3681
 4634TIP3    H135393   2.528   2.239   5.986  1.1989  1.3633  1.2682
 4634TIP3    H235394   2.454   2.370   6.003 -3.0730 -0.6696 -0.3717
 4635TIP3   OH235395   1.488   1.766  31.919 -0.8374  0.5793 -0.0972
 4635TIP3    H135396   1.514   1.831  31.984  0.2510  0.3213 -0.2613
 4635TIP3    H235397   1.548   1.780  31.846 -0.3482 -0.8531  0.0050
 4636TIP3   OH235398   0.319   1.712  38.622 -0.1181 -0.5439  0.1762
 4636TIP3    H135399   0.294   1.653  38.551 -1.5451  1.0804 -0.7546
 4636TIP3    H235400   0.241   1.764  38.639  0.0268 -1.1425  3.2962
 4637TIP3   OH235401   3.823   2.973   3.871 -0.6958  0.4465 -0.5254
 4637TIP3    H135402   3.808   2.884   3.837 -1.4041  1.1250 -2.0899
 4637TIP3    H235403   3.745   3.021   3.846  0.1889  1.8116 -0.7811
 4638TIP3   OH235404   0.446   2.448   5.581  0.2832  0.1780  0.0695
 4638TIP3    H135405   0.540   2.458   5.564  0.4896 -1.1542  0.3069
 4638TIP3    H235406   0.424   2.364   5.543 -0.9809  0.7803 -0.5625
 4639TIP3   OH235407   1.129   1.052  39.847 -0.1248  0.4615  0.0632
 4639TIP3    H135408   1.154   1.139  39.880  0.9020  0.5262 -0.8254
 4639TIP3    H235409   1.178   1.042  39.765 -0.7553 -0.6861 -0.2034
 4640TIP3   OH235410   2.774   0.310   4.387 -0.3232  0.4698 -0.0335
 4640TIP3    H135411   2.772   0.264   4.303  0.0280  1.7526 -0.7659
 4640TIP3    H235412   2.851   0.273   4.432 -1.2040 -1.0849  0.2617
 4641TIP3   OH235413   3.290   2.090  40.029  0.0323  0.1655  0.0034
 4641TIP3    H135414   3.257   2.051  39.948 -1.4606  0.9624  0.2076
 4641TIP3    H235415   3.239   2.048  40.099  1.8212 -1.0845  0.6623
 4642TIP3   OH235416   1.412   1.895  41.290  0.4555 -0.1231  0.7190
 4642TIP3    H135417   1.324   1.926  41.267  0.8194 -0.2316 -0.9175
 4642TIP3    H235418   1.441   1.955  41.359  0.4088  2.0825 -1.0639
 4643TIP3   OH235419   2.523   3.639  26.812 -0.2236  0.6088  0.8134
 4643TIP3    H135420   2.452   3.703  26.804  0.5854  1.4231 -0.1061
 4643TIP3    H235421   2.489   3.560  26.770 -0.3840  1.1832 -0.1761
 4644TIP3   OH235422   0.024   2.550  29.857 -0.0406  0.0795  0.0340
 4644TIP3    H135423  -0.012   2.466  29.884  1.4975 -1.0742 -1.2910
 4644TIP3    H235424  -0.047   2.613  29.872 -1.2609 -1.4544  0.9589
 4645TIP3   OH235425   1.748   1.266  14.134  0.0807  0.3915 -0.5404
 4645TIP3    H135426   1.781   1.330  14.196 -1.3464  0.5861  0.0427
 4645TIP3    H235427   1.801   1.188  14.150  0.9523  1.0048 -0.3618
 4646TIP3   OH235428   3.981   0.764  36.974 -0.6010 -0.2650  0.2951
 4646TIP3    H135429   3.924   0.815  37.031  0.0013 -0.4262  1.0444
 4646TIP3    H235430   3.944   0.675  36.977 -1.2314 -0.0431 -0.4565
 4647TIP3   OH235431   3.357   0.799  36.840 -0.6294 -0.6198 -1.0333
 4647TIP3    H135432   3.327   0.823  36.753 -1.3731  1.3223 -0.2904
 4647TIP3    H235433   3.334   0.873  36.895  2.2949 -0.5617  0.3006
 4648TIP3   OH235434   1.503   1.621  12.622 -0.3675  0.1189 -0.3115
 4648TIP3    H135435   1.433   1.560  12.646  0.2825 -0.4961  0.0870
 4648TIP3    H235436   1.583   1.577  12.652  0.0913  1.3289  0.2874
 4649TIP3   OH235437   1.132   3.211   9.864 -0.2217 -0.0958  0.2116
 4649TIP3    H135438   1.045   3.213   9.906 -1.0056  1.6210 -1.3637
 4649TIP3    H235439   1.124   3.143   9.797 -1.2172  1.6011 -1.5050
 4650TIP3   OH235440   1.855   3.166  15.652 -0.3881 -0.3960  0.3070
 4650TIP3    H135441   1.780   3.174  15.711  0.3617 -0.1726  1.2446
 4650TIP3    H235442   1.925   3.131  15.707  0.5407  0.5416 -0.2604
 4651TIP3   OH235443   1.665   1.651   2.935  0.1159  0.4793 -0.2346
 4651TIP3    H135444   1.637   1.735   2.971 -0.7033  0.4579 -0.8220
 4651TIP3    H235445   1.734   1.674   2.872  1.1348  0.5620  0.8761
 4652TIP3   OH235446   1.582   2.289  39.260 -0.0102  0.1931 -0.1222
 4652TIP3    H135447   1.661   2.342  39.269  0.8014 -1.0261  0.2378
 4652TIP3    H235448   1.566   2.255  39.348 -1.4845  1.1463  0.0053
 4653TIP3   OH235449   3.185   1.195  30.873 -0.0509  0.4957 -0.9087
 4653TIP3    H135450   3.096   1.231  30.871 -0.1506  0.2611 -0.5852
 4653TIP3    H235451   3.240   1.269  30.899 -0.4122  0.0945  1.1097
 4654TIP3   OH235452   1.500   0.300  39.558  0.1885  0.2336 -0.0691
 4654TIP3    H135453   1.563   0.341  39.500  1.0114 -0.5428  0.2563
 4654TIP3    H235454   1.503   0.207  39.535  1.3795 -0.2830  1.9460
 4655TIP3   OH235455   1.394   3.361  17.596 -0.2382 -0.1002 -0.0317
 4655TIP3    H135456   1.350   3.442  17.622  0.1632  0.1358 -0.0760
 4655TIP3    H235457   1.469   3.390  17.545 -0.5419 -0.5288 -0.7462
 4656TIP3   OH235458   0.672   0.643  38.071 -0.1560  0.0760 -0.5444
 4656TIP3    H135459   0.588   0.689  38.063 -0.6347 -0.3252  1.6322
 4656TIP3    H235460   0.720   0.692  38.138  0.6471 -0.6940 -0.5413
 4657TIP3   OH235461   2.610   2.058   6.576  0.2136 -0.2931  0.4571
 4657TIP3    H135462   2.515   2.047   6.583 -0.2051  1.6757 -1.1541
 4657TIP3    H235463   2.633   2.017   6.493  0.6602 -0.1830  0.5241
 4658TIP3   OH235464   2.831   1.804  12.930  0.1550 -0.1890  0.2716
 4658TIP3    H135465   2.842   1.781  13.022  0.0674  2.2944  0.9894
 4658TIP3    H235466   2.864   1.893  12.924 -1.2082  0.2477 -1.7715
 4659TIP3   OH235467   3.401   1.842  35.471  0.1140 -0.1562  0.4840
 4659TIP3    H135468   3.377   1.750  35.486  2.7108 -0.6788  2.0588
 4659TIP3    H235469   3.319   1.890  35.481 -0.8030 -2.0040  2.7574
 4660TIP3   OH235470   2.699   1.883  11.131 -0.0413 -0.5097  1.0015
 4660TIP3    H135471   2.776   1.938  11.114 -0.6141  0.0065 -0.0386
 4660TIP3    H235472   2.717   1.842  11.216  1.0508  0.1593  1.1163
 4661TIP3   OH235473   0.918   2.728  38.880 -0.0461 -0.3060  0.1727
 4661TIP3    H135474   0.910   2.635  38.861 -0.3866 -0.2506  0.0332
 4661TIP3    H235475   0.980   2.760  38.814  1.1581 -0.6833  1.0721
 4662TIP3   OH235476   3.819   0.229  24.331  0.0101 -0.4333 -0.0465
 4662TIP3    H135477   3.820   0.314  24.287  1.6879 -0.1136  0.5567
 4662TIP3    H235478   3.857   0.245  24.417 -2.4312 -1.2150  1.2858
 4663TIP3   OH235479   3.259   2.898   7.007 -0.4087  0.1385 -0.0344
 4663TIP3    H135480   3.322   2.942   6.949 -0.5852  0.5731  0.1019
 4663TIP3    H235481   3.177   2.946   6.994 -1.2202 -1.5512 -1.5925
 4664TIP3   OH235482   0.456   2.340  28.806  0.0809  0.1507  0.0008
 4664TIP3    H135483   0.538   2.388  28.820  1.1833 -1.3183 -1.0355
 4664TIP3    H235484   0.483   2.261  28.760 -1.9045 -0.5573 -0.0287
 4665TIP3   OH235485   0.925   4.218  27.076 -1.4614 -0.5251 -0.3691
 4665TIP3    H135486   1.015   4.220  27.045 -1.1515 -0.8119  0.4957
 4665TIP3    H235487   0.925   4.156  27.149 -2.3815 -0.6187 -0.4238
 4666TIP3   OH235488   1.215   3.402  29.639 -0.9304  0.0220  0.2587
 4666TIP3    H135489   1.195   3.495  29.627 -0.3342  0.2771  1.1442
 4666TIP3    H235490   1.294   3.401  29.692 -1.1206 -0.9983  0.5469
 4667TIP3   OH235491   0.314   3.817  27.892  0.8299  0.4699  0.6067
 4667TIP3    H135492   0.344   3.845  27.806 -0.6749  0.8041  0.1491
 4667TIP3    H235493   0.302   3.722  27.884 -1.2399  0.7487 -0.2403
 4668TIP3   OH235494   1.329   0.386  17.943 -0.1206  0.4665  0.2436
 4668TIP3    H135495   1.407   0.409  17.993 -0.2848 -0.8123  1.1347
 4668TIP3    H235496   1.257   0.395  18.005 -0.4263 -0.3447  0.0161
 4669TIP3   OH235497   3.298   0.812  40.333  0.1479 -0.1480 -0.2427
 4669TIP3    H135498   3.358   0.876  40.293  0.8957 -0.7076 -0.0374
 4669TIP3    H235499   3.345   0.729  40.328 -1.0707 -0.8201 -1.0858
 4670TIP3   OH235500   2.352   4.196   7.286 -0.2087 -0.2053 -0.4425
 4670TIP3    H135501   2.258   4.211   7.280 -0.1269  0.1221 -0.9846
 4670TIP3    H235502   2.365   4.158   7.373 -0.8793 -0.5490 -0.4825
 4671TIP3   OH235503   1.507   2.773  28.258 -0.1105  0.2144  0.3159
 4671TIP3    H135504   1.549   2.777  28.172  1.2104 -1.1696  0.8738
 4671TIP3    H235505   1.564   2.824  28.315 -1.0802  1.2846  0.3894
 4672TIP3   OH235506   0.010   0.930  13.256  0.2183 -0.4045  0.1365
 4672TIP3    H135507   0.022   1.025  13.255  1.1935 -0.4397 -2.8682
 4672TIP3    H235508  -0.071   0.917  13.305 -0.1167  1.9973  0.3669
 4673TIP3   OH235509   0.644   2.295   1.762 -0.6283  0.4466  0.1343
 4673TIP3    H135510   0.551   2.296   1.742 -0.2589 -0.2987 -1.8601
 4673TIP3    H235511   0.660   2.207   1.798 -0.2900 -0.3775 -1.9247
 4674TIP3   OH235512   0.917   1.448  26.818  0.2649 -0.1993 -0.3098
 4674TIP3    H135513   0.944   1.427  26.908 -0.4937  0.9486  0.2137
 4674TIP3    H235514   0.998   1.444  26.767  0.9422  0.4085  0.6825
 4675TIP3   OH235515   3.100   3.362   3.482  0.3264 -0.2380  0.1190
 4675TIP3    H135516   3.090   3.448   3.441 -0.3217 -0.4921 -0.2760
 4675TIP3    H235517   3.137   3.307   3.413  1.3692 -0.1291  0.5691
 4676TIP3   OH235518   3.871   2.928  34.824  0.2437 -0.1392  0.0950
 4676TIP3    H135519   3.805   2.982  34.781 -0.0721  1.2325  2.1832
 4676TIP3    H235520   3.937   2.989  34.854  1.3637 -1.2619  0.0042
 4677TIP3   OH235521   0.192   1.783  38.153 -0.2888  0.8822 -0.0612
 4677TIP3    H135522   0.146   1.866  38.137 -2.7689 -0.5271 -0.6533
 4677TIP3    H235523   0.202   1.780  38.248 -1.8003  1.0680  0.1247
 4678TIP3   OH235524   0.134   2.840  26.359  0.6180  0.2113  0.2085
 4678TIP3    H135525   0.056   2.797  26.324 -1.6362  1.6369  2.9663
 4678TIP3    H235526   0.117   2.933  26.346  1.9177  0.5383  0.7433
 4679TIP3   OH235527   3.976   3.051  30.240  0.6223 -0.0320 -0.5912
 4679TIP3    H135528   3.922   3.067  30.318  0.9441  0.9982 -0.5652
 4679TIP3    H235529   4.065   3.064  30.270  0.6595  2.1681 -1.5310
 4680TIP3   OH235530   0.967   2.504  28.868  0.6296 -0.6135  0.1968
 4680TIP3    H135531   0.974   2.437  28.936  1.2785  1.0392  1.8523
 4680TIP3    H235532   1.044   2.560  28.882 -0.4577  1.1065 -0.4017
 4681TIP3   OH235533   3.228   3.591  37.415 -0.3578  0.3739  0.1232
 4681TIP3    H135534   3.172   3.601  37.492 -0.4135  0.9100  0.0192
 4681TIP3    H235535   3.177   3.537  37.355  0.3320 -1.4032  1.0807
 4682TIP3   OH235536   0.554   0.271  36.173 -0.1491 -0.2579  0.2128
 4682TIP3    H135537   0.480   0.237  36.122 -0.8140  1.1146  0.2213
 4682TIP3    H235538   0.617   0.199  36.174 -0.9278 -0.9918 -0.9143
 4683TIP3   OH235539   4.267   1.634   9.899  0.1998 -0.0106 -0.0830
 4683TIP3    H135540   4.311   1.581   9.833  1.2387 -0.6964  1.1250
 4683TIP3    H235541   4.177   1.600   9.901  0.6008 -1.0955  0.0107
 4684TIP3   OH235542   1.760   0.775  17.018 -0.9611 -0.0238 -0.1136
 4684TIP3    H135543   1.839   0.789  16.967 -0.3895 -0.6044  0.5982
 4684TIP3    H235544   1.689   0.780  16.954 -0.1773 -2.2598 -1.2594
 4685TIP3   OH235545   3.170   2.724   2.309 -0.3076  0.2025  0.1490
 4685TIP3    H135546   3.105   2.655   2.322  0.6910 -0.7608  0.1607
 4685TIP3    H235547   3.252   2.686   2.340  0.7221  0.5238 -1.9793
 4686TIP3   OH235548   4.030   2.710  28.139  0.0008  0.1225 -0.0082
 4686TIP3    H135549   4.034   2.791  28.189 -0.1636  0.1832 -0.0934
 4686TIP3    H235550   4.010   2.738  28.049 -1.3004 -0.0962  0.1959
 4687TIP3   OH235551   3.591   4.003  27.268  0.3060 -0.7373 -0.3228
 4687TIP3    H135552   3.558   4.000  27.357 -0.5289  1.1312 -0.5309
 4687TIP3    H235553   3.544   3.934  27.222 -0.5202 -0.5798  0.2777
 4688TIP3   OH235554   3.312   0.977  37.293  0.0998  0.0346  0.0636
 4688TIP3    H135555   3.253   0.963  37.367  1.5827 -0.1072  1.2718
 4688TIP3    H235556   3.357   0.893  37.282  0.1971  0.1827 -0.7327
 4689TIP3   OH235557   0.462   3.093   5.402  0.3613  0.3897  0.0200
 4689TIP3    H135558   0.435   3.002   5.412  3.4036 -0.4968  1.2816
 4689TIP3    H235559   0.439   3.135   5.484  1.1341  0.0863  0.4040
 4690TIP3   OH235560   0.119   1.505   1.516 -0.4057 -0.1977  0.1291
 4690TIP3    H135561   0.092   1.468   1.432 -0.1351 -1.7815  0.7055
 4690TIP3    H235562   0.199   1.553   1.496 -0.6530 -0.0815 -0.6161
 4691TIP3   OH235563   0.563   2.876   4.236  0.6337 -0.1040 -0.1471
 4691TIP3    H135564   0.481   2.857   4.190  0.3691  0.4489  0.0911
 4691TIP3    H235565   0.539   2.942   4.301  1.5357  1.0833 -0.9806
 4692TIP3   OH235566   3.480   1.185   7.409  0.0066  0.0710 -0.6976
 4692TIP3    H135567   3.519   1.106   7.371 -0.9820  0.1171 -1.8831
 4692TIP3    H235568   3.444   1.156   7.493 -1.8289 -1.1902 -1.8477
 4693TIP3   OH235569   0.358   0.288  11.817 -0.6218  0.1728 -0.2899
 4693TIP3    H135570   0.303   0.265  11.742  0.5002 -3.3947 -0.2186
 4693TIP3    H235571   0.297   0.297  11.890 -1.4324  0.1180 -0.9482
 4694TIP3   OH235572   0.851   0.976  39.915 -0.2410  0.6282  0.5548
 4694TIP3    H135573   0.837   0.883  39.897 -1.3312  0.7758  0.5412
 4694TIP3    H235574   0.933   0.998  39.871  0.3892 -0.4808  1.1321
 4695TIP3   OH235575   1.356   1.167  38.097  0.4159  0.7217  0.4278
 4695TIP3    H135576   1.431   1.112  38.120  0.4904  1.3779  1.9079
 4695TIP3    H235577   1.390   1.256  38.100  0.2108  0.8978 -1.5969
 4696TIP3   OH235578   0.022   0.750   6.002  0.3185  0.4011 -0.0615
 4696TIP3    H135579   0.025   0.842   6.030 -0.3564  0.4794 -0.2407
 4696TIP3    H235580  -0.011   0.754   5.912 -1.1119 -0.1199  0.4191
 4697TIP3   OH235581   1.715   0.859  11.562  0.3182 -0.0858 -0.5936
 4697TIP3    H135582   1.648   0.854  11.629 -0.7200 -0.4328 -1.6285
 4697TIP3    H235583   1.781   0.795  11.589 -1.7258 -2.7888 -1.6462
 4698TIP3   OH235584   1.609   0.273  31.325 -0.5043  0.1618 -0.4674
 4698TIP3    H135585   1.550   0.213  31.371 -1.4384  0.7256 -0.8857
 4698TIP3    H235586   1.696   0.238  31.341 -0.7981  0.2518  1.5979
 4699TIP3   OH235587   0.781   0.255  27.356 -0.1712  0.4671 -0.2336
 4699TIP3    H135588   0.810   0.228  27.269 -1.0801 -0.4816 -0.2621
 4699TIP3    H235589   0.719   0.187  27.383 -0.1214  0.8994  1.0365
 4700TIP3   OH235590   3.154   0.213  36.842  0.1330  0.2320  0.0068
 4700TIP3    H135591   3.120   0.285  36.789  1.3018  0.1991 -0.8214
 4700TIP3    H235592   3.080   0.153  36.851 -0.1725  0.3649 -1.3880
 4701TIP3   OH235593   2.101   2.755  39.882  0.1352 -0.1815  0.1777
 4701TIP3    H135594   2.185   2.724  39.849  0.9635  0.3784  1.6546
 4701TIP3    H235595   2.085   2.702  39.960 -0.0539  0.8206  0.8379
 4702TIP3   OH235596   4.259   0.968  28.306 -0.3570 -0.5965 -0.8446
 4702TIP3    H135597   4.246   0.892  28.363 -0.3370 -0.0144 -0.0461
 4702TIP3    H235598   4.292   0.931  28.224  1.2359 -1.3332  0.0654
 4703TIP3   OH235599   0.958   0.062   6.089  0.1672  0.3427  0.6286
 4703TIP3    H135600   0.884   0.060   6.029  0.5909 -2.5838  0.0411
 4703TIP3    H235601   1.035   0.064   6.032  0.5827 -2.7006  0.9243
 4704TIP3   OH235602   2.121   0.061  11.811 -0.3089 -0.0457  0.0666
 4704TIP3    H135603   2.213   0.041  11.795 -0.0338  1.9947 -1.2586
 4704TIP3    H235604   2.116   0.082  11.904  0.5877  0.0088  0.1033
 4705TIP3   OH235605   2.674   2.653   2.898  0.4293 -0.4885  0.1719
 4705TIP3    H135606   2.719   2.692   2.823 -0.0853  1.2310  0.7208
 4705TIP3    H235607   2.736   2.588   2.931  0.3376 -1.9153 -2.2066
 4706TIP3   OH235608   1.442   0.101  30.660 -0.1520  0.6557 -0.5139
 4706TIP3    H135609   1.414   0.109  30.751 -1.0341 -2.0174 -0.4555
 4706TIP3    H235610   1.535   0.126  30.661  0.5041 -1.4734  1.6252
 4707TIP3   OH235611   1.528   1.959   6.196  0.1746  0.7141  0.2711
 4707TIP3    H135612   1.489   1.874   6.216  1.5426  0.2195  1.0088
 4707TIP3    H235613   1.490   1.984   6.112  2.6133 -2.5263 -2.0461
 4708TIP3   OH235614   3.586   0.529   5.485  0.1223 -0.3553  0.7057
 4708TIP3    H135615   3.549   0.580   5.557 -0.1020  1.5030 -0.6617
 4708TIP3    H235616   3.675   0.561   5.476  0.3597 -1.0381  0.5657
 4709TIP3   OH235617   2.272   3.604  39.844 -0.0274 -0.1567 -0.1761
 4709TIP3    H135618   2.340   3.606  39.911  0.5461 -0.2713 -0.7402
 4709TIP3    H235619   2.196   3.566  39.887  0.5808 -0.9890  0.1866
 4710TIP3   OH235620   3.770   2.112  38.393  0.0007 -0.4026 -0.4662
 4710TIP3    H135621   3.767   2.101  38.488 -1.5491  0.6245 -0.3619
 4710TIP3    H235622   3.681   2.089  38.363 -0.3455  1.8256 -1.3406
 4711TIP3   OH235623   0.437   2.288   9.170  0.3746 -0.1957  0.1460
 4711TIP3    H135624   0.376   2.309   9.240  0.5663 -0.0222  0.2623
 4711TIP3    H235625   0.472   2.202   9.193  0.0919 -0.3438  0.0221
 4712TIP3   OH235626   0.527   2.034  38.620  0.0255  0.2008  0.2620
 4712TIP3    H135627   0.559   1.957  38.573 -1.7240 -0.0649 -0.5935
 4712TIP3    H235628   0.481   2.085  38.554 -1.3487  0.4969  1.3942
 4713TIP3   OH235629   3.667   1.089   0.234  0.2087  0.1449  0.4153
 4713TIP3    H135630   3.575   1.065   0.240 -0.0305 -0.0085 -2.3623
 4713TIP3    H235631   3.670   1.181   0.263 -0.4522 -0.3604  2.2237
 4714TIP3   OH235632   0.314   1.900   6.067  0.3079  0.2265  0.5293
 4714TIP3    H135633   0.401   1.885   6.105  0.7135  1.6217  0.2207
 4714TIP3    H235634   0.331   1.955   5.990 -1.0324  2.4899  1.7670
 4715TIP3   OH235635   0.159   3.410  27.135  0.4263 -0.2076  0.5477
 4715TIP3    H135636   0.105   3.467  27.190 -0.2365 -0.1837 -0.1199
 4715TIP3    H235637   0.224   3.374  27.196  0.8134  1.1764  1.0007
 4716TIP3   OH235638   0.783   1.423  30.491 -0.2344 -0.1594 -0.3042
 4716TIP3    H135639   0.816   1.336  30.469  0.2509 -0.0824  0.1197
 4716TIP3    H235640   0.699   1.405  30.535 -0.1824 -0.4036 -0.3003
 4717TIP3   OH235641   3.159   3.878  12.224 -0.2555 -0.0447  0.2669
 4717TIP3    H135642   3.166   3.863  12.318 -0.7103  0.9803  0.4819
 4717TIP3    H235643   3.115   3.963  12.217  0.7537  0.4092 -0.8621
 4718TIP3   OH235644   3.605   4.348  37.754 -0.5179  0.0301 -0.1155
 4718TIP3    H135645   3.563   4.369  37.837 -0.6356  0.7948 -0.3630
 4718TIP3    H235646   3.628   4.255  37.761 -1.4475 -0.1684  0.3710
 4719TIP3   OH235647   3.621   0.192  34.242  0.4317 -0.3150 -0.0119
 4719TIP3    H135648   3.587   0.107  34.267 -1.2984  0.6509  1.1376
 4719TIP3    H235649   3.579   0.212  34.159 -0.5293  0.1230  0.5576
 4720TIP3   OH235650   0.985   1.413  13.786  0.1453  0.3661  0.4294
 4720TIP3    H135651   1.079   1.406  13.768 -0.0407  0.0145 -0.4629
 4720TIP3    H235652   0.967   1.341  13.846  0.5392  0.7559  1.0276
 4721TIP3   OH235653   3.169   1.016   5.962 -0.2549  0.4387  0.4062
 4721TIP3    H135654   3.198   1.069   6.035 -1.1775  2.1858 -0.4201
 4721TIP3    H235655   3.235   1.029   5.894  0.6857 -1.3025  0.9233
 4722TIP3   OH235656   3.693   0.119  28.908 -0.1587 -0.4198 -0.0707
 4722TIP3    H135657   3.779   0.148  28.936  0.1301 -1.3381  0.0419
 4722TIP3    H235658   3.635   0.192  28.927  0.2442 -0.5160  1.7113
 4723TIP3   OH235659   4.234   0.827   5.191  0.0038 -0.6738  0.3157
 4723TIP3    H135660   4.326   0.847   5.172 -0.3120 -0.2415 -0.8554
 4723TIP3    H235661   4.206   0.773   5.117 -0.7236 -0.7017  0.6040
 4724TIP3   OH235662   0.510   3.267  22.514 -0.3495 -0.1962 -0.1188
 4724TIP3    H135663   0.604   3.258  22.530 -0.4516 -4.5666 -0.7217
 4724TIP3    H235664   0.476   3.310  22.593  2.2450  3.3466 -0.7178
 4725TIP3   OH235665   4.029   3.335  23.291  0.1322 -0.2966 -0.4192
 4725TIP3    H135666   4.038   3.426  23.263  2.3646 -0.3678 -0.0940
 4725TIP3    H235667   3.986   3.340  23.376 -0.8706  0.3409 -0.9370
 4726TIP3   OH235668   2.698   0.734  10.364  0.4202  0.1219  0.3834
 4726TIP3    H135669   2.763   0.663  10.368 -0.8248 -0.9785  2.9890
 4726TIP3    H235670   2.724   0.794  10.433 -0.4787  0.4452  0.4452
 4727TIP3   OH235671   4.136   2.866   2.952 -0.7552 -0.0300 -0.0660
 4727TIP3    H135672   4.165   2.834   3.037 -0.9594 -0.7223 -0.2522
 4727TIP3    H235673   4.206   2.924   2.923 -0.7074  0.2467  0.5926
 4728TIP3   OH235674   1.455   0.827  30.932  0.2594 -0.4889  0.3074
 4728TIP3    H135675   1.415   0.743  30.957  0.3052 -0.4414  0.5485
 4728TIP3    H235676   1.540   0.803  30.896 -0.2110 -0.6335 -0.7386
 4729TIP3   OH235677   2.883   0.313  30.655 -0.1552  0.0996 -0.9948
 4729TIP3    H135678   2.815   0.261  30.613  0.9530 -1.3828 -1.0394
 4729TIP3    H235679   2.889   0.276  30.744 -0.4133  1.2056 -0.5031
 4730TIP3   OH235680   2.018   3.433  41.203  0.0772 -0.5957 -0.3337
 4730TIP3    H135681   1.942   3.377  41.188 -0.4579  0.1390 -0.3749
 4730TIP3    H235682   1.999   3.478  41.285 -0.0637  0.4541 -0.9279
 4731TIP3   OH235683   1.206   3.101   6.888 -0.7724  0.0152  0.1134
 4731TIP3    H135684   1.162   3.024   6.853  0.0840 -0.6229  0.4014
 4731TIP3    H235685   1.235   3.149   6.810  1.5556 -1.6475 -0.1562
 4732TIP3   OH235686   1.625   2.087  34.963 -0.2972 -0.7361  0.0380
 4732TIP3    H135687   1.676   2.168  34.949 -0.2172 -0.9246 -0.8834
 4732TIP3    H235688   1.566   2.107  35.035 -2.0682  1.0357 -1.7765
 4733TIP3   OH235689   0.040   0.126   7.507 -0.3043 -0.4700  0.2054
 4733TIP3    H135690   0.030   0.140   7.413  2.0311  0.3536  0.0115
 4733TIP3    H235691   0.044   0.214   7.544  0.2669 -0.7731  0.8839
 4734TIP3   OH235692   1.256   2.855  41.152  0.2252  0.3365  0.1557
 4734TIP3    H135693   1.175   2.823  41.191  0.2125  0.6296  0.3710
 4734TIP3    H235694   1.241   2.849  41.057 -1.1460  3.0174  0.1051
 4735TIP3   OH235695   4.138   1.453  25.112  0.2715 -0.0194  0.3287
 4735TIP3    H135696   4.222   1.424  25.075 -0.4678 -0.5164 -1.0417
 4735TIP3    H235697   4.159   1.478  25.202  1.8280 -0.4300  0.1149
 4736TIP3   OH235698   3.305   4.056  38.060  0.1989 -0.7431 -0.3722
 4736TIP3    H135699   3.213   4.058  38.086  0.9154 -2.1586  2.7279
 4736TIP3    H235700   3.350   4.112  38.124  1.7220 -1.6114 -0.6264
 4737TIP3   OH235701   1.979   1.814  13.403  0.5883 -0.0879  0.3108
 4737TIP3    H135702   2.060   1.840  13.447  0.5884  0.1825  0.1536
 4737TIP3    H235703   1.942   1.896  13.369  1.0470 -0.3774 -0.9528
 4738TIP3   OH235704   3.954   3.272  33.634  0.1644 -0.0611 -0.0203
 4738TIP3    H135705   4.024   3.249  33.572  0.8994  0.5582  0.5653
 4738TIP3    H235706   3.887   3.313  33.579  1.3850  1.7167 -0.2629
 4739TIP3   OH235707   1.683   2.087  40.502  0.2424  0.0366  0.1080
 4739TIP3    H135708   1.729   2.016  40.546  0.4157  0.1639  0.1351
 4739TIP3    H235709   1.712   2.166  40.547 -1.5958 -0.0317  1.5133
 4740TIP3   OH235710   2.189   4.361  19.635  0.1611  0.1020  0.0184
 4740TIP3    H135711   2.184   4.287  19.696 -0.3102  0.0926 -0.0216
 4740TIP3    H235712   2.236   4.327  19.559  0.5480  0.0471  0.2803
 4741TIP3   OH235713   2.020   1.393   3.927 -0.2442 -0.5641 -0.1404
 4741TIP3    H135714   2.033   1.479   3.966  2.7173 -0.0999 -1.9061
 4741TIP3    H235715   2.028   1.407   3.833 -1.0410 -2.5914 -0.5640
 4742TIP3   OH235716   1.861   3.694  10.565  0.1871 -0.0185 -0.1058
 4742TIP3    H135717   1.895   3.621  10.616  1.8501 -0.0715 -1.2273
 4742TIP3    H235718   1.821   3.752  10.630  0.6214 -0.9545  1.0307
 4743TIP3   OH235719   0.592   0.025  38.400 -0.1990  0.4149  0.8165
 4743TIP3    H135720   0.547   0.020  38.484  0.8029 -0.6440  1.3298
 4743TIP3    H235721   0.605  -0.067  38.375 -0.0541  0.7143 -0.2598
 4744TIP3   OH235722   2.334   1.668   8.985  1.1007 -0.5353 -0.2859
 4744TIP3    H135723   2.371   1.693   8.900 -0.1127 -0.3339 -0.7751
 4744TIP3    H235724   2.331   1.573   8.983  1.3048 -0.5404 -0.3664
 4745TIP3   OH235725   1.005   2.888  13.931 -0.3945 -0.1268 -0.0665
 4745TIP3    H135726   1.021   2.870  14.024 -1.4351 -1.4402 -0.1119
 4745TIP3    H235727   1.058   2.824  13.885 -0.3919  0.0909 -0.3668
 4746TIP3   OH235728   2.143   0.509  13.397 -0.5301 -0.5971 -0.0291
 4746TIP3    H135729   2.167   0.506  13.304  0.3483  0.6454  0.1302
 4746TIP3    H235730   2.163   0.421  13.429 -0.1740 -0.8358 -0.8630
 4747TIP3   OH235731   0.089   0.884  34.953  0.3288  0.1241 -0.6086
 4747TIP3    H135732   0.119   0.835  35.030  2.0892 -0.3460 -1.5484
 4747TIP3    H235733   0.083   0.975  34.983  1.1020 -0.0376  0.0566
 4748TIP3   OH235734   0.584   3.377  32.982  0.4684  0.5727 -0.8413
 4748TIP3    H135735   0.511   3.318  32.963 -0.5692  0.9631  1.4929
 4748TIP3    H235736   0.661   3.322  32.978 -0.0272 -0.0572 -2.4601
 4749TIP3   OH235737   2.760   0.440  26.861 -0.0763  0.1401  0.4098
 4749TIP3    H135738   2.816   0.362  26.860  0.4718  0.5230 -0.3048
 4749TIP3    H235739   2.819   0.512  26.836 -1.3294  0.2130 -2.8103
 4750TIP3   OH235740   2.965   1.918   0.208 -0.6206  0.2205  0.3787
 4750TIP3    H135741   2.935   1.829   0.227  0.4069 -0.3927 -0.7337
 4750TIP3    H235742   2.934   1.935   0.119 -0.1416  0.6752  0.2924
 4751TIP3   OH235743   1.084   0.107  12.354 -0.4137 -0.2596 -0.5137
 4751TIP3    H135744   1.034   0.130  12.275  0.8312 -1.4462 -1.6933
 4751TIP3    H235745   1.050   0.021  12.379 -1.9537  0.7901  1.2741
 4752TIP3   OH235746   2.631   1.654  41.222  0.2970  0.2972  0.3987
 4752TIP3    H135747   2.642   1.727  41.282  0.9063  0.8713 -0.3923
 4752TIP3    H235748   2.695   1.589  41.250 -0.6840 -0.2252  1.5043
 4753TIP3   OH235749   0.492   3.778   3.023 -0.3080  0.1608 -0.2050
 4753TIP3    H135750   0.474   3.850   2.963  0.1804  2.0273  1.7691
 4753TIP3    H235751   0.587   3.775   3.030 -0.3629  0.2878  0.7972
 4754TIP3   OH235752   2.380   4.231  32.174 -0.7702 -0.3455  0.4684
 4754TIP3    H135753   2.343   4.299  32.231 -0.6921 -1.5282  1.9620
 4754TIP3    H235754   2.360   4.262  32.085 -0.3341  1.8531  1.0689
 4755TIP3   OH235755   3.531   1.957  38.242  0.4044 -0.5895  0.0140
 4755TIP3    H135756   3.505   1.869  38.268  1.8321 -1.3889 -1.1271
 4755TIP3    H235757   3.456   1.993  38.196 -0.4305 -0.9234  1.0702
 4756TIP3   OH235758   0.896   2.460  41.584  0.1435  0.3286  0.1468
 4756TIP3    H135759   0.934   2.384  41.628 -0.4625  0.4139  0.8404
 4756TIP3    H235760   0.836   2.423  41.519 -0.5493  0.2051  0.8399
 4757TIP3   OH235761   2.788   1.423   9.465  0.8347  0.0755 -0.1913
 4757TIP3    H135762   2.809   1.517   9.464 -1.8123  0.7952  0.8778
 4757TIP3    H235763   2.719   1.415   9.398  1.4950 -1.2741 -0.7359
 4758TIP3   OH235764   4.056   0.238  34.666 -0.4320 -0.1385 -0.3396
 4758TIP3    H135765   4.020   0.305  34.609 -2.2917 -0.5302  0.2983
 4758TIP3    H235766   4.056   0.278  34.753 -0.1182 -0.4527 -0.1927
 4759TIP3   OH235767   0.938   4.141  39.542  0.4598  0.1316  0.0732
 4759TIP3    H135768   1.029   4.166  39.523  0.1298  1.7261  0.4038
 4759TIP3    H235769   0.945   4.070  39.605  1.4826 -0.1383 -0.3279
 4760TIP3   OH235770   1.609   3.314  14.868 -0.7154  0.0565 -0.0415
 4760TIP3    H135771   1.517   3.341  14.874 -0.6135  0.2495  0.8408
 4760TIP3    H235772   1.613   3.259  14.790 -0.9435  2.5843 -1.9708
 4761TIP3   OH235773   1.514   1.152  40.690  0.5237  0.2009 -0.1780
 4761TIP3    H135774   1.533   1.167  40.597  2.0343 -0.7054 -0.0649
 4761TIP3    H235775   1.594   1.181  40.735  0.8783 -1.7600  0.5721
 4762TIP3   OH235776   4.017   0.953  41.462  0.6470 -0.0849 -0.2466
 4762TIP3    H135777   4.004   0.869  41.505 -1.0262 -1.1612 -2.6160
 4762TIP3    H235778   3.931   0.975  41.425  0.9796  2.8071  0.4467
 4763TIP3   OH235779   3.813   3.729  35.929  0.0205  0.1133 -0.2097
 4763TIP3    H135780   3.908   3.716  35.931  0.0542  0.4164  0.9599
 4763TIP3    H235781   3.803   3.817  35.893  0.2038  0.1947 -0.0675
 4764TIP3   OH235782   1.225   1.513  33.641 -0.5638 -0.3052  0.5731
 4764TIP3    H135783   1.283   1.439  33.624 -1.5236 -1.3982  1.8641
 4764TIP3    H235784   1.284   1.587  33.658  0.4127 -0.4945 -1.6710
 4765TIP3   OH235785   1.871   1.495   7.206 -0.3631  0.4598  0.5555
 4765TIP3    H135786   1.869   1.533   7.294 -1.1777  0.8904  0.3620
 4765TIP3    H235787   1.866   1.401   7.221 -0.3006  0.5194  0.9815
 4766TIP3   OH235788   1.325   4.068  14.164  0.4645  0.3254  0.0986
 4766TIP3    H135789   1.378   4.111  14.232 -0.5642 -0.3799  1.4033
 4766TIP3    H235790   1.336   3.974  14.181 -0.8084  0.1590  0.1179
 4767TIP3   OH235791   3.626   2.381  39.437 -0.0790 -0.0992 -0.2464
 4767TIP3    H135792   3.703   2.433  39.457  0.2341 -1.0709  1.2563
 4767TIP3    H235793   3.615   2.389  39.342  3.0215 -1.4591 -0.8189
 4768TIP3   OH235794   2.440   4.285   6.584  0.0115  0.0064 -0.5486
 4768TIP3    H135795   2.365   4.249   6.536  1.1818 -3.0050 -0.3553
 4768TIP3    H235796   2.408   4.298   6.673  0.1051 -3.3400  0.1071
 4769TIP3   OH235797   1.419   2.567   6.215  0.2200 -1.0901  0.2105
 4769TIP3    H135798   1.371   2.503   6.267  0.9170 -1.6946  0.1218
 4769TIP3    H235799   1.462   2.622   6.280  0.7952 -1.6179  0.2828
 4770TIP3   OH235800   1.870   3.502  33.954  0.1608  0.1673  0.6306
 4770TIP3    H135801   1.866   3.586  33.999 -3.8716  0.8861 -0.6628
 4770TIP3    H235802   1.921   3.446  34.012  2.4922  3.2254  1.8467
 4771TIP3   OH235803   0.517   1.886   8.924  0.6057  0.0847  0.1850
 4771TIP3    H135804   0.532   1.796   8.951  0.3977 -0.7027 -2.1212
 4771TIP3    H235805   0.574   1.938   8.980  0.4462 -1.4222  1.8120
 4772TIP3   OH235806   3.929   0.695  32.448 -0.3461 -0.6686  0.2531
 4772TIP3    H135807   4.005   0.745  32.419 -0.2231 -1.1934 -0.3534
 4772TIP3    H235808   3.855   0.734  32.402  0.0047 -2.2885 -1.8255
 4773TIP3   OH235809   1.888   2.250   0.686 -0.5120  0.0042 -0.2178
 4773TIP3    H135810   1.927   2.337   0.679 -1.8339  0.5764 -0.8174
 4773TIP3    H235811   1.890   2.216   0.596 -1.4563  0.0809 -0.2716
 4774TIP3   OH235812   4.045   1.014   6.403  0.3615 -0.1665 -0.1220
 4774TIP3    H135813   3.980   1.038   6.336  0.9628 -0.8098 -0.9664
 4774TIP3    H235814   3.994   0.975   6.473 -0.1468 -1.0772 -0.9750
 4775TIP3   OH235815   1.948   1.779   4.922  0.3381  0.0640 -1.1080
 4775TIP3    H135816   1.974   1.829   4.999  0.5705  0.3643 -1.3798
 4775TIP3    H235817   1.872   1.728   4.952  1.4395 -1.1108 -0.2064
 4776TIP3   OH235818   3.250   0.138  36.586 -0.5280 -0.4687  0.1044
 4776TIP3    H135819   3.188   0.175  36.523  1.3599  3.3359  0.1868
 4776TIP3    H235820   3.214   0.161  36.672  1.0318  2.2082  0.1496
 4777TIP3   OH235821   4.112   4.361  36.331 -0.0260 -0.2143 -0.0030
 4777TIP3    H135822   4.067   4.434  36.374 -0.7523 -0.2281 -0.7176
 4777TIP3    H235823   4.047   4.325  36.271  1.0277 -0.0689 -1.2689
 4778TIP3   OH235824   1.575   3.943  27.326  0.2705  0.5214 -0.1957
 4778TIP3    H135825   1.520   4.002  27.378  0.4524  0.3856  0.1572
 4778TIP3    H235826   1.549   3.959  27.235  2.1743  3.1478 -0.4190
 4779TIP3   OH235827   1.085   2.481   8.911  0.3647  0.0919  0.1908
 4779TIP3    H135828   1.022   2.429   8.861 -0.1710  1.2859 -0.4261
 4779TIP3    H235829   1.049   2.485   8.999 -1.0321  1.6442 -0.3979
 4780TIP3   OH235830   1.546   1.605  29.041 -0.2466  0.1817  0.6288
 4780TIP3    H135831   1.499   1.651  29.111 -1.7527  0.4699 -0.5300
 4780TIP3    H235832   1.511   1.516  29.044  0.9855 -0.3198  1.3495
 4781TIP3   OH235833   1.107   2.653  17.091  0.2729 -0.6003 -0.0120
 4781TIP3    H135834   1.179   2.619  17.038 -0.8268 -1.3412 -1.0910
 4781TIP3    H235835   1.056   2.706  17.030  0.1662  0.3292  0.8671
 4782TIP3   OH235836   3.952   3.542  37.265  0.2917  0.3085 -0.0621
 4782TIP3    H135837   3.905   3.535  37.182 -0.4593  1.0057  0.2859
 4782TIP3    H235838   3.986   3.631  37.267  0.2213  0.3303  0.4168
 4783TIP3   OH235839   2.259   0.511   1.806  0.7290 -0.4004 -0.0858
 4783TIP3    H135840   2.209   0.432   1.822  0.7684 -0.5757 -0.7667
 4783TIP3    H235841   2.198   0.569   1.759  0.4191  0.3275  1.1857
 4784TIP3   OH235842   0.547   1.341   8.610  0.0752 -1.0360 -0.3791
 4784TIP3    H135843   0.513   1.301   8.530 -1.6061 -0.7493  0.1642
 4784TIP3    H235844   0.488   1.414   8.628  1.4862  0.0166  0.1598
 4785TIP3   OH235845   2.115   1.856  37.845 -0.3922 -0.4083  0.9297
 4785TIP3    H135846   2.157   1.934  37.809  0.3480 -1.1714  0.0618
 4785TIP3    H235847   2.046   1.835  37.783  0.1059 -1.0385  0.5669
 4786TIP3   OH235848   0.610   1.716  36.488 -0.4463 -0.5127  0.1917
 4786TIP3    H135849   0.539   1.680  36.542  0.0806 -1.6429  0.1507
 4786TIP3    H235850   0.635   1.797  36.533 -2.2421  0.3078 -0.2000
 4787TIP3   OH235851   1.656   3.478  15.586  0.4363 -0.4657  0.2337
 4787TIP3    H135852   1.656   3.561  15.634  0.5557 -0.3609  0.0511
 4787TIP3    H235853   1.748   3.458  15.572  0.4920 -1.5352  1.8466
 4788TIP3   OH235854   4.069   0.691   7.145  1.1755 -0.6572  0.2198
 4788TIP3    H135855   4.112   0.766   7.103 -0.1056  0.8153  1.4417
 4788TIP3    H235856   4.060   0.717   7.236  1.3565 -2.6412  0.8399
 4789TIP3   OH235857   1.281   2.867  38.738  0.3386 -0.2586  0.2412
 4789TIP3    H135858   1.206   2.818  38.705 -0.3064  0.2093  1.0026
 4789TIP3    H235859   1.339   2.800  38.774 -0.3275 -0.5060  0.8587
 4790TIP3   OH235860   1.070   4.355  27.407 -0.2179  0.4233  0.2330
 4790TIP3    H135861   1.030   4.365  27.493 -1.4932 -2.2229  0.0438
 4790TIP3    H235862   1.137   4.289  27.419 -0.2333  0.2153 -0.7471
 4791TIP3   OH235863   0.851   2.487  38.755  0.1445 -0.2427  0.8969
 4791TIP3    H135864   0.815   2.411  38.711 -3.1007  1.0797  1.0257
 4791TIP3    H235865   0.887   2.541  38.685 -3.0493  0.8441 -0.0540
 4792TIP3   OH235866   2.624   1.274   9.879  0.1187  0.3640  0.3128
 4792TIP3    H135867   2.612   1.202   9.817 -1.1556 -0.1288  1.0789
 4792TIP3    H235868   2.675   1.339   9.832  1.1357 -0.9521 -0.4766
 4793TIP3   OH235869   0.840   3.455  26.777  0.0648  0.1755  0.4393
 4793TIP3    H135870   0.810   3.508  26.704  0.8955  0.6517  0.4225
 4793TIP3    H235871   0.897   3.389  26.738 -0.9030 -0.7053  0.4679
 4794TIP3   OH235872   0.225   2.914  27.615  0.1049 -0.1726 -0.0815
 4794TIP3    H135873   0.180   2.910  27.531 -0.8401  0.7449  0.3598
 4794TIP3    H235874   0.179   2.849  27.669 -1.5152  1.5579  0.7210
 4795TIP3   OH235875   0.159   0.326  12.007 -0.0301  0.1072 -0.5804
 4795TIP3    H135876   0.076   0.369  12.028 -0.4091 -0.2296 -1.3347
 4795TIP3    H235877   0.133   0.244  11.965  0.6428 -1.5411  2.0025
 4796TIP3   OH235878   3.405   4.028  39.101 -0.6028 -0.5063  0.1624
 4796TIP3    H135879   3.380   3.953  39.154 -3.8668 -0.8184 -1.6092
 4796TIP3    H235880   3.455   3.991  39.029  0.9106 -0.4590  1.1287
 4797TIP3   OH235881   0.381   0.477  37.202 -0.3073 -0.2070 -0.1065
 4797TIP3    H135882   0.418   0.442  37.283  0.6288 -1.2144 -0.9528
 4797TIP3    H235883   0.446   0.539  37.171  0.5507 -1.6685 -1.3715
 4798TIP3   OH235884   1.119   2.533   7.448 -0.2502  0.1729 -0.2435
 4798TIP3    H135885   1.171   2.453   7.448 -1.0863 -0.4361  1.8029
 4798TIP3    H235886   1.157   2.586   7.517  0.6668  1.8668 -1.9589
 4799TIP3   OH235887   2.557   2.228   9.183  0.0110 -0.1977 -0.4031
 4799TIP3    H135888   2.556   2.172   9.105  1.8025 -0.6150 -0.1522
 4799TIP3    H235889   2.558   2.167   9.256  2.4296  0.0964 -0.1308
 4800TIP3   OH235890   2.659   2.247   6.913 -0.4815  0.2028 -0.0311
 4800TIP3    H135891   2.675   2.266   6.821  1.0102 -1.5762 -0.1979
 4800TIP3    H235892   2.726   2.183   6.937 -1.3572 -0.0297  2.0743
 4801TIP3   OH235893   2.608   4.234  32.488  0.4591 -0.3407  0.0124
 4801TIP3    H135894   2.621   4.207  32.397 -0.6273 -0.7304 -0.0376
 4801TIP3    H235895   2.522   4.199  32.512  0.8711 -0.5196  1.2954
 4802TIP3   OH235896   1.847   2.143   1.838 -0.2581  0.2399  0.1606
 4802TIP3    H135897   1.820   2.068   1.891 -1.4032  0.3885 -0.2012
 4802TIP3    H235898   1.825   2.220   1.891  0.5820  0.3473  0.3761
 4803TIP3   OH235899   3.994   1.329  33.625  0.2348  0.2271  0.2912
 4803TIP3    H135900   4.043   1.268  33.570 -1.2615  0.9329 -1.9374
 4803TIP3    H235901   4.043   1.411  33.621  0.2550  0.2102  0.2032
 4804TIP3   OH235902   1.293   2.082  11.684  0.3147  0.5523 -0.2943
 4804TIP3    H135903   1.317   2.135  11.760 -1.1889  0.6079  0.1794
 4804TIP3    H235904   1.214   2.035  11.711  0.1247  0.0763 -1.5924
 4805TIP3   OH235905   3.926   2.827  37.783  0.1590  0.4977  0.1302
 4805TIP3    H135906   3.981   2.788  37.715 -2.4616 -1.5016 -0.9978
 4805TIP3    H235907   3.919   2.919  37.759 -0.4930 -0.1050 -2.2585
 4806TIP3   OH235908   0.434   1.283  38.978  0.2966 -0.2761 -0.0111
 4806TIP3    H135909   0.432   1.204  38.923 -1.3672 -0.7071  0.6185
 4806TIP3    H235910   0.379   1.346  38.931  1.2700  0.3948 -0.2920
 4807TIP3   OH235911   0.639   1.927  26.907 -0.3467  0.2623  0.0721
 4807TIP3    H135912   0.589   1.938  26.827 -0.5671 -0.2631  0.1353
 4807TIP3    H235913   0.640   1.832  26.923  0.3127  0.2969  0.2932
 4808TIP3   OH235914   0.105   0.015   5.667 -0.0592 -0.2174 -0.3343
 4808TIP3    H135915   0.161   0.087   5.696 -2.0725  0.5348  2.1368
 4808TIP3    H235916   0.165  -0.057   5.648  1.9389  1.6596 -1.6120
 4809TIP3   OH235917   4.099   3.689   2.687 -0.5674 -0.0402 -0.1369
 4809TIP3    H135918   4.111   3.662   2.596  2.7520 -1.1566  0.5116
 4809TIP3    H235919   4.136   3.777   2.691  1.2809 -0.7900  0.4698
 4810TIP3   OH235920   1.545   2.495   5.292  0.6879 -0.2657 -0.2595
 4810TIP3    H135921   1.605   2.471   5.364  0.0076 -1.1898  0.0184
 4810TIP3    H235922   1.595   2.477   5.213  0.5671 -1.7265 -0.0443
 4811TIP3   OH235923   2.735   3.971  27.926 -0.1290 -0.5579  0.5560
 4811TIP3    H135924   2.729   4.060  27.958 -0.3501 -0.5230  0.4196
 4811TIP3    H235925   2.791   3.977  27.848  3.1718 -1.1089  2.6968
 4812TIP3   OH235926   1.434   2.442  19.067  0.7866  0.0956 -0.0620
 4812TIP3    H135927   1.506   2.381  19.049 -0.4552 -1.5162  0.2656
 4812TIP3    H235928   1.472   2.506  19.127  1.9175 -0.7948  0.2083
 4813TIP3   OH235929   0.586   2.445   0.762  0.0980 -0.2389 -0.2367
 4813TIP3    H135930   0.679   2.433   0.746  0.4673  0.0338  1.5182
 4813TIP3    H235931   0.581   2.519   0.821 -1.3906  0.9930 -1.7838
 4814TIP3   OH235932   1.886   3.588  33.146 -0.2500 -0.1189  0.0384
 4814TIP3    H135933   1.827   3.621  33.214  0.2952  1.7826 -0.3523
 4814TIP3    H235934   1.837   3.519  33.103 -0.9712 -0.7199  1.7275
 4815TIP3   OH235935   3.589   1.865  10.235  0.1476 -0.3293  1.1008
 4815TIP3    H135936   3.530   1.857  10.310 -0.3747  0.2450  0.7679
 4815TIP3    H235937   3.655   1.928  10.263 -0.5190  0.5279  0.8124
 4816TIP3   OH235938   1.988   0.665  38.305 -0.1346 -0.4009 -0.2969
 4816TIP3    H135939   1.930   0.600  38.265 -0.8376 -1.0587  1.6798
 4816TIP3    H235940   1.940   0.748  38.294 -1.2740 -0.8673  0.8991
 4817TIP3   OH235941   1.727   1.657  10.293 -0.7278  0.5222 -0.1093
 4817TIP3    H135942   1.709   1.623  10.205 -1.5012 -1.0164  0.6165
 4817TIP3    H235943   1.772   1.585  10.338 -1.8065  0.6577  1.2625
 4818TIP3   OH235944   3.689   0.846  31.512 -0.0711  0.1317 -0.0043
 4818TIP3    H135945   3.720   0.814  31.597 -1.9157 -1.5421  0.1155
 4818TIP3    H235946   3.594   0.835  31.516 -0.3225  1.2416 -1.8231
 4819TIP3   OH235947   0.903   2.603   9.824  0.1092 -0.1973  0.4017
 4819TIP3    H135948   0.916   2.589   9.730 -0.1686 -0.3741  0.3881
 4819TIP3    H235949   0.888   2.697   9.832  1.7459  0.0875  0.4657
 4820TIP3   OH235950   4.193   1.814  36.891 -0.5699  0.2643  0.0384
 4820TIP3    H135951   4.115   1.865  36.867 -0.3351  0.1671 -0.9681
 4820TIP3    H235952   4.236   1.795  36.807 -0.9387 -2.0560  0.3057
 4821TIP3   OH235953   1.584   1.687   1.886 -0.1820  0.4856  0.4151
 4821TIP3    H135954   1.518   1.754   1.907 -1.0280 -0.0709 -0.4359
 4821TIP3    H235955   1.537   1.622   1.834  0.2781 -1.4743  2.3075
 4822TIP3   OH235956   3.846   1.134  32.505  0.5106  0.8146 -0.3265
 4822TIP3    H135957   3.880   1.173  32.586  2.6289  0.2238 -0.8925
 4822TIP3    H235958   3.818   1.209  32.453 -1.2030  1.1930  1.0283
 4823TIP3   OH235959   3.818   2.612  38.001 -0.5865  0.0408 -0.4570
 4823TIP3    H135960   3.856   2.693  37.967 -2.2041  0.6407 -0.9428
 4823TIP3    H235961   3.842   2.546  37.936 -3.1269  1.0610 -2.6345
 4824TIP3   OH235962   3.052   0.562  34.412 -0.0193 -0.1278  0.3382
 4824TIP3    H135963   3.090   0.530  34.494  0.5742 -1.7488 -0.5160
 4824TIP3    H235964   3.021   0.650  34.432  0.2517 -0.4315  2.2547
 4825TIP3   OH235965   2.072   1.022  34.141  0.4509 -0.2712  0.2535
 4825TIP3    H135966   1.999   1.081  34.162  1.3228  1.3944 -1.1590
 4825TIP3    H235967   2.035   0.961  34.077 -0.4836 -1.3861  1.7867
 4826TIP3   OH235968   4.204   1.830  21.828 -0.2165  0.7792  0.1303
 4826TIP3    H135969   4.217   1.776  21.905 -1.5058  0.1121 -0.0826
 4826TIP3    H235970   4.172   1.914  21.862  1.4736  1.3304  0.4397
 4827TIP3   OH235971   4.376   3.121  22.129 -0.5394 -0.0180 -0.2368
 4827TIP3    H135972   4.432   3.087  22.059  1.2196 -0.8250  1.4935
 4827TIP3    H235973   4.294   3.143  22.084  1.0012  0.9690 -2.8461
 4828TIP3   OH235974   4.252   1.707  31.022 -0.4346  0.3023  0.3388
 4828TIP3    H135975   4.296   1.751  30.949 -0.5493  0.6041  0.4503
 4828TIP3    H235976   4.279   1.756  31.099  0.1252 -0.3446  0.5724
 4829TIP3   OH235977   2.886   1.795  30.204  0.3251  0.5353  0.5993
 4829TIP3    H135978   2.932   1.811  30.286 -2.6220 -0.4345  2.6396
 4829TIP3    H235979   2.892   1.878  30.156  1.8556  1.2368  1.9184
 4830TIP3   OH235980   1.163   0.249  14.879 -0.2196 -0.3482 -0.1600
 4830TIP3    H135981   1.189   0.231  14.969  1.8534  0.5485 -0.5194
 4830TIP3    H235982   1.126   0.167  14.847  1.7605 -1.6052  0.5992
 4831TIP3   OH235983   1.155   1.766   0.499 -0.3653 -0.0807 -0.3518
 4831TIP3    H135984   1.090   1.697   0.492  0.3462 -0.9383  0.9551
 4831TIP3    H235985   1.178   1.768   0.592 -0.7059  2.2484 -0.2519
 4832TIP3   OH235986   2.317   0.226  36.109  0.1338 -0.2609  0.2666
 4832TIP3    H135987   2.251   0.186  36.053 -0.2944  0.0689  0.5277
 4832TIP3    H235988   2.286   0.316  36.123  1.7637  0.6451 -1.4404
 4833TIP3   OH235989   1.897   1.963  37.694 -0.4409 -0.3834 -0.0915
 4833TIP3    H135990   1.911   2.014  37.614  0.5374 -0.2728  0.1402
 4833TIP3    H235991   1.861   2.025  37.756 -0.9544 -0.4076 -0.3565
 4834TIP3   OH235992   0.073   2.672  36.220 -0.3360 -0.4475 -0.1539
 4834TIP3    H135993   0.134   2.601  36.238  0.4930  0.3677  0.3193
 4834TIP3    H235994  -0.008   2.628  36.195  0.5854 -1.5666 -1.3666
 4835TIP3   OH235995   3.036   4.091  29.395 -0.1284  0.6197  0.0973
 4835TIP3    H135996   3.126   4.119  29.414  0.3192 -1.5255  1.5901
 4835TIP3    H235997   3.015   4.131  29.311  2.5658  0.4754 -0.7431
 4836TIP3   OH235998   1.077   3.760   8.199  0.0891 -0.2586  0.3272
 4836TIP3    H135999   1.054   3.849   8.226 -1.7014 -0.3825 -0.6448
 4836TIP3    H236000   1.148   3.734   8.259 -2.4411  0.1038  3.7833
 4837TIP3   OH236001   3.318   1.948  11.189  0.2636  0.3129  0.1033
 4837TIP3    H136002   3.316   1.918  11.281 -1.9280  1.3207  0.4506
 4837TIP3    H236003   3.410   1.963  11.171  0.6922  0.8465  2.4179
 4838TIP3   OH236004   2.412   1.944   7.554 -0.5406 -0.3652  0.2305
 4838TIP3    H136005   2.458   2.015   7.600 -0.9864  0.9765 -1.3229
 4838TIP3    H236006   2.457   1.937   7.470 -1.3631 -1.0338 -0.1662
 4839TIP3   OH236007   1.922   0.602  36.758 -0.0958  0.2002  0.1547
 4839TIP3    H136008   1.864   0.633  36.828  1.4776 -2.2824  2.7697
 4839TIP3    H236009   1.887   0.517  36.733  0.2629  0.3812 -1.0525
 4840TIP3   OH236010   0.434   3.877  37.371 -0.1520  0.1054 -0.0297
 4840TIP3    H136011   0.474   3.955  37.410  0.5070 -0.4526  0.4208
 4840TIP3    H236012   0.343   3.903  37.354  0.2597  1.2409 -0.6488
 4841TIP3   OH236013   0.156   2.512   3.846 -0.0938 -0.2853  0.3529
 4841TIP3    H136014   0.204   2.436   3.815 -0.3653 -0.0476 -0.6929
 4841TIP3    H236015   0.069   2.503   3.808  0.1859  1.0899 -0.7358
 4842TIP3   OH236016   1.933   3.693  12.395  0.2824 -0.5558  0.2409
 4842TIP3    H136017   1.995   3.698  12.468 -0.5804 -0.6853  0.9924
 4842TIP3    H236018   1.847   3.709  12.435 -0.1082  0.2408 -0.8867
 4843TIP3   OH236019   0.206   0.366   2.681 -0.0253 -0.0479 -0.2521
 4843TIP3    H136020   0.163   0.286   2.652 -0.5251  0.4720 -0.9683
 4843TIP3    H236021   0.135   0.428   2.696  0.3347  0.1756  0.6094
 4844TIP3   OH236022   1.185   2.089   4.974  0.0563  0.4403  0.1335
 4844TIP3    H136023   1.100   2.064   5.010  0.0330  0.1433 -0.1239
 4844TIP3    H236024   1.247   2.028   5.015  0.2493  1.1039  0.8603
 4845TIP3   OH236025   3.861   2.999   1.138 -0.4437  0.0291 -0.5719
 4845TIP3    H136026   3.892   3.069   1.081  0.5453 -1.0369 -1.3972
 4845TIP3    H236027   3.823   3.044   1.213  2.3774  1.4713  0.1172
 4846TIP3   OH236028   2.393   4.211   4.566 -0.4743  0.1058 -0.3774
 4846TIP3    H136029   2.434   4.264   4.634 -2.1649  0.0918  0.7039
 4846TIP3    H236030   2.314   4.260   4.541  0.4205  0.4363 -2.8342
 4847TIP3   OH236031   0.759   3.650  35.230 -0.6533  0.5224 -0.0790
 4847TIP3    H136032   0.828   3.696  35.278  0.8116 -1.3175 -0.3255
 4847TIP3    H236033   0.805   3.584  35.179 -2.5982 -0.6136 -0.4620
 4848TIP3   OH236034   0.146   3.234  29.658 -0.2833  0.2779 -0.1479
 4848TIP3    H136035   0.088   3.205  29.588  0.0357 -1.3471  0.2131
 4848TIP3    H236036   0.229   3.255  29.614  0.6353 -2.8021 -0.1398
 4849TIP3   OH236037   2.267   2.941  31.281 -0.4772  0.2939  0.0931
 4849TIP3    H136038   2.308   2.859  31.308 -1.1384 -0.1560 -0.2555
 4849TIP3    H236039   2.184   2.944  31.329 -0.5247  0.6862 -0.0055
 4850TIP3   OH236040   1.085   0.449   1.373 -0.0162  0.0620  0.1635
 4850TIP3    H136041   1.079   0.414   1.284  0.1292  1.2096 -0.3167
 4850TIP3    H236042   1.144   0.389   1.419  0.2892 -0.2661 -0.6505
 4851TIP3   OH236043   4.068   1.436  24.736 -0.1872  0.1899 -0.2826
 4851TIP3    H136044   4.136   1.369  24.743  0.0588  0.5730  1.4364
 4851TIP3    H236045   4.052   1.443  24.642  2.9289  0.8166 -0.9032
 4852TIP3   OH236046   3.400   3.323   1.480  0.2351  0.2425  0.5851
 4852TIP3    H136047   3.427   3.247   1.429  0.3267 -0.5157  1.7159
 4852TIP3    H236048   3.358   3.381   1.417 -1.6142 -1.5928 -0.0054
 4853TIP3   OH236049   1.026   1.065   5.904  0.3769 -0.7437 -0.5416
 4853TIP3    H136050   1.025   1.008   5.981 -0.2357 -1.5136 -1.1051
 4853TIP3    H236051   0.995   1.149   5.937  0.8412 -0.8593  0.2094
 4854TIP3   OH236052   1.023   3.704  34.217  0.2142 -0.0430  0.5477
 4854TIP3    H136053   0.955   3.770  34.211  1.8070  1.6783  0.4768
 4854TIP3    H236054   1.037   3.693  34.312  0.6960  0.5539  0.5500
 4855TIP3   OH236055   0.547   3.029  13.234 -0.3286 -0.0166 -0.0038
 4855TIP3    H136056   0.536   3.047  13.141  0.0966  0.7800  0.0867
 4855TIP3    H236057   0.458   3.028  13.269 -0.4854 -0.2495 -0.4018
 4856TIP3   OH236058   1.979   2.653  37.213  0.1691 -0.5204  0.2374
 4856TIP3    H136059   2.069   2.684  37.224 -0.0605  0.4825 -0.6136
 4856TIP3    H236060   1.962   2.602  37.292  1.6038 -1.0380  0.2534
 4857TIP3   OH236061   3.682   1.317  29.515 -0.2848  0.2995 -0.3753
 4857TIP3    H136062   3.605   1.334  29.461  0.0085  0.7256 -0.6588
 4857TIP3    H236063   3.749   1.287  29.454 -0.0483  0.4752 -0.2056
 4858TIP3   OH236064   3.015   2.999   5.738  0.1597 -0.6628  0.0555
 4858TIP3    H136065   2.942   3.011   5.677 -0.4482  0.2947  0.9358
 4858TIP3    H236066   2.974   2.968   5.818  0.7804 -0.6023  0.3990
 4859TIP3   OH236067   2.658   0.811   0.940 -0.2420  0.3306  0.0498
 4859TIP3    H136068   2.734   0.796   0.995 -1.0063  0.1230  1.0690
 4859TIP3    H236069   2.605   0.875   0.988 -0.6539  0.5652 -0.6992
 4860TIP3   OH236070   2.084   3.115  12.970  0.2771  0.7111 -0.3897
 4860TIP3    H136071   2.161   3.109  12.913  0.0617  0.5557 -0.6644
 4860TIP3    H236072   2.120   3.102  13.058  0.4801 -0.0436 -0.5735
 4861TIP3   OH236073   0.280   0.982  35.963 -0.1179  0.4226 -0.3611
 4861TIP3    H136074   0.365   0.949  35.936  0.3898  2.3568 -1.3044
 4861TIP3    H236075   0.218   0.912  35.941  1.0009 -0.2821 -1.3278
 4862TIP3   OH236076   3.369   0.100  11.776  0.2325  0.1981  0.2051
 4862TIP3    H136077   3.424   0.028  11.806  0.0091 -0.3969 -0.7601
 4862TIP3    H236078   3.280   0.073  11.800  0.2885  0.8770  1.2224
 4863TIP3   OH236079   3.779   1.302   1.871  0.4382 -0.4253  0.7542
 4863TIP3    H136080   3.710   1.239   1.854 -0.9970  1.5910 -1.5774
 4863TIP3    H236081   3.853   1.272   1.818  0.7912 -1.5776  1.8346
 4864TIP3   OH236082   3.551   3.269   5.408  0.9098 -0.2848  0.1394
 4864TIP3    H136083   3.541   3.364   5.407  0.3898 -0.3352  0.2504
 4864TIP3    H236084   3.568   3.248   5.500  1.3447 -0.2718  0.0649
 4865TIP3   OH236085   0.921   3.113  29.493  0.5850  0.8033 -0.1343
 4865TIP3    H136086   0.962   3.028  29.478  1.4408  1.2605 -0.4722
 4865TIP3    H236087   0.827   3.095  29.496  0.5638  0.1548 -2.6311
 4866TIP3   OH236088   3.669   2.964   5.720  0.1373 -0.6339  0.6351
 4866TIP3    H136089   3.655   3.017   5.799 -0.5264 -0.7001  0.5650
 4866TIP3    H236090   3.749   3.000   5.681 -0.8728  1.0526  0.0014
 4867TIP3   OH236091   3.791   1.853  35.428  0.3851  0.9769  0.0531
 4867TIP3    H136092   3.730   1.885  35.362 -0.9207 -2.8235 -0.8270
 4867TIP3    H236093   3.744   1.863  35.511 -0.6210  0.0985 -0.3775
 4868TIP3   OH236094   4.200   2.492   2.383 -0.1214 -0.2746  0.2099
 4868TIP3    H136095   4.174   2.401   2.369 -1.0776  0.0807 -0.4514
 4868TIP3    H236096   4.291   2.496   2.355  0.6298 -1.4948  2.2943
 4869TIP3   OH236097   1.390   1.591  11.218 -0.1418 -0.8307 -0.1105
 4869TIP3    H136098   1.482   1.617  11.206 -0.3149  0.5872  1.2463
 4869TIP3    H236099   1.351   1.602  11.132  0.6307  0.0730 -0.3702
 4870TIP3   OH236100   4.088   0.012  25.660 -0.4088 -0.7099  0.2254
 4870TIP3    H136101   4.000   0.019  25.623 -0.1618 -0.8969 -0.4049
 4870TIP3    H236102   4.093  -0.077  25.695  0.1080 -1.2932 -1.2677
 4871TIP3   OH236103   2.385   0.641  36.317 -0.0492 -0.0603 -0.1102
 4871TIP3    H136104   2.333   0.637  36.237  0.3484 -1.3455 -0.3361
 4871TIP3    H236105   2.359   0.563  36.366 -0.1354  0.6057  0.9172
 4872TIP3   OH236106   4.196   2.258   4.454  0.3567 -0.2777  0.1721
 4872TIP3    H136107   4.120   2.201   4.469  0.1332 -0.4947 -1.6019
 4872TIP3    H236108   4.215   2.248   4.361 -0.2455  3.2223 -0.4318
 4873TIP3   OH236109   2.704   1.188   4.328  0.1428 -0.3705  0.5186
 4873TIP3    H136110   2.767   1.120   4.305  1.8491  0.8659  1.2838
 4873TIP3    H236111   2.687   1.175   4.422 -0.4042 -0.4156  0.4181
 4874TIP3   OH236112   1.741   1.604   5.606 -0.0552 -0.0001  0.1234
 4874TIP3    H136113   1.648   1.582   5.616 -0.1229  0.3771  0.3738
 4874TIP3    H236114   1.742   1.673   5.539 -0.1068  0.9659  1.0823
 4875TIP3   OH236115   4.246   1.334   4.594  0.1953  0.4607 -0.0043
 4875TIP3    H136116   4.200   1.255   4.623  1.3403 -0.3857 -0.4098
 4875TIP3    H236117   4.274   1.376   4.675  1.1675 -0.5411  0.2068
 4876TIP3   OH236118   0.520   2.019  21.955 -0.4611  0.2322  0.2558
 4876TIP3    H136119   0.437   2.062  21.935 -1.0344 -0.9848 -0.0572
 4876TIP3    H236120   0.557   2.071  22.027 -1.0859  1.2634 -0.1402
 4877TIP3   OH236121   0.113   3.614  29.310  0.1961  0.0733 -0.0937
 4877TIP3    H136122   0.106   3.706  29.336  0.3518 -0.5588  2.3637
 4877TIP3    H236123   0.022   3.582  29.311  0.3304 -0.3023  1.1110
 4878TIP3   OH236124   3.144   3.559  31.962  0.2668  0.7155 -0.2665
 4878TIP3    H136125   3.122   3.552  32.055  0.1475 -1.0630 -0.3891
 4878TIP3    H236126   3.195   3.639  31.955  0.0287  1.0294  1.2884
 4879TIP3   OH236127   4.235   4.290   5.510  0.4867 -0.1256 -0.0762
 4879TIP3    H136128   4.237   4.219   5.574  0.6430 -1.1368 -1.1639
 4879TIP3    H236129   4.152   4.280   5.464 -0.4956  1.7340  1.1614
 4880TIP3   OH236130   2.296   2.148  32.081  0.3605  0.3158  0.7087
 4880TIP3    H136131   2.275   2.146  32.175  0.4949 -2.0644  0.7572
 4880TIP3    H236132   2.367   2.084  32.071 -0.2336 -0.1163 -1.1265
 4881TIP3   OH236133   0.382   4.007  37.666  0.2380 -0.0309 -0.0795
 4881TIP3    H136134   0.395   3.912  37.666 -3.5605 -0.7659  2.5807
 4881TIP3    H236135   0.415   4.035  37.751  1.3298  1.1215 -0.8468
 4882TIP3   OH236136   2.520   2.118  38.209 -0.6293 -0.0409 -0.1753
 4882TIP3    H136137   2.465   2.191  38.179 -2.5068 -1.6281 -0.7985
 4882TIP3    H236138   2.521   2.057  38.135 -0.0152 -1.1373  0.7087
 4883TIP3   OH236139   3.510   0.396  32.593 -0.1816 -0.3605 -0.1492
 4883TIP3    H136140   3.485   0.368  32.505  1.9299 -0.0781 -0.8958
 4883TIP3    H236141   3.603   0.376  32.598 -0.0162  0.7120  1.6052
 4884TIP3   OH236142   2.908   0.350  11.975  0.0635  0.1203 -0.2239
 4884TIP3    H136143   2.983   0.407  11.957  0.1145  0.2981  0.5423
 4884TIP3    H236144   2.896   0.355  12.070 -1.1793  0.4064 -0.3846
 4885TIP3   OH236145   0.872   2.633  16.383  0.3525  0.0413  0.4543
 4885TIP3    H136146   0.878   2.539  16.368 -0.2739 -0.1138  1.1246
 4885TIP3    H236147   0.891   2.672  16.298  0.7353 -0.6883  0.2005
 4886TIP3   OH236148   2.164   0.561   5.958 -0.7117 -0.0500  0.0458
 4886TIP3    H136149   2.072   0.536   5.970 -0.6981  0.0449  0.3644
 4886TIP3    H236150   2.209   0.521   6.032 -0.8779  1.9304  1.2841
 4887TIP3   OH236151   3.918   1.379  36.644 -0.2159 -0.3867  0.1899
 4887TIP3    H136152   3.910   1.289  36.677 -1.2322 -0.5684 -0.4893
 4887TIP3    H236153   3.872   1.378  36.560  0.0944  0.6822 -0.0120
 4888TIP3   OH236154   3.917   1.938   9.292  0.1123  0.4054  0.1091
 4888TIP3    H136155   3.919   1.986   9.375 -0.8689  0.3302  0.1901
 4888TIP3    H236156   3.867   1.995   9.233 -3.5210 -1.6084  0.9682
 4889TIP3   OH236157   1.610   3.354   0.715  0.0862 -0.3163  0.1660
 4889TIP3    H136158   1.600   3.261   0.733 -1.4564 -0.7213 -2.3468
 4889TIP3    H236159   1.527   3.380   0.677  1.1379  1.6592 -0.9196
 4890TIP3   OH236160   1.526   3.730   2.338 -0.5028 -0.0578  0.1090
 4890TIP3    H136161   1.504   3.650   2.385 -0.7703  0.7452  1.3952
 4890TIP3    H236162   1.442   3.772   2.320 -0.3568  0.0119 -0.4299
 4891TIP3   OH236163   4.375   0.178  35.524  0.2383  0.3363  0.6995
 4891TIP3    H136164   4.364   0.100  35.470  1.9830 -0.2797  1.1701
 4891TIP3    H236165   4.467   0.176  35.551  0.2141  2.3420  1.0671
 4892TIP3   OH236166   0.665   0.881  40.403 -0.0785 -0.2268 -0.1325
 4892TIP3    H136167   0.652   0.787  40.414 -0.2811 -0.2244 -0.3453
 4892TIP3    H236168   0.760   0.893  40.405  0.1575 -0.8445 -3.2441
 4893TIP3   OH236169   2.234   3.377  36.034 -0.0575 -0.2165  0.2968
 4893TIP3    H136170   2.270   3.446  36.089 -0.1745 -1.1495  1.5963
 4893TIP3    H236171   2.306   3.315  36.024 -0.3062 -0.4815  0.1444
 4894TIP3   OH236172   2.928   2.974   3.417  0.2014 -0.2854  0.1771
 4894TIP3    H136173   2.930   2.983   3.321 -0.6944 -1.7695 -0.0173
 4894TIP3    H236174   2.923   3.064   3.450  0.9852  0.2704 -1.1459
 4895TIP3   OH236175   4.223   3.222  37.603 -0.3803 -0.0502 -0.6231
 4895TIP3    H136176   4.230   3.258  37.514  2.6751  0.6919 -0.2290
 4895TIP3    H236177   4.178   3.290  37.653 -0.9189  0.1188 -1.3242
 4896TIP3   OH236178   3.015   1.830   6.024 -0.3791 -0.6599  0.2925
 4896TIP3    H136179   3.086   1.825   6.089 -0.8548  0.1379  0.8813
 4896TIP3    H236180   2.980   1.741   6.020  1.9639 -1.6189 -1.5339
 4897TIP3   OH236181   4.134   1.280   5.754 -0.0143  0.3556 -0.4482
 4897TIP3    H136182   4.121   1.219   5.681  1.9017 -1.4168  0.5997
 4897TIP3    H236183   4.083   1.244   5.826  0.1027  0.7152 -0.1807
 4898TIP3   OH236184   1.946   3.705  32.429 -0.0418  0.0366  0.2473
 4898TIP3    H136185   1.924   3.682  32.519 -2.9222 -0.4853 -0.4614
 4898TIP3    H236186   1.975   3.622  32.390  0.6491  0.1362  0.5473
 4899TIP3   OH236187   1.300   4.325  40.637  0.3064  0.2326  0.2277
 4899TIP3    H136188   1.342   4.245  40.666 -0.5102  0.1914  1.3783
 4899TIP3    H236189   1.222   4.333  40.692  0.3485  1.7888  0.1235
 4900TIP3   OH236190   2.387   2.392   2.394 -0.1987  0.5267  0.5235
 4900TIP3    H136191   2.395   2.354   2.306 -3.2770  0.7770  0.0234
 4900TIP3    H236192   2.409   2.484   2.382  2.7311 -0.0175  0.8159
 4901TIP3   OH236193   2.446   1.374  12.905  0.3964  0.3925  0.1116
 4901TIP3    H136194   2.510   1.429  12.950  0.7783  0.2776 -0.2831
 4901TIP3    H236195   2.482   1.364  12.817  0.7120 -1.1026  0.3856
 4902TIP3   OH236196   1.520   1.657   2.677 -0.7777 -0.4943  0.0470
 4902TIP3    H136197   1.503   1.646   2.771  0.2738 -0.5038  0.2574
 4902TIP3    H236198   1.581   1.587   2.656 -2.0864 -1.3552 -0.9827
 4903TIP3   OH236199   3.883   3.111  10.368 -0.3487  0.4437  0.1322
 4903TIP3    H136200   3.820   3.115  10.296 -0.2933  0.8594  0.1021
 4903TIP3    H236201   3.898   3.203  10.391 -0.0707  0.3273  0.4154
 4904TIP3   OH236202   0.388   1.271  33.795  0.1833  0.2501 -0.2225
 4904TIP3    H136203   0.407   1.331  33.867  0.6959  1.4590 -1.3319
 4904TIP3    H236204   0.414   1.185  33.828  2.1113  1.0237  0.4044
 4905TIP3   OH236205   1.312   1.963  36.169  0.3587  0.2311  0.1211
 4905TIP3    H136206   1.312   1.867  36.166  0.8506  0.2461 -0.5760
 4905TIP3    H236207   1.404   1.987  36.158 -0.0191  0.8404 -2.2099
 4906TIP3   OH236208   1.196   4.118  27.451 -0.5938  0.0160 -0.1468
 4906TIP3    H136209   1.150   4.049  27.402  3.5398 -1.1328 -2.9551
 4906TIP3    H236210   1.241   4.169  27.384  1.5414  1.5078  2.2421
 4907TIP3   OH236211   1.920   1.795  33.592  0.2006 -0.0057  0.3751
 4907TIP3    H136212   1.875   1.714  33.570  0.0164  0.5390 -1.4971
 4907TIP3    H236213   2.005   1.768  33.625 -0.3865 -0.9705  1.1424
 4908TIP3   OH236214   1.808   1.049   0.257 -0.3756 -0.0135  0.2466
 4908TIP3    H136215   1.718   1.066   0.283 -0.4471  1.4138 -0.7887
 4908TIP3    H236216   1.801   0.994   0.179 -0.4232  1.0362 -0.5118
 4909TIP3   OH236217   0.138   1.377  26.296 -0.4936 -0.3028 -0.4106
 4909TIP3    H136218   0.111   1.286  26.282 -1.9086 -0.1947  1.2914
 4909TIP3    H236219   0.134   1.389  26.391 -0.1521  1.4937 -0.5856
 4910TIP3   OH236220   4.043   0.009  28.158  0.1892 -0.4942 -0.7457
 4910TIP3    H136221   3.966  -0.021  28.110  1.5371 -1.0978 -2.7203
 4910TIP3    H236222   4.019   0.094  28.193 -2.1928 -1.7710  0.9576
 4911TIP3   OH236223   3.677   1.627  40.695  0.2828  0.1255 -0.0450
 4911TIP3    H136224   3.640   1.716  40.696  1.5548  0.6755 -0.1595
 4911TIP3    H236225   3.625   1.580  40.760 -1.0922  0.6525 -0.6987
 4912TIP3   OH236226   2.289   1.312   3.180  0.0598 -0.5102 -0.4897
 4912TIP3    H136227   2.333   1.327   3.265 -0.8770  1.9385 -0.3429
 4912TIP3    H236228   2.255   1.223   3.186  1.5676 -1.0605  0.9588
 4913TIP3   OH236229   0.189   0.483  13.310  0.1905 -0.0803 -0.8873
 4913TIP3    H136230   0.184   0.578  13.326 -0.9946 -0.5579  2.1601
 4913TIP3    H236231   0.281   0.467  13.290  0.8443  1.4699  0.6233
 4914TIP3   OH236232   2.836   0.076  10.362  0.3156  0.0437 -0.4895
 4914TIP3    H136233   2.794   0.133  10.426  1.2202 -0.0422  0.1966
 4914TIP3    H236234   2.816   0.117  10.277 -1.3732 -0.1539 -0.2230
 4915TIP3   OH236235   0.438   3.469  33.991 -0.2461 -0.0864  0.2239
 4915TIP3    H136236   0.523   3.427  33.989 -1.5798 -3.0337  0.7055
 4915TIP3    H236237   0.423   3.489  34.084 -0.5244 -0.6276  0.3029
 4916TIP3   OH236238   3.388   2.292   3.677 -0.1253  0.1386 -0.1704
 4916TIP3    H136239   3.340   2.356   3.624 -1.2849  0.6005  1.3873
 4916TIP3    H236240   3.478   2.327   3.681 -0.4125  0.9421 -0.4731
 4917TIP3   OH236241   2.226   3.292   4.395  0.7241  0.3697 -0.0629
 4917TIP3    H136242   2.309   3.285   4.442  0.5159 -0.1882  0.2381
 4917TIP3    H236243   2.167   3.232   4.442  0.3196  0.3179 -0.6247
 4918TIP3   OH236244   3.727   1.283  31.105 -0.1253 -0.1514  0.5626
 4918TIP3    H136245   3.663   1.221  31.071  0.4433 -1.0794  1.1393
 4918TIP3    H236246   3.785   1.230  31.160  3.1244 -0.1123 -2.4001
 4919TIP3   OH236247   0.419   2.207  31.874  0.1980  0.0546 -0.2851
 4919TIP3    H136248   0.435   2.125  31.828 -0.8327 -0.2631 -0.0893
 4919TIP3    H236249   0.398   2.270  31.804  0.3619  0.0009 -0.3830
 4920TIP3   OH236250   4.223   2.713  12.130 -0.0658 -0.5223  0.2758
 4920TIP3    H136251   4.163   2.689  12.059  0.1362  0.5530 -0.2758
 4920TIP3    H236252   4.176   2.692  12.210 -1.5198  1.0637 -0.1296
 4921TIP3   OH236253   0.555   1.073  41.118 -0.0358 -0.3750 -0.3247
 4921TIP3    H136254   0.504   1.122  41.053  0.3046  0.2669 -0.1151
 4921TIP3    H236255   0.491   1.047  41.184 -0.3471 -0.8524 -0.8011
 4922TIP3   OH236256   4.125   0.334  37.642 -0.7169  0.4518 -0.1813
 4922TIP3    H136257   4.062   0.292  37.701 -1.2215 -0.4845 -1.3333
 4922TIP3    H236258   4.209   0.325  37.686 -1.2017  0.5650  0.7957
 4923TIP3   OH236259   2.617   4.281   4.819 -0.4656  0.2019 -0.5161
 4923TIP3    H136260   2.630   4.190   4.846 -1.5256  0.0247 -0.5730
 4923TIP3    H236261   2.698   4.325   4.846  0.0639 -0.7472 -0.4922
 4924TIP3   OH236262   1.256   2.768   5.417 -0.1455  0.7677  0.7168
 4924TIP3    H136263   1.239   2.850   5.371 -1.5469  0.1444  0.0445
 4924TIP3    H236264   1.234   2.787   5.508  0.1629  1.3085  0.6804
 4925TIP3   OH236265   1.206   1.011  16.989  0.1891  0.1531 -0.1455
 4925TIP3    H136266   1.256   0.971  16.918 -0.4982 -1.8472  0.4402
 4925TIP3    H236267   1.115   0.991  16.969  0.0429 -1.4149  1.8151
 4926TIP3   OH236268   1.989   3.462  27.276 -0.2720 -0.7386  0.0707
 4926TIP3    H136269   1.953   3.398  27.216  0.0469 -1.2520  0.4190
 4926TIP3    H236270   2.041   3.411  27.338 -0.5331 -0.2157  0.7411
 4927TIP3   OH236271   1.785   2.422  37.731  0.4199  0.1470  0.2899
 4927TIP3    H136272   1.765   2.471  37.810  0.5985 -0.7192  0.8888
 4927TIP3    H236273   1.730   2.462  37.663 -2.2923 -1.1748  1.5468
 4928TIP3   OH236274   1.138   0.323  13.511 -0.8050 -0.0249 -0.4709
 4928TIP3    H136275   1.059   0.352  13.557 -1.6271 -1.8296 -0.6138
 4928TIP3    H236276   1.170   0.249  13.563  2.0163  1.8661  0.6997
 4929TIP3   OH236277   0.856   1.371  31.236  0.5677  0.3709 -0.4126
 4929TIP3    H136278   0.765   1.351  31.259  1.0273  1.3569  2.6849
 4929TIP3    H236279   0.897   1.285  31.224 -0.3196 -0.1564  0.1773
 4930TIP3   OH236280   1.122   2.187   7.374 -0.0924  0.7166  0.0389
 4930TIP3    H136281   1.075   2.131   7.436  1.3117 -1.2217 -0.5291
 4930TIP3    H236282   1.053   2.227   7.321 -1.1990 -0.8478  0.2027
 4931TIP3   OH236283   3.872   4.331  30.866 -0.0353 -0.1323  0.3287
 4931TIP3    H136284   3.897   4.421  30.844 -0.2013 -0.2542 -0.3799
 4931TIP3    H236285   3.956   4.284  30.869  0.1199  0.1687  1.3639
 4932TIP3   OH236286   1.820   3.053  11.426  0.6327  0.2447  0.0946
 4932TIP3    H136287   1.777   2.968  11.432 -0.6833  0.8761 -0.0720
 4932TIP3    H236288   1.887   3.051  11.494  0.9979 -1.1234 -0.2765
 4933TIP3   OH236289   1.642   1.548  35.421  0.1960  0.0626 -0.6884
 4933TIP3    H136290   1.612   1.457  35.424  1.6776 -0.4556 -0.7263
 4933TIP3    H236291   1.572   1.598  35.461  0.8031 -1.4897  2.6672
 4934TIP3   OH236292   1.242   0.842  40.821  0.0675 -0.3767 -0.4690
 4934TIP3    H136293   1.325   0.825  40.776  1.0306  0.4148  0.9296
 4934TIP3    H236294   1.189   0.888  40.756  1.9844  2.1515 -0.3772
 4935TIP3   OH236295   4.063   3.458  33.198 -0.0611  0.4278  0.3932
 4935TIP3    H136296   4.133   3.432  33.138  0.0420  3.1618 -0.8231
 4935TIP3    H236297   4.032   3.376  33.236  2.0573 -1.1063 -0.9561
 4936TIP3   OH236298   2.190   2.691  38.036  0.2677  1.0175 -0.1676
 4936TIP3    H136299   2.280   2.696  38.067 -0.0948  2.0961  0.7687
 4936TIP3    H236300   2.136   2.713  38.112 -0.8225 -0.0547 -0.5923
 4937TIP3   OH236301   2.169   2.811  40.847 -0.1442 -0.5077  0.5365
 4937TIP3    H136302   2.112   2.889  40.847  0.8368  0.2434  1.8825
 4937TIP3    H236303   2.138   2.759  40.773 -0.8897  1.1227 -0.3434
 4938TIP3   OH236304   1.676   0.055  28.183 -0.7319  0.6439 -0.1075
 4938TIP3    H136305   1.662   0.007  28.264 -2.1201 -0.0407 -0.7239
 4938TIP3    H236306   1.613   0.127  28.187 -1.3629  0.1542 -0.9085
 4939TIP3   OH236307   1.466   2.410  26.644 -0.1606  0.3574 -0.0186
 4939TIP3    H136308   1.441   2.341  26.582 -1.9438 -0.4768  1.5349
 4939TIP3    H236309   1.549   2.380  26.681 -1.6723 -1.8449  1.7871
 4940TIP3   OH236310   0.475   0.257  40.307  0.0835  0.1637 -0.5039
 4940TIP3    H136311   0.450   0.349  40.307 -0.9449 -0.0941  0.6913
 4940TIP3    H236312   0.472   0.232  40.214 -1.4468  0.8798 -0.6864
 4941TIP3   OH236313   4.349   2.151  25.077 -0.3328 -0.0152 -0.5263
 4941TIP3    H136314   4.432   2.107  25.062 -0.5235 -0.4596 -0.3130
 4941TIP3    H236315   4.372   2.243  25.086  0.0416 -0.0320 -1.2415
 4942TIP3   OH236316   1.842   0.484  13.278  0.1782  0.3707  0.4989
 4942TIP3    H136317   1.895   0.422  13.227 -0.2309  0.3627  0.0859
 4942TIP3    H236318   1.756   0.482  13.237 -0.5551 -0.6270  1.9900
 4943TIP3   OH236319   0.106   4.165  37.418 -0.3091 -0.1170 -0.6441
 4943TIP3    H136320   0.140   4.205  37.338 -0.7650 -1.0227 -1.3087
 4943TIP3    H236321   0.095   4.073  37.395 -3.1570  0.1074 -0.4675
 4944TIP3   OH236322   0.514   0.851   2.644  0.6217  0.6444 -0.1673
 4944TIP3    H136323   0.504   0.796   2.721  1.1503 -2.1900 -1.9350
 4944TIP3    H236324   0.596   0.898   2.658  0.4489  0.5639  1.1954
 4945TIP3   OH236325   1.885   2.149  17.515  0.5577  0.1803  0.2794
 4945TIP3    H136326   1.957   2.090  17.493  0.4481  0.2623 -0.3140
 4945TIP3    H236327   1.839   2.106  17.587  0.7876 -0.2035  0.1982
 4946TIP3   OH236328   1.909   0.124  18.523  0.0443  0.4837  0.0110
 4946TIP3    H136329   1.859   0.203  18.505  0.9019  1.1413  0.4143
 4946TIP3    H236330   1.917   0.122  18.619  1.1038  0.6099 -0.0611
 4947TIP3   OH236331   3.737   3.185  12.316  0.7001 -0.0435 -0.0211
 4947TIP3    H136332   3.740   3.268  12.269  1.2683 -0.2082 -0.2891
 4947TIP3    H236333   3.798   3.197  12.389  2.1197 -0.7779 -1.0206
 4948TIP3   OH236334   2.819   3.926  10.999  0.2095  0.1631  0.1499
 4948TIP3    H136335   2.725   3.911  11.004  0.5359 -1.7645  1.4976
 4948TIP3    H236336   2.827   4.015  10.964 -2.0606 -0.0138 -1.0037
 4949TIP3   OH236337   2.623   4.211   3.375  0.2973  0.1127 -0.4349
 4949TIP3    H136338   2.593   4.130   3.333 -1.4546 -0.2240  1.3111
 4949TIP3    H236339   2.581   4.281   3.325 -0.5853 -0.2071 -0.1498
 4950TIP3   OH236340   1.324   2.267  16.794  0.0367 -0.4068  1.0545
 4950TIP3    H136341   1.383   2.326  16.746 -1.0262  0.8304  1.2163
 4950TIP3    H236342   1.322   2.188  16.740  2.0348 -0.5986  1.1859
 4951TIP3   OH236343   0.343   2.318   1.810  0.5173  0.0248 -1.0590
 4951TIP3    H136344   0.260   2.362   1.826  0.7863 -0.4652  2.6639
 4951TIP3    H236345   0.320   2.232   1.775 -0.4394  0.3772 -1.3009
 4952TIP3   OH236346   0.031   2.643  34.307 -0.3252 -0.1717  0.1898
 4952TIP3    H136347   0.100   2.581  34.330 -0.2459 -0.7743 -1.5150
 4952TIP3    H236348   0.070   2.729  34.320  0.3611 -0.5029  0.3505
 4953TIP3   OH236349   0.999   4.398  26.780  0.5160  0.3967  0.3831
 4953TIP3    H136350   1.074   4.361  26.828  0.5222 -0.2641 -0.1172
 4953TIP3    H236351   0.923   4.354  26.817  0.1631  2.2637  2.0584
 4954TIP3   OH236352   3.235   2.596   8.945 -0.3927  0.2273 -0.6599
 4954TIP3    H136353   3.302   2.664   8.939  1.2158 -1.4587 -4.2850
 4954TIP3    H236354   3.153   2.645   8.958  0.8860  2.7241 -1.3236
 4955TIP3   OH236355   2.298   3.105  35.465 -0.0427 -0.2415  0.6033
 4955TIP3    H136356   2.295   3.139  35.376 -0.9258 -0.3682  0.5761
 4955TIP3    H236357   2.252   3.021  35.461 -0.3580 -0.1083  1.2294
 4956TIP3   OH236358   3.955   3.442  29.193  0.1800  0.2150  0.1579
 4956TIP3    H136359   3.979   3.459  29.285 -0.6471 -0.1979  0.4544
 4956TIP3    H236360   3.881   3.382  29.198 -0.1915  0.5813 -0.7795
 4957TIP3   OH236361   0.483   3.362  10.290 -0.1781 -0.0386  0.5363
 4957TIP3    H136362   0.519   3.381  10.204 -1.8659 -0.9003 -0.4171
 4957TIP3    H236363   0.559   3.361  10.348  1.0420  0.2508 -0.9831
 4958TIP3   OH236364   1.406   0.059   0.326 -0.3437  0.1150 -0.5666
 4958TIP3    H136365   1.393  -0.023   0.278 -0.9750 -0.9359  1.2765
 4958TIP3    H236366   1.320   0.080   0.361  0.0498  0.9542 -0.0726
 4959TIP3   OH236367   1.625   2.143  32.963 -0.7777 -0.7445  0.0384
 4959TIP3    H136368   1.593   2.066  33.010 -1.1003  0.2397  1.5259
 4959TIP3    H236369   1.547   2.196  32.947 -0.2966  0.4277  1.3134
 4960TIP3   OH236370   3.337   1.403  31.631 -0.4330  0.7349  0.2802
 4960TIP3    H136371   3.408   1.464  31.651 -0.7818  0.3430  3.1834
 4960TIP3    H236372   3.376   1.340  31.570  1.8990  0.2882  2.1102
 4961TIP3   OH236373   2.137   1.694  41.580  0.2757  0.3221 -0.0186
 4961TIP3    H136374   2.210   1.720  41.524 -0.2133 -0.6607 -1.1418
 4961TIP3    H236375   2.176   1.632  41.642  0.7707  1.2456  0.6209
 4962TIP3   OH236376   2.177   3.802  34.642 -0.0622  0.8770  0.3472
 4962TIP3    H136377   2.184   3.890  34.680 -0.3214  0.6928  0.8320
 4962TIP3    H236378   2.210   3.744  34.711  1.4967  0.6994 -0.4965
 4963TIP3   OH236379   1.950   0.558   0.480 -0.5383 -0.0108 -0.3144
 4963TIP3    H136380   1.918   0.631   0.427 -0.1301 -0.6188 -1.4229
 4963TIP3    H236381   1.888   0.553   0.554  0.1340  2.2368  0.4829
 4964TIP3   OH236382   2.111   2.917  38.844  0.3681 -0.6282  0.2826
 4964TIP3    H136383   2.027   2.904  38.799 -0.3967  0.6725  1.2636
 4964TIP3    H236384   2.108   2.856  38.918  0.7326 -1.2856 -0.2369
 4965TIP3   OH236385   4.075   3.895  12.534  0.0689  0.8554 -0.2374
 4965TIP3    H136386   4.101   3.806  12.509 -0.3195  0.9541 -1.0261
 4965TIP3    H236387   4.022   3.883  12.612  0.5966  0.4589  0.0693
 4966TIP3   OH236388   1.753   1.401   8.658 -0.3566 -0.7726  0.0911
 4966TIP3    H136389   1.796   1.332   8.708 -0.1992 -0.2598  0.6665
 4966TIP3    H236390   1.749   1.475   8.718  0.0907 -0.0580 -0.7430
 4967TIP3   OH236391   4.075   0.519  28.741  0.4783  0.0875 -0.2295
 4967TIP3    H136392   4.047   0.540  28.652  1.0957 -2.1549 -1.0293
 4967TIP3    H236393   4.041   0.431  28.756  1.9283 -0.2952  1.0584
 4968TIP3   OH236394   0.280   0.568  26.454 -0.0805 -0.4688 -0.0678
 4968TIP3    H136395   0.205   0.544  26.508  1.0844  0.3262  1.9968
 4968TIP3    H236396   0.356   0.535  26.502  1.0984  1.4844 -0.4730
 4969TIP3   OH236397   0.985   1.866  33.796  0.1849 -0.1095  0.6215
 4969TIP3    H136398   1.017   1.844  33.883  0.1349  0.4951  0.8004
 4969TIP3    H236399   1.015   1.955  33.781  0.3022 -0.2521 -0.0348
 4970TIP3   OH236400   0.128   3.872   7.266  0.4570 -0.1140  0.3541
 4970TIP3    H136401   0.086   3.787   7.269 -1.1977  0.6955  1.1210
 4970TIP3    H236402   0.112   3.904   7.177 -0.7484  0.2654  0.6937
 4971TIP3   OH236403   3.295   0.046  12.542 -0.9856 -0.4985 -0.2094
 4971TIP3    H136404   3.388   0.032  12.561 -1.0206  1.7264  2.1213
 4971TIP3    H236405   3.253  -0.035  12.571  0.0849 -0.9924  0.0310
 4972TIP3   OH236406   4.266   4.309   4.117  0.3786  0.3870 -0.1090
 4972TIP3    H136407   4.262   4.292   4.212  0.8729 -2.3283 -0.5016
 4972TIP3    H236408   4.336   4.251   4.086  0.3722  1.4023 -2.1304
 4973TIP3   OH236409   4.372   3.389  33.262 -0.0849 -1.1932  0.2682
 4973TIP3    H136410   4.401   3.302  33.233  1.2968 -0.2801 -1.2856
 4973TIP3    H236411   4.341   3.431  33.182  0.2273  0.0949  0.8017
 4974TIP3   OH236412   2.430   1.973  28.275  0.6610 -0.1709 -0.4497
 4974TIP3    H136413   2.372   1.917  28.326  0.4309 -0.5175 -1.0761
 4974TIP3    H236414   2.380   2.055  28.265  1.2898  0.4360  1.0723
 4975TIP3   OH236415   2.813   4.395  29.348 -0.6844  0.2635  0.1725
 4975TIP3    H136416   2.873   4.351  29.288 -2.0943 -1.4856 -0.0111
 4975TIP3    H236417   2.762   4.453  29.293 -0.0300  0.8282  0.1464
 4976TIP3   OH236418   3.510   0.538   2.902 -0.2930 -0.5521 -0.0579
 4976TIP3    H136419   3.447   0.489   2.955 -2.0839 -0.2182 -1.7403
 4976TIP3    H236420   3.525   0.619   2.950 -2.2621 -0.0362 -0.2266
 4977TIP3   OH236421   3.920   3.051  13.551 -0.0058  0.3496 -0.3966
 4977TIP3    H136422   3.952   3.011  13.470 -1.0442 -0.4548 -0.4254
 4977TIP3    H236423   3.877   2.980  13.598 -1.3097  1.2852 -0.1317
 4978TIP3   OH236424   2.314   3.714  32.312 -0.3358  0.6204 -0.0195
 4978TIP3    H136425   2.335   3.804  32.285 -1.6895  0.8669 -0.3275
 4978TIP3    H236426   2.230   3.723  32.358 -0.6450 -0.5343 -0.3405
 4979TIP3   OH236427   0.331   4.055  27.383  0.2845 -0.0932 -0.3972
 4979TIP3    H136428   0.237   4.045  27.401 -0.0466  1.1089 -1.2561
 4979TIP3    H236429   0.372   3.977  27.420 -0.7058  0.5882  2.4194
 4980TIP3   OH236430   1.103   2.070  17.670 -0.1584 -0.2302 -0.2383
 4980TIP3    H136431   1.082   2.153  17.711  0.8190  0.2098 -0.6053
 4980TIP3    H236432   1.141   2.017  17.739  0.9461  0.3025 -0.4195
 4981TIP3   OH236433   1.745   2.489  35.703  0.0607 -0.3998  0.3140
 4981TIP3    H136434   1.761   2.400  35.672  1.5567 -0.1605  0.2872
 4981TIP3    H236435   1.804   2.498  35.779  1.0842  1.0345 -0.5914
 4982TIP3   OH236436   1.146   3.107  12.266  0.6448  0.8380 -0.8015
 4982TIP3    H136437   1.194   3.140  12.342 -0.0342 -0.0881  0.0611
 4982TIP3    H236438   1.188   3.149  12.191  1.2168  1.9216  0.0884
 4983TIP3   OH236439   1.224   1.918  36.559  0.0809  0.0208  0.5868
 4983TIP3    H136440   1.130   1.897  36.553 -0.4106  2.1313  0.0267
 4983TIP3    H236441   1.267   1.833  36.566 -1.8946 -0.9921  1.2407
 4984TIP3   OH236442   0.181   1.201  33.542  0.7059 -0.6724 -0.4853
 4984TIP3    H136443   0.273   1.207  33.517  1.0540  0.2582  0.9236
 4984TIP3    H236444   0.179   1.227  33.634 -1.1134  0.4700 -0.7930
 4985TIP3   OH236445   2.289   1.661  36.553  0.1227 -0.4200  0.4932
 4985TIP3    H136446   2.293   1.596  36.483 -1.8101 -1.1115  0.9761
 4985TIP3    H236447   2.204   1.703  36.542  0.4253  0.5237  1.5285
 4986TIP3   OH236448   0.942   3.092  35.014  0.6793 -0.1838 -0.4431
 4986TIP3    H136449   0.920   3.053  34.929  1.7678 -1.9336  0.0185
 4986TIP3    H236450   1.037   3.093  35.017  0.7011  2.3918 -0.3006
 4987TIP3   OH236451   3.401   1.910  34.457 -0.6152  0.2343  0.3204
 4987TIP3    H136452   3.484   1.957  34.460 -0.5215  0.0414  1.2448
 4987TIP3    H236453   3.423   1.822  34.426 -0.7718  0.7330 -1.2823
 4988TIP3   OH236454   2.216   1.155  31.157 -0.4671  0.0936 -0.1359
 4988TIP3    H136455   2.243   1.244  31.179  1.3834 -0.4518 -0.0252
 4988TIP3    H236456   2.147   1.167  31.091  0.4695  1.5971 -0.9023
 4989TIP3   OH236457   4.365   2.924  12.232 -0.3483 -1.3314 -0.2168
 4989TIP3    H136458   4.311   2.853  12.197  1.5596 -1.8424 -2.3436
 4989TIP3    H236459   4.402   2.966  12.155  1.4582 -0.3528  1.1083
 4990TIP3   OH236460   4.148   3.895  27.806 -0.3493  0.4664  0.2575
 4990TIP3    H136461   4.192   3.980  27.804  1.9285 -0.6158  0.3059
 4990TIP3    H236462   4.209   3.836  27.760 -1.3463 -1.3446  1.1537
 4991TIP3   OH236463   4.049   3.390  29.893  0.0799 -0.3051  0.0098
 4991TIP3    H136464   3.962   3.361  29.865  0.1618  0.4022 -1.0188
 4991TIP3    H236465   4.032   3.447  29.969 -0.2973 -0.6774  0.2094
 4992TIP3   OH236466   3.648   2.241  36.210  0.0088 -0.3922  0.1824
 4992TIP3    H136467   3.669   2.201  36.126  0.5851 -0.3706  0.3088
 4992TIP3    H236468   3.574   2.298  36.192 -0.1271 -0.6920 -0.2273
 4993TIP3   OH236469   4.304   1.466   5.521  0.3548  0.2352 -0.1251
 4993TIP3    H136470   4.218   1.433   5.544  0.5428 -0.9561 -1.0337
 4993TIP3    H236471   4.315   1.544   5.575 -0.6250 -0.4821  1.1612
 4994TIP3   OH236472   0.243   1.266  27.438 -0.1442  0.0985 -0.2213
 4994TIP3    H136473   0.303   1.260  27.512  1.6214 -1.6663 -1.6884
 4994TIP3    H236474   0.241   1.360  27.417  2.8198  0.1692 -0.6019
 4995TIP3   OH236475   2.653   1.980  32.782 -0.6275  0.1396 -0.1233
 4995TIP3    H136476   2.610   2.048  32.729 -0.5476 -0.0012 -0.3674
 4995TIP3    H236477   2.709   1.933  32.721  0.6815  0.9727  0.3834
 4996TIP3   OH236478   3.269   0.859   2.119  0.6612  0.2355 -0.3718
 4996TIP3    H136479   3.312   0.876   2.203 -0.9322  1.3824  0.2505
 4996TIP3    H236480   3.205   0.791   2.138 -0.1303  0.9287 -0.4941
 4997TIP3   OH236481   0.733   4.011  30.955 -0.8813  0.1093  0.3704
 4997TIP3    H136482   0.693   4.090  30.920 -0.9694 -0.1888 -0.2204
 4997TIP3    H236483   0.785   3.976  30.882  1.6169  1.2259  1.5015
 4998TIP3   OH236484   2.402   4.090  41.147  0.3480 -0.2042  0.3464
 4998TIP3    H136485   2.394   4.112  41.240  0.0161  0.3614  0.1915
 4998TIP3    H236486   2.445   4.005  41.145  1.4043  0.2907  0.9833
 4999TIP3   OH236487   0.480   2.939  39.788 -0.6825 -0.0444 -0.2286
 4999TIP3    H136488   0.494   2.894  39.705 -0.6298  1.0174 -0.8118
 4999TIP3    H236489   0.392   2.976  39.781 -0.6878  0.0321  0.2007
 5000TIP3   OH236490   1.702   1.481   6.741 -0.0980 -0.2504  0.2643
 5000TIP3    H136491   1.794   1.495   6.761  0.3681 -0.1164 -1.7441
 5000TIP3    H236492   1.694   1.386   6.732  0.3525 -0.1565 -1.5412
 5001TIP3   OH236493   2.325   1.470   1.528 -0.3976  0.1739  0.1348
 5001TIP3    H136494   2.251   1.526   1.549  0.5351  1.5645 -0.1453
 5001TIP3    H236495   2.388   1.528   1.485  0.2464 -1.2892 -0.9929
 5002TIP3   OH236496   0.823   3.096  31.303 -0.0618  0.5879 -0.8075
 5002TIP3    H136497   0.828   3.191  31.307  2.1852  0.5047 -0.7807
 5002TIP3    H236498   0.912   3.067  31.282 -1.0316 -1.4354 -2.5639
 5003TIP3   OH236499   2.912   3.221  30.556  0.5687 -0.1310 -0.4460
 5003TIP3    H136500   2.828   3.235  30.512  0.4113 -0.4426 -0.2421
 5003TIP3    H236501   2.919   3.293  30.618  1.8809  1.7594 -2.5894
 5004TIP3   OH236502   4.055   3.522  10.131  0.2799  0.1108  0.4128
 5004TIP3    H136503   3.960   3.534  10.131  0.1640 -0.7369 -0.4173
 5004TIP3    H236504   4.068   3.430  10.107  1.3111  0.2334  0.4678
 5005TIP3   OH236505   0.074   4.305  28.928 -0.1371 -0.6130  0.1772
 5005TIP3    H136506  -0.019   4.329  28.929  0.0655  0.4813  3.0470
 5005TIP3    H236507   0.120   4.389  28.932  0.8534 -1.1821  1.4873
 5006TIP3   OH236508   1.521   4.032   6.938 -0.3389  0.1278 -0.8188
 5006TIP3    H136509   1.525   3.971   6.864 -1.0902  0.6045 -1.2759
 5006TIP3    H236510   1.548   4.116   6.901  0.1588  0.1870 -0.3279
 5007TIP3   OH236511   2.011   4.154  27.466 -0.5770  0.2267 -0.1439
 5007TIP3    H136512   2.091   4.135  27.514 -0.5958  1.2025  0.2792
 5007TIP3    H236513   1.953   4.080  27.485  0.3441 -0.6871 -0.7662
 5008TIP3   OH236514   2.990   2.507   7.547  0.3548 -0.4646 -0.3337
 5008TIP3    H136515   2.923   2.456   7.592 -0.6825  0.0929 -1.2144
 5008TIP3    H236516   3.014   2.576   7.609 -0.5110 -0.1525 -0.3413
 5009TIP3   OH236517   2.928   0.072  32.707 -0.1149  0.1642  0.5048
 5009TIP3    H136518   2.871   0.063  32.630 -1.1860 -0.3812  1.3340
 5009TIP3    H236519   3.012   0.102  32.671 -0.9379  1.1150 -0.7465
 5010TIP3   OH236520   0.652   4.369  35.080  0.6281  0.5793  0.2907
 5010TIP3    H136521   0.700   4.353  34.999 -0.3037  1.1373 -0.3976
 5010TIP3    H236522   0.610   4.454  35.066  2.4651  1.9609  2.3573
 5011TIP3   OH236523   1.398   0.076   3.599  0.0537 -0.1831 -0.4534
 5011TIP3    H136524   1.378  -0.004   3.648  0.7862  0.1105  0.3300
 5011TIP3    H236525   1.313   0.103   3.562 -0.2537 -1.1426 -0.4766
 5012TIP3   OH236526   3.145   1.602  29.872  0.4001  0.0029  0.4347
 5012TIP3    H136527   3.198   1.614  29.793 -0.9756  3.6579 -0.1217
 5012TIP3    H236528   3.193   1.650  29.940  0.0758 -0.5759  1.0820
 5013TIP3   OH236529   2.430   3.109   4.504  0.0050  0.1415  0.3277
 5013TIP3    H136530   2.485   3.031   4.507 -0.2620 -0.0689 -0.2258
 5013TIP3    H236531   2.368   3.098   4.576  1.1271  0.7158  1.4163
 5014TIP3   OH236532   3.397   1.932   1.104  0.6705 -0.1974  0.1305
 5014TIP3    H136533   3.371   1.920   1.013 -0.2010  0.2030  0.3125
 5014TIP3    H236534   3.406   1.843   1.138  1.3521 -0.3497 -0.4351
 5015TIP3   OH236535   3.489   4.395  35.688  0.0219 -0.0725 -0.3534
 5015TIP3    H136536   3.479   4.302  35.669 -0.6979 -1.3063  4.5233
 5015TIP3    H236537   3.580   4.404  35.717 -0.1037  0.5591 -0.1375
 5016TIP3   OH236538   0.187   4.236   8.820  0.2444 -0.1032  0.3078
 5016TIP3    H136539   0.227   4.154   8.791 -1.0196 -0.8247  0.5145
 5016TIP3    H236540   0.218   4.302   8.757  0.3423 -0.9647 -0.5601
 5017TIP3   OH236541   2.608   2.964  37.236  0.1127  0.0404  0.5966
 5017TIP3    H136542   2.617   3.013  37.154  0.8466 -1.5714 -0.3288
 5017TIP3    H236543   2.606   3.031  37.304  0.1349  1.3831 -0.6870
 5018TIP3   OH236544   3.062   4.077   8.985  0.2794  0.5182  0.2609
 5018TIP3    H136545   3.013   4.158   8.965  0.5893  0.9928  1.3566
 5018TIP3    H236546   3.110   4.098   9.065  1.8409 -0.1344 -0.4812
 5019TIP3   OH236547   2.846   3.158  30.248 -0.5287 -0.1060  0.3516
 5019TIP3    H136548   2.835   3.150  30.154 -2.1693  1.1110  0.3927
 5019TIP3    H236549   2.772   3.109  30.285 -0.1213 -0.2428  1.0031
 5020TIP3   OH236550   2.744   2.856  11.216 -0.5563 -0.3299  1.0113
 5020TIP3    H136551   2.711   2.938  11.179  0.4753  0.4964  1.8574
 5020TIP3    H236552   2.729   2.791  11.148 -1.7222  0.4861  0.4557
 5021TIP3   OH236553   3.385   4.055   3.460  0.3580 -0.1730 -0.6826
 5021TIP3    H136554   3.476   4.039   3.484  0.5168  0.3480 -0.9272
 5021TIP3    H236555   3.380   4.149   3.445 -0.3082 -0.1411 -0.3112
 5022TIP3   OH236556   0.611   2.586  31.070  0.1092 -0.6774  0.2313
 5022TIP3    H136557   0.636   2.513  31.127  2.1304  1.7870  2.8557
 5022TIP3    H236558   0.678   2.588  31.002  0.4694 -0.8459  0.5790
 5023TIP3   OH236559   2.171   1.145   7.821  0.2811  0.5029 -0.0200
 5023TIP3    H136560   2.262   1.116   7.815 -0.2345 -1.0769 -0.7127
 5023TIP3    H236561   2.120   1.064   7.826 -1.0190  1.3509  1.9403
 5024TIP3   OH236562   2.140   0.884  27.361 -0.4424 -0.2677  0.1679
 5024TIP3    H136563   2.157   0.874  27.268 -0.5830  0.1544  0.0947
 5024TIP3    H236564   2.056   0.930  27.366 -0.6756 -0.7272  0.5063
 5025TIP3   OH236565   3.296   2.741   3.006 -0.1477 -0.0058 -0.5985
 5025TIP3    H136566   3.215   2.713   2.962 -0.3023  1.9141 -1.6027
 5025TIP3    H236567   3.363   2.738   2.938  0.3522 -0.2424 -0.1098
 5026TIP3   OH236568   3.499   3.206  12.494  0.4632  0.2133  0.4195
 5026TIP3    H136569   3.543   3.217  12.410  1.1043  0.7753  0.8136
 5026TIP3    H236570   3.406   3.214  12.474  0.6526  1.3319 -0.1134
 5027TIP3   OH236571   1.304   1.302  35.676  0.6226  1.0750 -0.1174
 5027TIP3    H136572   1.393   1.285  35.708 -0.3457  0.3890  2.4648
 5027TIP3    H236573   1.286   1.392  35.703  0.7418  1.4422 -1.2279
 5028TIP3   OH236574   0.021   0.931  10.271  0.4135 -0.1140  0.4697
 5028TIP3    H136575  -0.033   0.878  10.330  1.3940  0.0708  1.5861
 5028TIP3    H236576  -0.041   0.970  10.210 -0.6901 -0.1154  1.5486
 5029TIP3   OH236577   1.265   0.684  29.028  0.4944 -0.0588  0.8244
 5029TIP3    H136578   1.340   0.716  28.980  2.0852 -1.2309  2.3850
 5029TIP3    H236579   1.227   0.762  29.069  0.2113  0.6805 -0.7718
 5030TIP3   OH236580   2.438   1.069   3.558  0.7805 -0.0898 -0.0301
 5030TIP3    H136581   2.402   0.983   3.578  0.4140 -0.2711 -1.3917
 5030TIP3    H236582   2.429   1.118   3.640 -0.0711 -0.9686  0.4264
 5031TIP3   OH236583   1.358   2.731  34.247 -0.9564  0.1481 -0.3811
 5031TIP3    H136584   1.400   2.815  34.229  1.5299 -0.9345  0.0829
 5031TIP3    H236585   1.360   2.722  34.342  1.6528 -1.7146 -0.5058
 5032TIP3   OH236586   1.119   3.752  33.886 -0.2912  0.1938 -0.5005
 5032TIP3    H136587   1.147   3.663  33.869  0.2195  0.6305 -2.1203
 5032TIP3    H236588   1.079   3.749  33.973 -0.8304 -1.7161 -0.7927
 5033TIP3   OH236589   2.545   1.050   5.013 -0.0955  0.6203 -0.1747
 5033TIP3    H136590   2.480   1.082   5.075 -0.2983 -0.5705  0.2360
 5033TIP3    H236591   2.495   1.026   4.935 -0.6986 -3.1846  1.1632
 5034TIP3   OH236592   1.182   1.676  37.588 -0.3563  0.1003 -0.6252
 5034TIP3    H136593   1.201   1.677  37.494  0.2893 -0.1838 -0.5049
 5034TIP3    H236594   1.149   1.588  37.605  4.0975 -1.6547  0.2425
 5035TIP3   OH236595   3.862   2.851  12.463  0.0568 -0.1867  0.1976
 5035TIP3    H136596   3.881   2.872  12.372  0.9934 -0.1739  0.3872
 5035TIP3    H236597   3.790   2.909  12.486 -2.5363 -2.4884 -1.5084
 5036TIP3   OH236598   4.009   3.393  30.319  0.3491 -0.5985  0.2424
 5036TIP3    H136599   3.990   3.457  30.250  0.5289 -1.7552 -0.9101
 5036TIP3    H236600   3.933   3.397  30.378  1.5167  2.6123  1.7751
 5037TIP3   OH236601   4.119   3.056   1.410 -0.3455  0.5024  0.2440
 5037TIP3    H136602   4.182   3.004   1.361  0.1380  0.6529  0.7066
 5037TIP3    H236603   4.170   3.127   1.448 -0.9219  1.0566  0.0024
 5038TIP3   OH236604   0.075   2.872  27.978  0.3327  0.3856 -0.6876
 5038TIP3    H136605   0.021   2.793  27.969  0.5451  0.2662 -0.9564
 5038TIP3    H236606   0.014   2.944  27.963  0.0893  0.2800 -0.2021
 5039TIP3   OH236607   3.367   0.441  40.585  0.5287  0.2319 -0.5071
 5039TIP3    H136608   3.383   0.349  40.562  0.6116 -0.1706  1.0015
 5039TIP3    H236609   3.350   0.439  40.679 -0.6854  1.6269 -0.6525
 5040TIP3   OH236610   3.707   2.202  37.261  0.6263  0.5298 -0.0382
 5040TIP3    H136611   3.703   2.212  37.356 -1.8459  0.3704 -0.0710
 5040TIP3    H236612   3.689   2.290  37.227 -2.1848 -0.0736 -0.3027
 5041TIP3   OH236613   3.441   2.152  28.327  0.3538 -0.1211  0.4544
 5041TIP3    H136614   3.483   2.236  28.345  0.9802 -0.4281  0.4345
 5041TIP3    H236615   3.372   2.173  28.264  1.4173  0.1635 -0.6485
 5042TIP3   OH236616   0.273   3.319  39.280  0.3857  0.1282  0.1744
 5042TIP3    H136617   0.224   3.238  39.266 -1.9023  1.3919  0.3833
 5042TIP3    H236618   0.253   3.344  39.371  0.4063  1.3142 -0.1256
 5043TIP3   OH236619   0.692   0.922  35.226 -0.2525 -0.1255 -0.0569
 5043TIP3    H136620   0.770   0.879  35.261 -0.8989 -1.6395 -0.3802
 5043TIP3    H236621   0.665   0.982  35.295  0.5410 -0.4164  0.5295
 5044TIP3   OH236622   2.070   1.977  32.536  0.4139  0.3759  0.4229
 5044TIP3    H136623   2.082   1.888  32.504  0.8428 -0.1999  2.0719
 5044TIP3    H236624   2.114   1.978  32.621 -1.6854  1.4404  1.5770
 5045TIP3   OH236625   0.641   0.123  36.744 -0.0820 -0.3813 -0.6417
 5045TIP3    H136626   0.722   0.150  36.787  0.0280  0.8277 -1.5655
 5045TIP3    H236627   0.653   0.030  36.726 -0.4765 -1.1877  2.6284
 5046TIP3   OH236628   4.104   1.036  40.076 -0.1223  0.2757  0.3407
 5046TIP3    H136629   4.178   1.090  40.104  1.3080 -1.5715  0.3364
 5046TIP3    H236630   4.068   1.001  40.158  0.0053 -0.0594  0.2570
 5047TIP3   OH236631   1.697   1.715  17.601  0.2170 -0.3578 -0.0725
 5047TIP3    H136632   1.601   1.718  17.601  0.2273  0.0360 -0.0121
 5047TIP3    H236633   1.719   1.688  17.690  0.1843  0.6661  0.2649
 5048TIP3   OH236634   0.519   3.280  30.483  1.0893 -0.4247 -0.0366
 5048TIP3    H136635   0.529   3.367  30.444  2.9247  0.5418  2.3265
 5048TIP3    H236636   0.572   3.222  30.428  0.8764  0.1747 -0.8935
 5049TIP3   OH236637   4.140   1.232  31.564 -0.2400 -0.0268  0.2249
 5049TIP3    H136638   4.172   1.199  31.648 -1.7214  0.9715  1.2339
 5049TIP3    H236639   4.061   1.180  31.547  1.5494 -2.2807 -2.0944
 5050TIP3   OH236640   2.432   4.219  13.050 -0.9251 -0.3057 -0.0648
 5050TIP3    H136641   2.457   4.299  13.004 -2.1250 -0.5593 -1.2461
 5050TIP3    H236642   2.515   4.174  13.068 -0.3520  0.3532 -0.9845
 5051TIP3   OH236643   2.018   2.256  17.753  0.1103 -0.3555  0.7261
 5051TIP3    H136644   2.096   2.200  17.758  0.3543 -0.1180 -0.2513
 5051TIP3    H236645   1.944   2.195  17.750  0.3105 -0.6008  0.7723
 5052TIP3   OH236646   2.237   1.328   8.167  0.2133 -0.0540  0.0965
 5052TIP3    H136647   2.172   1.275   8.213 -0.3688 -0.1530 -0.8091
 5052TIP3    H236648   2.252   1.403   8.224  0.7360 -0.9602  1.2022
 5053TIP3   OH236649   1.716   0.848  31.986 -0.1702  0.4750  0.5974
 5053TIP3    H136650   1.721   0.805  32.071  1.3406  0.5937  0.5940
 5053TIP3    H236651   1.642   0.908  31.994 -1.0873 -0.7071  1.2491
 5054TIP3   OH236652   0.398   4.181   1.875  0.2154 -0.8155  0.6331
 5054TIP3    H136653   0.446   4.258   1.905 -1.2660  0.7547 -0.7562
 5054TIP3    H236654   0.426   4.170   1.784  0.5471 -2.0722  0.8679
 5055TIP3   OH236655   1.040   0.846   5.175 -0.4165 -0.3278  0.0073
 5055TIP3    H136656   1.035   0.921   5.117  0.0974  0.2206  0.6519
 5055TIP3    H236657   0.996   0.775   5.128 -0.9976  0.4017 -0.5653
 5056TIP3   OH236658   2.135   3.908   7.238  0.1674 -0.5164  0.3857
 5056TIP3    H136659   2.159   3.820   7.209 -1.3267 -0.7438 -0.2318
 5056TIP3    H236660   2.200   3.930   7.304  2.2501 -0.9867 -1.3723
 5057TIP3   OH236661   0.759   3.357  38.790 -0.7345 -0.1110  0.5224
 5057TIP3    H136662   0.853   3.372  38.790 -0.5414 -1.2274  0.3488
 5057TIP3    H236663   0.734   3.361  38.883 -0.7621  1.4969  0.4669
 5058TIP3   OH236664   3.826   2.723  39.936  0.8406  0.4945  0.4955
 5058TIP3    H136665   3.919   2.702  39.931  0.7037 -0.0466  0.1950
 5058TIP3    H236666   3.812   2.788  39.868  1.2221  1.4208  1.2801
 5059TIP3   OH236667   2.672   2.655  11.388  0.5422  0.0629 -0.0464
 5059TIP3    H136668   2.685   2.746  11.360  0.9758 -0.1347 -0.4812
 5059TIP3    H236669   2.760   2.622  11.406  0.3598 -0.1741  0.4366
 5060TIP3   OH236670   4.313   2.833   8.189  0.3041  0.4123  0.2712
 5060TIP3    H136671   4.333   2.778   8.264 -1.5421 -0.8177 -0.0731
 5060TIP3    H236672   4.399   2.854   8.151  1.1590 -0.5189  1.6001
 5061TIP3   OH236673   3.515   3.429  10.249  0.1291  0.6618  0.1531
 5061TIP3    H136674   3.504   3.524  10.244 -1.4217  0.9691  4.4488
 5061TIP3    H236675   3.425   3.396  10.259  0.6985 -1.1776 -0.4982
 5062TIP3   OH236676   2.126   3.025   5.166  0.4314 -0.0757  0.7195
 5062TIP3    H136677   2.128   2.960   5.096  2.4958 -1.6030  2.0568
 5062TIP3    H236678   2.133   3.109   5.121 -1.3734 -0.7920 -1.0098
 5063TIP3   OH236679   2.629   3.609  33.596 -0.4227 -0.0925  0.0855
 5063TIP3    H136680   2.634   3.613  33.692 -1.6064 -0.4092  0.1764
 5063TIP3    H236681   2.704   3.556  33.570 -1.4939 -2.2185  1.0546
 5064TIP3   OH236682   0.913   2.845  32.993  0.2616  0.4352  0.1012
 5064TIP3    H136683   0.976   2.903  33.037  0.2435 -0.0382  0.7717
 5064TIP3    H236684   0.967   2.776  32.955  0.4387  1.6344 -1.9774
 5065TIP3   OH236685   0.700   1.181   7.387 -0.0669  0.1746 -0.7712
 5065TIP3    H136686   0.655   1.097   7.395 -1.0331  0.8011  1.0185
 5065TIP3    H236687   0.793   1.158   7.392 -0.3266 -0.7224  1.2847
 5066TIP3   OH236688   2.645   0.944   6.547  0.4370 -0.4059 -0.8892
 5066TIP3    H136689   2.579   0.882   6.578  1.1227  0.0319  1.6728
 5066TIP3    H236690   2.607   1.030   6.565  1.7682 -0.1452  1.0068
 5067TIP3   OH236691   2.757   0.473   2.673 -0.3192 -0.2010  0.3664
 5067TIP3    H136692   2.735   0.471   2.580  0.2554 -5.4185  0.0535
 5067TIP3    H236693   2.673   0.466   2.718 -0.4684  0.4577  0.2051
 5068TIP3   OH236694   3.185   2.597  36.386  0.5477  0.2754 -0.5736
 5068TIP3    H136695   3.122   2.669  36.390  0.5094  0.1747  1.7591
 5068TIP3    H236696   3.136   2.525  36.346 -0.9468  0.1359  1.3460
 5069TIP3   OH236697   0.071   3.582  12.187 -0.6924 -0.0896 -0.4698
 5069TIP3    H136698   0.084   3.550  12.277 -1.3227 -1.7065 -0.9204
 5069TIP3    H236699   0.158   3.579  12.148 -0.9647 -3.6059 -1.1805
 5070TIP3   OH236700   1.477   0.521   4.718 -0.3414 -0.2221  0.3951
 5070TIP3    H136701   1.542   0.542   4.785  0.4212  0.1378 -0.4428
 5070TIP3    H236702   1.521   0.459   4.660 -0.6715  0.1822 -0.2998
 5071TIP3   OH236703   4.317   3.681  30.632  0.0228 -0.0276  0.4466
 5071TIP3    H136704   4.372   3.651  30.704 -1.0654 -1.3170  0.7569
 5071TIP3    H236705   4.356   3.641  30.554  0.2464  0.0639  0.5112
 5072TIP3   OH236706   1.829   0.716   8.387 -0.4216 -0.5574  0.4113
 5072TIP3    H136707   1.831   0.654   8.314  2.0155 -1.5598  1.2023
 5072TIP3    H236708   1.739   0.749   8.388 -1.1237 -2.1465 -1.6470
 5073TIP3   OH236709   2.056   1.323  32.528  0.1295  0.5903 -0.1465
 5073TIP3    H136710   2.034   1.235  32.500  2.1174  0.8838 -3.1186
 5073TIP3    H236711   1.971   1.367  32.538 -0.8653 -0.7492 -2.0268
 5074TIP3   OH236712   1.075   3.176   7.127  0.8483 -0.1638 -1.0461
 5074TIP3    H136713   1.126   3.141   7.054  2.0056 -1.4713  0.3382
 5074TIP3    H236714   1.064   3.103   7.187  0.1152  0.9248  0.2059
 5075TIP3   OH236715   2.571   2.256  40.640  0.2453  0.2461  0.0363
 5075TIP3    H136716   2.631   2.190  40.677 -0.1412 -0.3451 -0.3867
 5075TIP3    H236717   2.619   2.339  40.650 -0.5544  0.4318  3.5628
 5076TIP3   OH236718   1.939   1.906   6.628  0.2629  0.1374 -0.3911
 5076TIP3    H136719   1.928   1.913   6.722  0.2487  0.5639 -0.4230
 5076TIP3    H236720   1.850   1.910   6.593  0.3826  2.8423 -0.6011
 5077TIP3   OH236721   3.755   2.841  35.618 -0.2330 -0.2166  0.2800
 5077TIP3    H136722   3.773   2.810  35.707 -3.1768 -0.9791  0.6997
 5077TIP3    H236723   3.737   2.934  35.627 -1.5617 -0.4961  0.6942
 5078TIP3   OH236724   0.658   0.427  10.546 -0.4711  0.8303  0.5110
 5078TIP3    H136725   0.718   0.377  10.601 -0.0329  2.0022  1.1215
 5078TIP3    H236726   0.591   0.364  10.520  0.9025 -0.4749 -0.0374
 5079TIP3   OH236727   1.756   3.269  31.958 -0.0972 -0.0599 -0.1174
 5079TIP3    H136728   1.710   3.349  31.934 -0.8337  0.1596  1.8605
 5079TIP3    H236729   1.803   3.291  32.038  0.1134 -1.4692  0.1767
 5080TIP3   OH236730   1.682   1.896  37.331 -0.0577 -0.1989  0.1312
 5080TIP3    H136731   1.757   1.873  37.276 -0.2894  3.4027 -2.0395
 5080TIP3    H236732   1.710   1.975  37.377 -2.0149  0.3578  0.4445
 5081TIP3   OH236733   2.262   1.536  34.188 -0.2757 -0.2036 -0.1673
 5081TIP3    H136734   2.275   1.460  34.244 -0.3559 -0.2217 -0.1747
 5081TIP3    H236735   2.349   1.575  34.180 -0.4080  0.3391  0.7469
 5082TIP3   OH236736   1.055   2.823  28.320 -0.2158 -0.2349 -0.5222
 5082TIP3    H136737   1.136   2.868  28.301 -0.4411  0.3873 -0.0430
 5082TIP3    H236738   1.073   2.731  28.301  1.1262 -0.3683  1.1708
 5083TIP3   OH236739   3.202   2.670  12.824 -0.3269  0.4308 -0.5846
 5083TIP3    H136740   3.227   2.601  12.885  1.4910  0.0349 -1.6948
 5083TIP3    H236741   3.182   2.745  12.879  3.2585  0.7398  0.5420
 5084TIP3   OH236742   3.336   0.727  27.815 -0.2356  0.3717 -0.3351
 5084TIP3    H136743   3.335   0.751  27.907 -1.2313  0.7488 -0.4333
 5084TIP3    H236744   3.409   0.665  27.807  1.7310  2.4658  0.1451
 5085TIP3   OH236745   0.627   1.053  22.089  0.1074  0.1182 -0.0909
 5085TIP3    H136746   0.571   1.028  22.162 -0.3439  0.9335 -0.1514
 5085TIP3    H236747   0.714   1.019  22.113 -0.3571 -0.9785  0.0891
 5086TIP3   OH236748   3.479   0.700  39.745 -0.2681  0.2499  0.6436
 5086TIP3    H136749   3.388   0.709  39.717 -0.5529  0.3993  1.5999
 5086TIP3    H236750   3.520   0.784  39.724 -0.1246 -0.0993 -0.5530
 5087TIP3   OH236751   2.959   1.847  34.214  0.1073 -0.4055 -0.5248
 5087TIP3    H136752   2.982   1.895  34.135  1.2992 -1.3449 -0.7880
 5087TIP3    H236753   2.905   1.908  34.265  0.2971  0.6280 -1.5180
 5088TIP3   OH236754   2.749   2.804  35.813  0.2369  0.2229 -0.1897
 5088TIP3    H136755   2.762   2.797  35.719 -0.6612 -1.2291 -0.2359
 5088TIP3    H236756   2.720   2.894  35.827  1.3421  0.7486 -1.1630
 5089TIP3   OH236757   2.138   2.011  29.865  0.2166 -0.1947  0.3515
 5089TIP3    H136758   2.043   2.006  29.856  0.1349  0.5926  0.6980
 5089TIP3    H236759   2.172   1.995  29.776 -0.2616  0.0478  0.1226
 5090TIP3   OH236760   3.400   3.896  41.425 -0.0110  0.6104 -0.3878
 5090TIP3    H136761   3.486   3.938  41.414  0.5695 -0.3641  0.2646
 5090TIP3    H236762   3.341   3.949  41.372  0.7923  1.9317 -0.0299
 5091TIP3   OH236763   0.064   1.550  37.521  0.6649 -0.3077 -0.2564
 5091TIP3    H136764   0.014   1.575  37.443  1.2706  1.9930  0.0205
 5091TIP3    H236765  -0.003   1.534  37.588  0.1934 -1.0654 -0.8870
 5092TIP3   OH236766   1.595   3.675  36.283 -0.2305  0.0800  0.5396
 5092TIP3    H136767   1.541   3.736  36.233  0.2723 -0.0819 -0.2145
 5092TIP3    H236768   1.537   3.642  36.352 -0.6291  1.0817  0.6917
 5093TIP3   OH236769   2.359   4.097  30.809 -0.0625  0.0824  0.4048
 5093TIP3    H136770   2.390   4.073  30.722 -0.9360  2.1147 -0.5190
 5093TIP3    H236771   2.428   4.066  30.868  1.1810 -0.1587 -1.1148
 5094TIP3   OH236772   2.857   2.187   3.693  0.2507  0.2250 -0.4318
 5094TIP3    H136773   2.888   2.232   3.771 -0.6236  1.7935 -0.9381
 5094TIP3    H236774   2.910   2.108   3.687  2.4112  1.5743  0.0582
 5095TIP3   OH236775   3.890   3.834  31.937  0.3498  0.6159  0.1080
 5095TIP3    H136776   3.960   3.893  31.911  2.6475 -1.0311  2.1324
 5095TIP3    H236777   3.902   3.757  31.882 -1.5332  1.2256 -1.2815
 5096TIP3   OH236778   4.191   0.739   8.360 -0.5405 -0.2465 -0.0344
 5096TIP3    H136779   4.163   0.665   8.415  0.1277 -1.3540 -1.1410
 5096TIP3    H236780   4.285   0.727   8.350 -0.4723  0.6174 -0.4462
 5097TIP3   OH236781   0.688   4.251   1.243  0.8017 -0.3990  0.3768
 5097TIP3    H136782   0.691   4.179   1.180  0.3199  0.3841 -0.5674
 5097TIP3    H236783   0.740   4.320   1.203 -0.4554  0.5232  0.3033
 5098TIP3   OH236784   1.307   4.197  18.558  0.5006 -0.3380  0.0159
 5098TIP3    H136785   1.381   4.242  18.598 -0.4200  0.9969  0.2632
 5098TIP3    H236786   1.340   4.169  18.472  1.7190 -1.0454  0.6937
 5099TIP3   OH236787   2.173   2.755   5.751  0.3180 -0.5756  0.3130
 5099TIP3    H136788   2.200   2.663   5.753 -1.1352 -1.0363  0.0765
 5099TIP3    H236789   2.138   2.768   5.662 -1.2050 -0.3508  0.9076
 5100TIP3   OH236790   3.433   2.518   8.654  0.1931  0.6634  0.0680
 5100TIP3    H136791   3.343   2.497   8.630 -0.0994  1.4682  0.4227
 5100TIP3    H236792   3.425   2.583   8.724  1.0472  1.1207 -0.2404
 5101TIP3   OH236793   1.178   3.796   2.196 -0.1135  0.0976 -0.3479
 5101TIP3    H136794   1.238   3.869   2.176  0.0086 -0.3776 -1.8318
 5101TIP3    H236795   1.236   3.724   2.221 -0.2215  0.4050  0.8451
 5102TIP3   OH236796   1.649   2.379   5.541 -0.3044 -0.1356  0.0789
 5102TIP3    H136797   1.655   2.294   5.498 -1.1474  0.6314 -1.6266
 5102TIP3    H236798   1.641   2.358   5.634 -1.6279 -1.9723 -0.3939
 5103TIP3   OH236799   1.349   4.325   6.272 -0.2261  0.2691  0.5233
 5103TIP3    H136800   1.377   4.241   6.235 -0.5699  0.5504 -0.4135
 5103TIP3    H236801   1.424   4.354   6.324  0.9749  0.6106 -1.2677
 5104TIP3   OH236802   1.590   0.545  35.203  0.5754  0.1995 -0.0645
 5104TIP3    H136803   1.625   0.605  35.270  0.1193  1.3330 -0.8092
 5104TIP3    H236804   1.543   0.479  35.253  1.8404 -0.0620  0.8354
 5105TIP3   OH236805   3.821   1.608   6.355  1.0842  0.3391  0.1666
 5105TIP3    H136806   3.785   1.666   6.422  0.2702 -0.1183  0.1317
 5105TIP3    H236807   3.915   1.607   6.373  0.6560 -1.7216  2.8916
 5106TIP3   OH236808   1.542   2.144  39.497  0.1302  0.6566 -0.9456
 5106TIP3    H136809   1.538   2.055  39.533  0.7859  1.1032  0.2765
 5106TIP3    H236810   1.553   2.201  39.573  1.3966  1.6483 -1.8141
 5107TIP3   OH236811   1.107   0.627  30.211 -0.0794  0.0944 -0.2672
 5107TIP3    H136812   1.033   0.607  30.154 -0.0865 -1.4708  0.2419
 5107TIP3    H236813   1.128   0.544  30.252  0.8061  0.8982  0.9709
 5108TIP3   OH236814   4.125   2.891  40.618  0.4166 -0.0730 -0.1231
 5108TIP3    H136815   4.096   2.827  40.553  0.7920 -1.8001  1.3301
 5108TIP3    H236816   4.045   2.938  40.643  0.0358 -0.3388 -0.8405
 5109TIP3   OH236817   1.776   2.568   6.323 -0.1374 -0.2703 -0.0746
 5109TIP3    H136818   1.704   2.525   6.368  0.2969 -0.9152  0.0099
 5109TIP3    H236819   1.838   2.498   6.302  1.1167  0.4498  1.0574
 5110TIP3   OH236820   1.332   1.896   5.074  0.9017  0.7547 -0.1359
 5110TIP3    H136821   1.291   1.817   5.110 -0.8541  0.4068 -2.6321
 5110TIP3    H236822   1.354   1.948   5.151 -0.7754 -0.7708  1.5098
 5111TIP3   OH236823   1.828   1.288   6.953 -0.0535  0.0993 -0.2307
 5111TIP3    H136824   1.875   1.365   6.921 -1.1115  0.2012 -1.6304
 5111TIP3    H236825   1.893   1.241   7.005  0.6195  1.9168  0.6892
 5112TIP3   OH236826   0.665   3.284  27.415 -0.0903 -0.0794  0.0423
 5112TIP3    H136827   0.645   3.305  27.324 -0.7872  0.2273  0.2588
 5112TIP3    H236828   0.755   3.251  27.413 -0.0819 -0.0234 -0.7460
 5113TIP3   OH236829   3.134   1.512  30.473  0.0685  0.3080 -0.1621
 5113TIP3    H136830   3.114   1.577  30.540 -0.4821 -0.2625  0.2379
 5113TIP3    H236831   3.168   1.563  30.400 -0.5113  1.0694  0.0852
 5114TIP3   OH236832   2.523   1.732   2.975  0.1027 -0.5916 -0.4072
 5114TIP3    H136833   2.607   1.714   3.016  0.2402 -0.6217 -0.7054
 5114TIP3    H236834   2.461   1.679   3.025  0.0142  0.6069  0.8136
 5115TIP3   OH236835   4.392   1.232  26.559  0.1375  0.0399 -0.3620
 5115TIP3    H136836   4.349   1.151  26.587 -1.0498  1.4215  2.1157
 5115TIP3    H236837   4.476   1.231  26.606 -0.2983  0.6602  0.4565
 5116TIP3   OH236838   1.393   1.477   4.499  0.0569 -0.4587  0.6536
 5116TIP3    H136839   1.455   1.461   4.429 -1.8962  1.4712 -1.7324
 5116TIP3    H236840   1.405   1.570   4.521 -1.9449 -0.0023  0.0553
 5117TIP3   OH236841   1.342   4.328  37.480 -0.0548  0.1620 -0.4370
 5117TIP3    H136842   1.308   4.281  37.404 -0.6318  1.3247 -0.9218
 5117TIP3    H236843   1.281   4.400  37.493  1.1238  1.1441 -0.0971
 5118TIP3   OH236844   4.235   1.057   9.267 -0.0364 -0.4171  0.0697
 5118TIP3    H136845   4.187   1.017   9.339  1.5779 -1.4871  0.6282
 5118TIP3    H236846   4.208   1.006   9.190 -0.5209 -0.3661  0.2015
 5119TIP3   OH236847   0.496   4.261  23.863  0.1104 -0.0909 -0.5395
 5119TIP3    H136848   0.431   4.329  23.848 -1.1524 -0.9924  0.6011
 5119TIP3    H236849   0.476   4.194  23.798 -0.6363 -0.7093  0.2959
 5120TIP3   OH236850   3.867   2.980  10.078  0.0823  0.3518 -0.2238
 5120TIP3    H136851   3.866   3.012   9.988 -0.8692  2.2787  0.4023
 5120TIP3    H236852   3.956   2.998  10.109 -0.1032  1.3757 -0.2524
 5121TIP3   OH236853   3.759   3.811   7.699 -0.1437 -0.9135 -0.8209
 5121TIP3    H136854   3.774   3.836   7.608  0.7305  1.3964 -0.1162
 5121TIP3    H236855   3.826   3.860   7.748 -2.1792 -0.0847  1.2934
 5122TIP3   OH236856   4.365   2.445  11.354  0.1235  0.2948 -0.2719
 5122TIP3    H136857   4.347   2.538  11.344 -0.9039  0.1200 -0.1845
 5122TIP3    H236858   4.298   2.402  11.300 -0.2687 -0.4305  0.7592
 5123TIP3   OH236859   1.511   0.554   2.523  0.0339 -0.3164  0.4126
 5123TIP3    H136860   1.502   0.556   2.427  3.0183 -1.3811  0.0037
 5123TIP3    H236861   1.516   0.461   2.545  0.1392 -0.0622  1.5147
 5124TIP3   OH236862   2.436   1.712   9.661 -0.1296  0.3962  0.9036
 5124TIP3    H136863   2.477   1.684   9.579 -0.9673 -0.3501  0.7317
 5124TIP3    H236864   2.421   1.631   9.710  0.2375  0.8242  1.7446
 5125TIP3   OH236865   2.460   1.955  37.938  0.6326  0.0864  0.4084
 5125TIP3    H136866   2.413   2.017  37.883 -1.5771 -0.9419  1.0080
 5125TIP3    H236867   2.513   1.902  37.878 -0.7985 -0.2318 -0.5999
 5126TIP3   OH236868   1.003   3.013   0.966 -0.4053 -0.0475 -0.3898
 5126TIP3    H136869   0.982   2.983   1.055  2.0097  1.4005  0.7682
 5126TIP3    H236870   0.919   3.013   0.921 -1.7086 -0.9189  1.8573
 5127TIP3   OH236871   4.243   4.097   0.817  0.5796  0.4918 -0.1129
 5127TIP3    H136872   4.268   4.121   0.728 -1.1752  0.9650 -0.5158
 5127TIP3    H236873   4.163   4.046   0.806  1.4927 -1.3454  1.0791
 5128TIP3   OH236874   4.137   1.528   6.370 -0.3710  0.5558  0.0634
 5128TIP3    H136875   4.215   1.473   6.358 -0.4570  0.3075  0.6114
 5128TIP3    H236876   4.066   1.466   6.382 -0.8111  0.7652 -1.2629
 5129TIP3   OH236877   3.868   2.177   8.680 -0.6124  0.1604  0.2279
 5129TIP3    H136878   3.920   2.218   8.750 -0.7826 -0.8245  0.9469
 5129TIP3    H236879   3.796   2.238   8.666  0.1649  1.0507 -0.0742
 5130TIP3   OH236880   2.881   1.392  11.949 -0.0889 -0.1540  0.6367
 5130TIP3    H136881   2.927   1.355  11.875  0.5274 -1.1354  1.4919
 5130TIP3    H236882   2.796   1.347  11.950 -0.2916  0.2119  0.2510
 5131TIP3   OH236883   0.865   2.292  10.102  0.0133  0.2927  0.3365
 5131TIP3    H136884   0.777   2.283  10.140  0.4156  0.7584  1.4250
 5131TIP3    H236885   0.923   2.298  10.178  0.7585  2.1749 -0.3216
 5132TIP3   OH236886   2.092   1.990   1.291 -0.5343  0.0091  0.4902
 5132TIP3    H136887   2.067   2.082   1.293 -1.4664 -0.1636 -1.3208
 5132TIP3    H236888   2.063   1.956   1.376 -0.3044  1.3336  1.1202
 5133TIP3   OH236889   1.122   3.751  14.134  0.3880 -0.2727  0.5657
 5133TIP3    H136890   1.056   3.690  14.101 -2.0469  1.9865  0.9203
 5133TIP3    H236891   1.103   3.833  14.089  2.1529  0.8190  1.6828
 5134TIP3   OH236892   3.290   1.024  36.992 -0.4338  0.3750 -0.1010
 5134TIP3    H136893   3.275   1.001  37.084 -0.4593 -1.5926 -0.5414
 5134TIP3    H236894   3.202   1.036  36.957 -0.4905 -0.2577 -0.1808
 5135TIP3   OH236895   2.895   3.882  10.114  0.6527 -0.5323 -0.0208
 5135TIP3    H136896   2.953   3.902  10.188 -0.9667  0.2419  1.1049
 5135TIP3    H236897   2.907   3.954  10.053  1.2589 -0.6620 -0.0636
 5136TIP3   OH236898   1.462   2.729  12.317 -0.2821  0.1866 -0.1754
 5136TIP3    H136899   1.512   2.729  12.235 -0.7780  0.9862 -0.4862
 5136TIP3    H236900   1.472   2.818  12.351  0.2585 -0.2492  0.8603
 5137TIP3   OH236901   2.636   1.365   6.488  0.9362 -0.0051 -0.1739
 5137TIP3    H136902   2.601   1.454   6.496  0.4234 -0.2179 -0.0124
 5137TIP3    H236903   2.559   1.309   6.490  1.2923 -0.4887  0.2012
 5138TIP3   OH236904   2.014   3.020  34.629  0.4891  0.5214  0.2089
 5138TIP3    H136905   1.997   3.100  34.679 -0.2676  0.8208 -0.5117
 5138TIP3    H236906   2.110   3.013  34.629  0.5179  0.2599  2.0692
 5139TIP3   OH236907   3.877   2.746   9.124 -0.1124 -0.0812  0.2366
 5139TIP3    H136908   3.936   2.758   9.049 -0.2927 -2.6357 -0.3831
 5139TIP3    H236909   3.936   2.744   9.200  0.4466 -0.9333 -0.2045
 5140TIP3   OH236910   3.955   3.038  12.838  0.5875 -0.5087 -0.6583
 5140TIP3    H136911   3.916   2.963  12.793 -1.2834 -1.4457  2.2355
 5140TIP3    H236912   4.036   3.004  12.876  0.8376 -0.4292 -1.1078
 5141TIP3   OH236913   2.093   4.375  40.773  0.7058 -0.2835 -0.1808
 5141TIP3    H136914   2.130   4.297  40.815 -1.1502 -0.7992  0.6195
 5141TIP3    H236915   2.162   4.440  40.778  1.7686 -1.4140  0.5478
 5142TIP3   OH236916   1.122   3.476  12.306 -0.1423  0.0287 -1.0160
 5142TIP3    H136917   1.156   3.561  12.334 -0.6389 -0.2721  0.5751
 5142TIP3    H236918   1.029   3.479  12.329 -0.1229 -1.0230 -0.7652
 5143TIP3   OH236919   1.211   4.211  11.121 -0.0076  0.2581 -0.0905
 5143TIP3    H136920   1.212   4.134  11.065  1.1749  0.1098  0.1075
 5143TIP3    H236921   1.118   4.224  11.143 -0.1899 -1.3295  0.1904
 5144TIP3   OH236922   4.120   0.812   7.394  0.1521 -0.7131  0.5501
 5144TIP3    H136923   4.127   0.822   7.489  0.9525 -1.5910  0.5986
 5144TIP3    H236924   4.210   0.805   7.364 -0.1167 -1.0812 -0.2027
 5145TIP3   OH236925   2.891   3.468  39.656  0.9816  0.1903  0.4866
 5145TIP3    H136926   2.941   3.444  39.578  0.9255  0.8955  0.2264
 5145TIP3    H236927   2.860   3.557  39.638 -2.4348 -1.0507 -0.3986
 5146TIP3   OH236928   2.207   3.926  40.581  0.2529 -0.1778  0.7865
 5146TIP3    H136929   2.270   3.983  40.624  0.7912 -2.3599  3.1633
 5146TIP3    H236930   2.257   3.881  40.513  0.5117  0.2027  0.7244
 5147TIP3   OH236931   4.163   3.547   8.021 -0.2073 -0.5502  0.4262
 5147TIP3    H136932   4.099   3.580   8.085 -0.7086  2.2329 -1.2985
 5147TIP3    H236933   4.137   3.456   8.006 -3.6571  0.3141  0.0967
 5148TIP3   OH236934   0.216   1.188  31.203  0.2697  0.1904 -0.3815
 5148TIP3    H136935   0.308   1.164  31.209  0.0338 -0.3992  1.2585
 5148TIP3    H236936   0.169   1.121  31.253 -0.8682  1.4099  0.2715
 5149TIP3   OH236937   4.197   1.625  10.887  0.6305  0.0177 -0.0121
 5149TIP3    H136938   4.202   1.684  10.963 -2.6475  0.6468 -0.1555
 5149TIP3    H236939   4.210   1.538  10.924  1.8714  0.5018  0.7846
 5150TIP3   OH236940   3.517   3.490  32.086 -0.0442  0.7615 -0.0996
 5150TIP3    H136941   3.550   3.439  32.160 -0.6166  1.2885  0.5299
 5150TIP3    H236942   3.448   3.435  32.049 -1.1482  1.3551  1.0096
 5151TIP3   OH236943   1.945   0.500  39.022 -0.1179  0.5050  0.9571
 5151TIP3    H136944   1.862   0.546  39.033  0.6289  2.2620 -0.2846
 5151TIP3    H236945   1.925   0.409  39.043 -3.4709 -0.0849 -3.4876
 5152TIP3   OH236946   3.048   1.933   3.983  0.0122  0.1409  0.0298
 5152TIP3    H136947   3.011   2.003   4.037  0.4204  0.9229 -0.6601
 5152TIP3    H236948   3.087   1.980   3.909  3.9153 -0.4036  1.5098
 5153TIP3   OH236949   0.770   3.636  34.836  0.0334 -0.9169  0.0565
 5153TIP3    H136950   0.852   3.637  34.886 -0.4430  0.8713  0.8653
 5153TIP3    H236951   0.707   3.679  34.893 -1.1705 -1.1153 -1.0845
 5154TIP3   OH236952   2.355   3.019  33.389 -0.5670  0.5210 -0.0207
 5154TIP3    H136953   2.381   3.078  33.460 -0.1146  1.4629 -0.9381
 5154TIP3    H236954   2.349   3.076  33.312 -2.2770 -0.2613 -0.4963
 5155TIP3   OH236955   1.325   1.688   0.051  0.6028  0.1957  0.6113
 5155TIP3    H136956   1.299   1.778   0.032  0.0824  0.4321  2.2829
 5155TIP3    H236957   1.420   1.687   0.036  0.5518  0.9126  0.2037
 5156TIP3   OH236958   0.747   2.302  38.571  0.1622  0.3303  0.1599
 5156TIP3    H136959   0.809   2.238  38.537  1.2005  1.7782 -0.8345
 5156TIP3    H236960   0.721   2.352  38.494 -1.6495  0.2680  0.6972
 5157TIP3   OH236961   1.215   1.973  32.913 -0.8927  0.0518 -0.4539
 5157TIP3    H136962   1.230   1.995  32.821 -2.6778 -0.0743 -0.8053
 5157TIP3    H236963   1.301   1.947  32.946 -0.3827 -0.7608 -2.3112
 5158TIP3   OH236964   2.175   2.567  15.641 -0.4550 -0.5840  0.0173
 5158TIP3    H136965   2.158   2.521  15.723 -1.9311 -0.8778 -0.4155
 5158TIP3    H236966   2.202   2.655  15.668 -0.1297 -0.9253  0.8178
 5159TIP3   OH236967   0.475   3.467  25.977 -0.1326  0.1683  0.0162
 5159TIP3    H136968   0.429   3.550  25.987 -1.8878 -0.7287 -0.1232
 5159TIP3    H236969   0.506   3.446  26.065  1.6206  1.6368 -0.2042
 5160TIP3   OH236970   3.594   0.177   5.124  0.4072  0.5946  0.1063
 5160TIP3    H136971   3.530   0.115   5.091 -0.4340  0.1722  2.3343
 5160TIP3    H236972   3.586   0.253   5.067 -0.3918 -0.3468 -1.0855
 5161TIP3   OH236973   4.084   2.766   2.379 -0.7998 -0.4491 -0.3398
 5161TIP3    H136974   4.105   2.679   2.413 -1.4346 -0.5295 -0.1395
 5161TIP3    H236975   4.169   2.808   2.367 -0.5058 -0.9267  0.0146
 5162TIP3   OH236976   2.574   1.652   6.584  0.3378 -0.3238 -0.2704
 5162TIP3    H136977   2.515   1.720   6.617  1.1387 -0.3484  1.2907
 5162TIP3    H236978   2.612   1.690   6.504 -0.0688  0.6061 -0.0343
 5163TIP3   OH236979   0.384   3.347  12.651  0.2829 -0.2946  0.0377
 5163TIP3    H136980   0.409   3.402  12.577  0.7364  1.0767  1.1482
 5163TIP3    H236981   0.298   3.313  12.629  0.2598  0.3804 -0.9581
 5164TIP3   OH236982   0.121   0.631  30.639  0.4360 -0.0066 -0.4865
 5164TIP3    H136983   0.096   0.540  30.630  0.8358 -0.1404 -0.2750
 5164TIP3    H236984   0.096   0.671  30.556 -1.6958  0.1769  0.1863
 5165TIP3   OH236985   1.690   0.150  37.519 -0.1201  0.1745  0.6920
 5165TIP3    H136986   1.756   0.184  37.578  0.5462 -0.1168  0.1209
 5165TIP3    H236987   1.739   0.102  37.453 -0.6974  2.0271 -1.1780
 5166TIP3   OH236988   2.803   2.160  33.934  0.3552 -0.5070 -0.2767
 5166TIP3    H136989   2.772   2.244  33.969  1.0120 -0.4424  0.1730
 5166TIP3    H236990   2.758   2.094  33.986 -0.9837 -0.4756 -1.3320
 5167TIP3   OH236991   3.743   0.827  12.916 -0.3348 -0.1726  0.3867
 5167TIP3    H136992   3.671   0.888  12.898 -1.8101 -2.2354 -1.1843
 5167TIP3    H236993   3.778   0.805  12.830  1.5633  0.0022  1.0708
 5168TIP3   OH236994   2.465   2.141  40.023 -0.7558 -0.3141 -0.0093
 5168TIP3    H136995   2.488   2.064  40.074  0.3059  0.5868  0.9354
 5168TIP3    H236996   2.450   2.108  39.935 -1.0272 -1.6896  0.5283
 5169TIP3   OH236997   2.898   1.383  27.760  0.7091 -0.4315  0.4903
 5169TIP3    H136998   2.953   1.411  27.687 -1.3215  0.5956 -0.7398
 5169TIP3    H236999   2.887   1.461  27.814  0.9242 -0.7751  1.0381
 5170TIP3   OH237000   2.943   1.349  30.589  0.3076  0.1630  0.6868
 5170TIP3    H137001   2.924   1.272  30.535  1.5138  0.4258 -0.1691
 5170TIP3    H237002   3.031   1.375  30.562  1.0609  0.1814  2.9412
 5171TIP3   OH237003   3.490   1.014  32.200  0.5224  0.7708  0.0479
 5171TIP3    H137004   3.443   0.990  32.279 -2.0990  2.6848 -0.7907
 5171TIP3    H237005   3.557   1.076  32.229 -0.9640  2.1170  0.7355
 5172TIP3   OH237006   0.855   4.025  38.993  0.0287 -0.4872  0.0463
 5172TIP3    H137007   0.923   3.972  38.952  0.9544  0.9053 -0.3122
 5172TIP3    H237008   0.824   3.972  39.067  1.6035 -1.1188  0.3014
 5173TIP3   OH237009   2.510   3.781   6.205 -0.3272 -0.0999 -0.0880
 5173TIP3    H137010   2.530   3.821   6.290  0.0053 -0.6179  0.0844
 5173TIP3    H237011   2.593   3.783   6.157 -0.5287  0.2478 -0.4266
 5174TIP3   OH237012   2.510   1.380  27.265 -0.2133  0.5170 -0.1503
 5174TIP3    H137013   2.511   1.286  27.283 -0.1998 -0.1432 -3.1558
 5174TIP3    H237014   2.569   1.417  27.330  2.5358 -2.0301 -0.9719
 5175TIP3   OH237015   3.774   2.900  25.651  0.2884 -0.3613  0.9740
 5175TIP3    H137016   3.706   2.910  25.584 -0.3844 -0.2557  1.6685
 5175TIP3    H237017   3.746   2.957  25.723  1.6414  0.4951  0.8641
 5176TIP3   OH237018   3.631   1.266   6.872  0.0369 -0.1786 -0.3431
 5176TIP3    H137019   3.688   1.190   6.873  0.6152  0.1942 -1.9515
 5176TIP3    H237020   3.686   1.337   6.837 -0.6289  0.8626  0.6319
 5177TIP3   OH237021   2.563   3.247   6.155 -0.5561  0.5879 -0.2368
 5177TIP3    H137022   2.583   3.323   6.209  0.1738  0.8184 -0.8187
 5177TIP3    H237023   2.648   3.207   6.136 -0.9576 -0.7443  0.5742
 5178TIP3   OH237024   3.686   4.375   9.296  1.0228 -0.1221  0.4522
 5178TIP3    H137025   3.768   4.365   9.246 -0.2533  0.7637 -1.9919
 5178TIP3    H237026   3.704   4.446   9.357  1.9101  0.4428 -0.4352
 5179TIP3   OH237027   1.795   1.600  13.980  0.1778  0.1408  0.6524
 5179TIP3    H137028   1.869   1.593  14.041  1.4877 -1.2292 -1.0031
 5179TIP3    H237029   1.785   1.694  13.965 -1.3690  0.7124  4.2502
 5180TIP3   OH237030   0.437   2.793  30.351 -0.2529  0.1035  0.7316
 5180TIP3    H137031   0.434   2.711  30.302 -0.8236 -0.4355  1.6389
 5180TIP3    H237032   0.524   2.793  30.392  0.6789  1.0968 -1.1307
 5181TIP3   OH237033   0.234   2.886   9.995  0.0430  0.0113  0.6077
 5181TIP3    H137034   0.188   2.804  10.013  0.4296 -0.7270 -1.4589
 5181TIP3    H237035   0.317   2.858   9.957 -1.0645  1.2838 -3.1319
 5182TIP3   OH237036   1.481   2.693  32.795 -0.0771 -0.1298  0.0966
 5182TIP3    H137037   1.432   2.772  32.775  0.4413  0.1033 -0.2671
 5182TIP3    H237038   1.534   2.716  32.871  0.8516  0.2119 -0.6360
 5183TIP3   OH237039   3.585   1.932  41.199 -0.3569  0.0549 -0.2584
 5183TIP3    H137040   3.608   1.849  41.159  0.1786  0.9044 -1.8017
 5183TIP3    H237041   3.620   1.927  41.288  0.1648 -1.1317 -0.5155
 5184TIP3   OH237042   3.125   1.503  10.133 -0.2903  0.3986  0.5370
 5184TIP3    H137043   3.076   1.454  10.067 -1.3825  1.0275  0.8646
 5184TIP3    H237044   3.216   1.478  10.118 -0.6515 -0.4310 -0.3895
 5185TIP3   OH237045   4.315   2.398  32.732  0.1309  0.2623 -0.5745
 5185TIP3    H137046   4.237   2.417  32.680 -1.0020  0.6636  1.1446
 5185TIP3    H237047   4.304   2.306  32.757 -0.6125  0.7020  0.8672
 5186TIP3   OH237048   2.167   4.151   1.510  0.1993  0.4870 -0.0432
 5186TIP3    H137049   2.147   4.065   1.547  0.3244  0.3357 -0.3142
 5186TIP3    H237050   2.223   4.131   1.435 -0.8335  0.7137 -0.8988
 5187TIP3   OH237051   1.498   0.806   1.672  0.3776 -0.1878  0.5305
 5187TIP3    H137052   1.507   0.891   1.716 -2.2603 -0.0402  0.9611
 5187TIP3    H237053   1.419   0.768   1.711  1.2947 -2.7199  0.0983
 5188TIP3   OH237054   2.337   4.170   5.524 -0.5607 -0.4274 -0.3051
 5188TIP3    H137055   2.304   4.174   5.434 -0.5528  1.5639 -0.2651
 5188TIP3    H237056   2.267   4.208   5.577 -0.3953 -1.2031  0.4931
 5189TIP3   OH237057   2.566   0.388   8.600  0.1377 -0.3051  0.4578
 5189TIP3    H137058   2.559   0.298   8.568 -2.4090  0.1608 -0.5601
 5189TIP3    H237059   2.560   0.380   8.695 -2.6701 -1.1586  0.3095
 5190TIP3   OH237060   0.511   1.340  38.131 -0.4983  0.2025  0.3147
 5190TIP3    H137061   0.598   1.302  38.145 -0.2020  0.4033 -0.8169
 5190TIP3    H237062   0.529   1.427  38.095 -1.1037 -0.6835 -2.3617
 5191TIP3   OH237063   0.009   3.936  25.977  0.5754  0.5413  0.3816
 5191TIP3    H137064   0.069   3.862  25.985 -0.8909 -0.5517  2.0639
 5191TIP3    H237065  -0.051   3.910  25.907  0.0712  0.0874  0.9601
 5192TIP3   OH237066   0.659   3.219  11.238 -0.1228  0.0778  0.5074
 5192TIP3    H137067   0.731   3.179  11.287 -1.8786 -1.5916  1.8799
 5192TIP3    H237068   0.667   3.184  11.150  0.0339 -1.1007  0.9749
 5193TIP3   OH237069   3.707   0.915   1.819  0.4150  0.1316  0.1784
 5193TIP3    H137070   3.718   0.911   1.914 -0.0056  0.4249  0.2396
 5193TIP3    H237071   3.618   0.885   1.803 -0.1862  1.9094  0.0352
 5194TIP3   OH237072   1.246   2.145  39.633  0.5190  0.5186 -0.1445
 5194TIP3    H137073   1.277   2.173  39.547  0.5234  2.4426  0.4306
 5194TIP3    H237074   1.231   2.227  39.681  0.0800 -0.4919  1.5315
 5195TIP3   OH237075   0.680   2.119  37.183  0.0784 -0.1079  0.6048
 5195TIP3    H137076   0.670   2.178  37.257 -1.1758  1.0502 -0.4258
 5195TIP3    H237077   0.774   2.114  37.167  0.2046  1.8013  0.5853
 5196TIP3   OH237078   4.261   2.086   1.806  0.2195  0.1244 -0.3374
 5196TIP3    H137079   4.282   2.160   1.748 -2.3216 -0.2625 -1.9154
 5196TIP3    H237080   4.166   2.078   1.800  0.4724 -4.3598 -1.6790
 5197TIP3   OH237081   3.512   0.472  32.000  0.0949 -0.5390  0.0116
 5197TIP3    H137082   3.543   0.477  31.910 -0.0371 -2.1111 -0.1559
 5197TIP3    H237083   3.580   0.424  32.047  0.6079  1.0829  0.9931
 5198TIP3   OH237084   1.337   2.429  41.385 -0.2875  0.2446 -0.4424
 5198TIP3    H137085   1.374   2.517  41.386  1.8037 -0.5778 -0.5157
 5198TIP3    H237086   1.344   2.401  41.294  1.2580 -0.8294 -0.0323
 5199TIP3   OH237087   1.603   4.087  31.714 -0.7472  0.4283 -0.0435
 5199TIP3    H137088   1.695   4.058  31.712 -1.8333 -3.9465 -3.6618
 5199TIP3    H237089   1.587   4.118  31.625 -3.2396 -1.1292 -0.2213
 5200TIP3   OH237090   0.777   3.734  15.016 -0.2877 -0.4979 -0.5964
 5200TIP3    H137091   0.683   3.724  15.024 -0.6214  0.7230 -2.3309
 5200TIP3    H237092   0.810   3.730  15.105 -2.0112 -0.6735  0.0592
 5201TIP3   OH237093   2.990   0.749  37.107 -0.2521  0.4371 -0.0034
 5201TIP3    H137094   2.909   0.702  37.083  0.4960 -0.7211 -0.3768
 5201TIP3    H237095   3.059   0.683  37.096  0.7200  1.3532  0.4987
 5202TIP3   OH237096   0.959   1.799  11.573 -0.1749 -0.0516  0.5480
 5202TIP3    H137097   0.905   1.720  11.575  0.2450 -0.7187 -3.9652
 5202TIP3    H237098   1.035   1.778  11.628  0.1903 -3.1060 -0.9362
 5203TIP3   OH237099   2.970   1.055  32.298 -0.7370 -0.5364  0.1582
 5203TIP3    H137100   2.909   0.981  32.300 -0.4472 -0.7769  0.1591
 5203TIP3    H237101   3.021   1.042  32.218 -1.0892 -0.0094 -0.1603
 5204TIP3   OH237102   4.368   1.967  39.615 -0.2526 -0.0453  0.7649
 5204TIP3    H137103   4.459   1.976  39.585 -0.8927 -1.4039 -1.9026
 5204TIP3    H237104   4.318   2.026  39.558 -1.1727  0.1792  1.7596
 5205TIP3   OH237105   4.189   2.958  10.466 -0.2753  0.1676  0.2249
 5205TIP3    H137106   4.236   2.988  10.544  1.0274  0.9503 -0.8100
 5205TIP3    H237107   4.256   2.956  10.398 -1.7024  1.1223 -1.2735
 5206TIP3   OH237108   3.019   1.699  34.462 -0.0673 -0.3179 -0.0453
 5206TIP3    H137109   3.100   1.698  34.513 -0.0276  0.4579 -0.0888
 5206TIP3    H237110   3.039   1.755  34.387 -0.6987  0.0168  0.0330
 5207TIP3   OH237111   1.252   3.493   9.976  0.0781 -0.2352  0.2523
 5207TIP3    H137112   1.322   3.545  10.015 -0.6624 -0.0791  1.4177
 5207TIP3    H237113   1.203   3.555   9.922  1.1616 -0.4710 -1.0379
 5208TIP3   OH237114   2.779   4.289  29.639  0.3829  1.2013 -0.0618
 5208TIP3    H137115   2.799   4.286  29.545  1.1826  0.8890  0.1138
 5208TIP3    H237116   2.697   4.241  29.647  0.4810  0.9422 -0.5594
 5209TIP3   OH237117   0.703   3.221  13.362  0.0224  0.6674  0.1909
 5209TIP3    H137118   0.664   3.153  13.307 -0.3358  1.4655 -0.5689
 5209TIP3    H237119   0.640   3.233  13.433  0.5027 -0.3891  0.8104
 5210TIP3   OH237120   2.697   2.607   8.919 -0.1311  0.1309 -0.1854
 5210TIP3    H137121   2.770   2.669   8.921 -0.7023  0.8016  1.3040
 5210TIP3    H237122   2.660   2.617   8.832 -1.2863  3.2455  0.5377
 5211TIP3   OH237123   1.672   1.980  41.135  0.3900 -0.7491 -0.0099
 5211TIP3    H137124   1.590   1.976  41.185 -0.3247  1.8236 -0.8329
 5211TIP3    H237125   1.651   1.934  41.053 -0.0618 -0.5474 -0.0123
 5212TIP3   OH237126   1.118   3.741   0.249  0.1768  0.0037 -0.5835
 5212TIP3    H137127   1.075   3.825   0.235  0.3850  0.7012  2.2599
 5212TIP3    H237128   1.046   3.677   0.250 -0.0903  0.2590 -1.7280
 5213TIP3   OH237129   1.507   1.955   1.679 -0.5859  0.7826 -0.1324
 5213TIP3    H137130   1.572   1.986   1.616  0.8577 -2.2587 -0.3352
 5213TIP3    H237131   1.424   1.958   1.631  0.1055  0.7551 -1.3833
 5214TIP3   OH237132   2.945   3.084  39.398 -0.2309  0.3071 -0.2320
 5214TIP3    H137133   2.852   3.068  39.384  0.0728 -0.2602 -1.8102
 5214TIP3    H237134   2.952   3.109  39.490 -2.3167  3.1500 -0.6990
 5215TIP3   OH237135   1.295   1.075  35.332  0.0426  0.0495 -0.6911
 5215TIP3    H137136   1.343   1.072  35.415 -1.1567  1.0361  0.0818
 5215TIP3    H237137   1.280   0.983  35.310  1.8106 -0.2572 -0.6934
 5216TIP3   OH237138   3.358   4.105  37.793 -0.9924  0.5705 -0.0857
 5216TIP3    H137139   3.327   4.060  37.872  0.5751  1.6224  1.1815
 5216TIP3    H237140   3.388   4.034  37.736 -1.5643 -0.1688  0.4990
 5217TIP3   OH237141   0.961   1.646  10.028  0.3826  0.2542 -0.0096
 5217TIP3    H137142   0.963   1.571  10.087  3.0606 -1.0327 -1.4898
 5217TIP3    H237143   0.881   1.635   9.977  0.1694 -0.9703  0.5651
 5218TIP3   OH237144   3.564   2.723   0.506 -0.1902  0.3453 -0.1398
 5218TIP3    H137145   3.646   2.756   0.542  0.1414  0.4088 -0.9272
 5218TIP3    H237146   3.547   2.778   0.429 -1.2709  0.7016  0.3344
 5219TIP3   OH237147   0.498   1.678  36.772  0.3886 -0.5103 -0.0759
 5219TIP3    H137148   0.427   1.668  36.708 -0.1214 -0.2402  0.4334
 5219TIP3    H237149   0.453   1.680  36.857  0.8703  1.1981  0.1773
 5220TIP3   OH237150   0.347   1.460  12.604 -0.6481 -0.1802 -0.3126
 5220TIP3    H137151   0.428   1.511  12.601 -1.9686  2.0433 -0.4926
 5220TIP3    H237152   0.331   1.445  12.698 -0.6472  0.4448 -0.2105
 5221TIP3   OH237153   2.561   0.452  33.622 -0.6717  0.0304 -0.5429
 5221TIP3    H137154   2.513   0.395  33.683 -0.0057  1.1844  1.1369
 5221TIP3    H237155   2.653   0.428  33.635 -0.4300  1.1072 -0.1916
 5222TIP3   OH237156   4.181   1.871  31.285 -0.0159  0.2566  0.2281
 5222TIP3    H137157   4.098   1.911  31.259 -0.1924 -0.6927 -0.7665
 5222TIP3    H237158   4.236   1.945  31.310 -0.5713  1.0657 -0.8279
 5223TIP3   OH237159   2.399   1.871  33.213  0.3313 -0.5762 -0.3020
 5223TIP3    H137160   2.331   1.925  33.174  0.4078  0.4514  0.9132
 5223TIP3    H237161   2.366   1.781  33.207 -2.2512  0.0489  2.2719
 5224TIP3   OH237162   1.347   0.299  36.634 -0.4718 -0.3399  0.3014
 5224TIP3    H137163   1.330   0.278  36.726 -1.4367  0.3170  0.2859
 5224TIP3    H237164   1.335   0.217  36.587 -2.3929 -0.1835  0.4701
 5225TIP3   OH237165   3.525   2.049  29.054  0.2195 -0.3427 -0.1980
 5225TIP3    H137166   3.474   2.038  29.134  1.9519 -1.6379  0.7905
 5225TIP3    H237167   3.509   2.139  29.028  0.2532  0.3838  2.0877
 5226TIP3   OH237168   0.423   4.282   6.792  0.1685  0.5902 -0.4190
 5226TIP3    H137169   0.429   4.233   6.874 -2.5291  0.3166 -0.2969
 5226TIP3    H237170   0.458   4.223   6.726  1.0440  0.2612  0.3170
 5227TIP3   OH237171   2.767   0.333   7.819  0.1650 -0.1805  0.0090
 5227TIP3    H137172   2.757   0.401   7.753  1.7896 -1.5571 -1.7628
 5227TIP3    H237173   2.765   0.251   7.770 -0.8643 -1.3980  1.9663
 5228TIP3   OH237174   1.705   1.820   0.378  0.1942 -0.1778 -0.2095
 5228TIP3    H137175   1.665   1.733   0.383 -0.9890  0.3469 -0.1884
 5228TIP3    H237176   1.659   1.863   0.306  1.6008  0.0402 -1.0340
 5229TIP3   OH237177   0.173   0.797  38.082 -0.5093  0.2833  0.1618
 5229TIP3    H137178   0.236   0.799  38.154 -0.3872  2.0658  0.0389
 5229TIP3    H237179   0.169   0.705  38.057  0.7998 -0.1074  1.2542
 5230TIP3   OH237180   1.787   1.065  29.922 -0.7156 -0.2959  0.2939
 5230TIP3    H137181   1.866   1.034  29.878  0.1659 -0.6365  2.0335
 5230TIP3    H237182   1.737   1.109  29.853  2.0018  1.8870 -0.4965
 5231TIP3   OH237183   0.016   0.114   2.065 -0.3673 -0.1976 -0.1013
 5231TIP3    H137184   0.012   0.024   2.097  1.2989 -0.1113  0.4538
 5231TIP3    H237185  -0.074   0.135   2.039 -0.8120 -1.9476 -0.0741
 5232TIP3   OH237186   2.670   2.046  28.982 -0.4526 -0.8759 -0.3839
 5232TIP3    H137187   2.760   2.068  28.959 -0.3766 -0.2227  0.4730
 5232TIP3    H237188   2.672   1.952  29.000 -0.0690 -0.9721 -0.9142
 5233TIP3   OH237189   3.454   0.546  40.354  0.5867 -0.0225 -0.4166
 5233TIP3    H137190   3.408   0.515  40.433 -1.8720 -2.4756 -2.6094
 5233TIP3    H237191   3.532   0.492  40.348 -0.2096 -1.1956 -0.6043
 5234TIP3   OH237192   1.655   1.392  10.734  0.1719 -0.0687 -0.1346
 5234TIP3    H137193   1.581   1.350  10.778 -0.3928  0.4031 -0.6149
 5234TIP3    H237194   1.703   1.320  10.693  1.8422 -0.7948  2.8062
 5235TIP3   OH237195   1.063   4.184  28.034 -0.6748  0.2048  0.4087
 5235TIP3    H137196   0.994   4.145  27.980 -0.5587  0.0042  0.4015
 5235TIP3    H237197   1.055   4.278  28.021 -0.7773  0.1664  0.1998
 5236TIP3   OH237198   1.756   2.063   2.269  0.1101 -0.1140 -0.3345
 5236TIP3    H137199   1.681   2.085   2.214  1.4356 -0.2742 -2.3019
 5236TIP3    H237200   1.759   1.967   2.268 -0.2448 -0.1476  0.6164
 5237TIP3   OH237201   3.985   2.253   6.647  0.3021 -0.8359  0.2322
 5237TIP3    H137202   4.023   2.178   6.692  2.0406  0.3890  0.9332
 5237TIP3    H237203   3.998   2.326   6.708  0.1988  0.3433 -1.1139
 5238TIP3   OH237204   0.228   3.274  24.823  0.2468  0.0637 -0.2961
 5238TIP3    H137205   0.246   3.307  24.911  1.1020 -2.1481  0.4148
 5238TIP3    H237206   0.135   3.254  24.824  0.2194  0.1953  0.0583
 5239TIP3   OH237207   3.818   0.324  31.452  0.7139  0.1273  0.1317
 5239TIP3    H137208   3.791   0.393  31.392  0.9886 -0.5566 -0.8093
 5239TIP3    H237209   3.902   0.353  31.488 -0.1645  1.2469  1.3879
 5240TIP3   OH237210   3.863   0.086  25.501  0.1984 -0.2509 -0.5199
 5240TIP3    H137211   3.823   0.169  25.527  0.7117 -0.3741  0.7380
 5240TIP3    H237212   3.830   0.070  25.413 -1.8377  0.0916  0.1140
 5241TIP3   OH237213   3.015   4.112  10.804  0.4886  0.7991  0.2680
 5241TIP3    H137214   3.088   4.054  10.783 -0.2546 -0.2674  0.5038
 5241TIP3    H237215   3.020   4.123  10.899 -0.0409  0.1593  0.3792
 5242TIP3   OH237216   2.823   0.032  40.854  0.4731 -0.5007 -0.1306
 5242TIP3    H137217   2.761   0.104  40.858 -1.5428 -1.8768 -2.7638
 5242TIP3    H237218   2.833   0.003  40.945 -0.5047  1.5475  0.6895
 5243TIP3   OH237219   0.678   2.209  29.913 -0.9430  0.1632 -0.3081
 5243TIP3    H137220   0.607   2.263  29.876 -0.8019  0.1384 -0.6155
 5243TIP3    H237221   0.748   2.271  29.933 -0.5008  0.0114 -1.3304
 5244TIP3   OH237222   0.705   3.826  39.153  0.2194  0.9658  0.0765
 5244TIP3    H137223   0.789   3.786  39.173 -0.9543 -1.8484 -0.2727
 5244TIP3    H237224   0.677   3.865  39.236  0.6069 -0.5474  0.9539
 5245TIP3   OH237225   2.203   2.768  33.240  0.3789 -0.3720 -0.2103
 5245TIP3    H137226   2.177   2.690  33.289  0.6599 -0.8948 -0.8756
 5245TIP3    H237227   2.152   2.839  33.278 -2.5249 -1.4206 -1.8583
 5246TIP3   OH237228   3.471   2.238  11.030  0.0425 -0.6232 -0.3873
 5246TIP3    H137229   3.504   2.263  11.116 -0.1803  1.1610 -0.7817
 5246TIP3    H237230   3.511   2.153  11.012  1.1499 -0.3996  0.8891
 5247TIP3   OH237231   2.972   1.186  10.179 -0.1769 -0.7344 -0.0609
 5247TIP3    H137232   3.042   1.121  10.168  2.0519  1.3054  1.0929
 5247TIP3    H237233   2.979   1.242  10.102 -1.0692 -0.9161 -0.2889
 5248TIP3   OH237234   2.297   3.244   3.638  0.4711  0.1521  0.1438
 5248TIP3    H137235   2.244   3.250   3.558 -0.4061 -0.3576  0.6669
 5248TIP3    H237236   2.368   3.306   3.624 -0.3359  0.9550 -0.5413
 5249TIP3   OH237237   2.277   4.373   8.168  0.1205 -0.5319 -0.3905
 5249TIP3    H137238   2.366   4.337   8.173  0.6889  0.9723  2.0288
 5249TIP3    H237239   2.289   4.460   8.130 -0.4566 -0.6613 -0.8810
 5250TIP3   OH237240   4.237   1.562  41.100  0.0256  0.3987  0.9457
 5250TIP3    H137241   4.190   1.499  41.154  1.0393 -2.0759 -0.8484
 5250TIP3    H237242   4.330   1.540  41.112  0.2962 -2.5311 -3.9563
 5251TIP3   OH237243   1.116   0.238  33.804  0.3979 -0.0442  0.4395
 5251TIP3    H137244   1.111   0.143  33.793  0.9424 -0.1436  0.9725
 5251TIP3    H237245   1.030   0.262  33.840  0.2649 -0.3377  0.3217
 5252TIP3   OH237246   4.097   1.077  32.729  0.0495  0.6632  0.4860
 5252TIP3    H137247   4.118   1.045  32.816 -0.9242  0.6271  0.7208
 5252TIP3    H237248   4.016   1.127  32.740 -1.8714 -1.9214 -0.8682
 5253TIP3   OH237249   3.832   1.682   1.519 -0.0167  0.2447  0.7064
 5253TIP3    H137250   3.739   1.683   1.497 -0.5672  3.3784  2.5391
 5253TIP3    H237251   3.877   1.692   1.435 -1.5522  2.6934  0.0930
 5254TIP3   OH237252   2.471   2.136  29.326  0.1696  0.1534  0.0794
 5254TIP3    H137253   2.472   2.042  29.340  1.6121  0.2832  1.1151
 5254TIP3    H237254   2.415   2.171  29.395  1.1717  0.1831  0.9017
 5255TIP3   OH237255   1.581   3.013   6.709 -0.2732  0.5258 -0.5827
 5255TIP3    H137256   1.594   3.018   6.615 -0.1912 -1.0580 -0.6853
 5255TIP3    H237257   1.559   2.921   6.726  1.7175  0.2605  1.1406
 5256TIP3   OH237258   3.962   4.012  20.859  0.4771  0.0888 -0.5132
 5256TIP3    H137259   3.906   4.088  20.844 -0.8482 -0.6479  0.4433
 5256TIP3    H237260   4.001   4.027  20.945 -1.6767 -1.3403  0.8169
 5257TIP3   OH237261   3.413   0.065  40.242  0.5623 -0.7638  0.4852
 5257TIP3    H137262   3.374  -0.022  40.243 -1.3386  0.0251 -0.3628
 5257TIP3    H237263   3.413   0.092  40.334 -0.9538 -0.7991  0.5212
 5258TIP3   OH237264   0.954   3.809   1.649  0.0771  0.9601 -0.6256
 5258TIP3    H137265   1.025   3.861   1.687  1.0541 -0.3823 -0.5266
 5258TIP3    H237266   0.976   3.805   1.556 -0.6333  1.6763 -0.8326
 5259TIP3   OH237267   4.387   2.494  40.842 -0.2571  0.1415  0.1293
 5259TIP3    H137268   4.393   2.401  40.867 -1.6499  0.2477  0.9155
 5259TIP3    H237269   4.323   2.495  40.770 -1.1733  0.6216  0.9319
 5260TIP3   OH237270   1.345   4.350   6.835 -0.4770  0.5925  0.2086
 5260TIP3    H137271   1.323   4.433   6.793 -0.7446  0.1611 -0.5298
 5260TIP3    H237272   1.339   4.368   6.929  1.1963  1.8686  0.1164
 5261TIP3   OH237273   3.778   0.978   9.286  0.0130  0.3700 -0.3886
 5261TIP3    H137274   3.832   0.917   9.235 -1.7631  0.1941 -2.1656
 5261TIP3    H237275   3.740   0.924   9.355  1.1062  0.2418  0.1386
 5262TIP3   OH237276   3.518   4.288   5.317 -0.1945 -0.2947 -0.6570
 5262TIP3    H137277   3.542   4.304   5.409 -0.3640 -1.5746 -0.3661
 5262TIP3    H237278   3.433   4.331   5.307  0.8568  1.8296 -0.8915
 5263TIP3   OH237279   3.221   1.925   8.046  0.0161  0.0568  0.0021
 5263TIP3    H137280   3.223   1.956   8.136 -1.5217 -1.4536  0.6101
 5263TIP3    H237281   3.310   1.893   8.030  0.8234  1.9584  0.3138
 5264TIP3   OH237282   0.279   3.282   7.295 -0.3232  0.2079 -0.5632
 5264TIP3    H137283   0.315   3.202   7.255 -0.6846 -0.1046 -0.2709
 5264TIP3    H237284   0.351   3.317   7.348  0.1151  0.5468 -1.3656
 5265TIP3   OH237285   1.052   3.558   6.593 -0.3122 -0.1751 -0.3338
 5265TIP3    H137286   1.102   3.623   6.544  0.8902 -0.1609  0.8623
 5265TIP3    H237287   1.007   3.608   6.661 -1.3865 -0.2910 -0.9307
 5266TIP3   OH237288   3.915   3.662  34.779 -0.6969  0.2090 -0.0615
 5266TIP3    H137289   3.830   3.693  34.747 -2.5711 -3.1907  1.1492
 5266TIP3    H237290   3.896   3.578  34.821  3.6632 -2.1511 -2.0968
 5267TIP3   OH237291   0.970   3.160  38.558 -0.2261  0.5302 -0.2212
 5267TIP3    H137292   0.979   3.248  38.522  1.7812 -0.0328 -1.2000
 5267TIP3    H237293   0.990   3.171  38.651 -1.4499  1.3138 -0.0175
 5268TIP3   OH237294   0.802   1.039  34.563 -0.3233  0.1024 -0.2010
 5268TIP3    H137295   0.734   1.104  34.546 -0.8982 -0.4331  0.0422
 5268TIP3    H237296   0.759   0.972  34.616  0.0282 -0.9278 -1.1793
 5269TIP3   OH237297   3.525   3.564  27.715  0.2337  0.4118  0.2918
 5269TIP3    H137298   3.483   3.537  27.633 -1.8226 -1.9853  1.9797
 5269TIP3    H237299   3.613   3.591  27.689  1.2573 -4.2809 -2.3831
 5270TIP3   OH237300   0.861   3.802   5.589 -0.6176  0.4507  0.0132
 5270TIP3    H137301   0.777   3.801   5.544  0.0720 -0.3975 -1.3233
 5270TIP3    H237302   0.903   3.883   5.560 -1.0040  0.9454  0.7912
 5271TIP3   OH237303   0.114   3.130   8.901 -0.0501  0.4816  0.1826
 5271TIP3    H137304   0.150   3.118   8.813 -0.2720 -0.7986  0.2489
 5271TIP3    H237305   0.153   3.212   8.932  1.5824 -0.0434 -0.3534
 5272TIP3   OH237306   4.047   1.852  39.435  0.3773  0.5150  0.0962
 5272TIP3    H137307   3.978   1.904  39.477  0.7114  0.6511  0.4712
 5272TIP3    H237308   4.098   1.816  39.507  0.1079 -0.4054 -0.1533
 5273TIP3   OH237309   1.794   2.371   8.314 -0.3647 -0.1582  0.3483
 5273TIP3    H137310   1.718   2.409   8.271 -1.1027 -0.9947  0.8650
 5273TIP3    H237311   1.764   2.284   8.343  0.6825 -0.3699  0.8464
 5274TIP3   OH237312   0.311   3.841   3.271  0.2433 -0.3667  0.2971
 5274TIP3    H137313   0.375   3.813   3.205  0.1625  0.2981 -0.0709
 5274TIP3    H237314   0.348   3.922   3.307 -0.2472 -0.1342  0.2873
 5275TIP3   OH237315   1.195   0.640  41.499 -0.1538 -0.2996  0.9289
 5275TIP3    H137316   1.182   0.601  41.585 -0.4743  0.6544  1.3185
 5275TIP3    H237317   1.290   0.643  41.489 -0.1148 -1.4211  0.7632
 5276TIP3   OH237318   2.227   0.424  38.966 -0.3565 -0.3861  0.2441
 5276TIP3    H137319   2.214   0.477  39.044  1.4265 -0.3220  0.5300
 5276TIP3    H237320   2.213   0.334  38.996  0.6238 -0.3876  0.7221
 5277TIP3   OH237321   0.753   1.286   0.948 -0.1844  0.3686 -0.1561
 5277TIP3    H137322   0.683   1.245   0.898 -0.4419 -0.2259  0.6650
 5277TIP3    H237323   0.773   1.222   1.017  0.8327  0.7384 -0.0958
 5278TIP3   OH237324   0.690   1.126  41.534 -0.0610  0.0294 -0.4416
 5278TIP3    H137325   0.742   1.174  41.469 -0.5340  0.1407 -0.7486
 5278TIP3    H237326   0.754   1.079  41.587  0.2988 -0.8410 -1.6044
 5279TIP3   OH237327   0.447   2.090  33.942 -0.0466 -0.7108  0.0719
 5279TIP3    H137328   0.375   2.047  33.989 -0.4400  0.1058  0.2318
 5279TIP3    H237329   0.405   2.164  33.898  0.8794  0.4455  1.0787
 5280TIP3   OH237330   2.525   2.857   2.234  0.0544  0.3660  0.1244
 5280TIP3    H137331   2.526   2.951   2.216  2.4437  0.4487  0.3752
 5280TIP3    H237332   2.600   2.843   2.291 -0.4827 -1.6552  0.4017
 5281TIP3   OH237333   0.183   0.479   5.490  0.4491  0.7489  0.5958
 5281TIP3    H137334   0.258   0.538   5.496 -0.6747  2.1589  1.5328
 5281TIP3    H237335   0.113   0.533   5.452 -0.3853 -0.2374  0.6830
 5282TIP3   OH237336   1.944   3.289  29.972  0.1734  0.0071 -0.3304
 5282TIP3    H137337   1.951   3.199  30.003 -0.6753  0.2782  0.6879
 5282TIP3    H237338   1.950   3.281  29.876 -1.6604 -1.3375 -0.3894
 5283TIP3   OH237339   3.612   0.613  10.718 -0.4295 -0.1437 -0.1805
 5283TIP3    H137340   3.584   0.651  10.635  2.1156  0.1742 -0.9704
 5283TIP3    H237341   3.679   0.549  10.695  1.0923  0.6779  1.6402
 5284TIP3   OH237342   2.783   3.803  30.372  0.3436 -0.5234  0.3527
 5284TIP3    H137343   2.743   3.788  30.457 -0.9256 -0.6214 -0.2294
 5284TIP3    H237344   2.753   3.729  30.318  1.3665 -0.6283 -0.1018
 5285TIP3   OH237345   0.692   4.322  34.391 -0.1152 -0.0439 -0.1851
 5285TIP3    H137346   0.622   4.292  34.332  0.5759 -1.4984 -0.3183
 5285TIP3    H237347   0.760   4.355  34.333  0.0226 -0.2585 -0.1469
 5286TIP3   OH237348   3.877   3.406  25.237  0.1272  0.0714  0.3338
 5286TIP3    H137349   3.834   3.428  25.320  2.0974 -1.0737  1.7279
 5286TIP3    H237350   3.957   3.360  25.263  1.3153  0.5770 -2.1974
 5287TIP3   OH237351   4.324   2.714  11.367 -0.2071 -0.4746  0.8764
 5287TIP3    H137352   4.248   2.715  11.426 -1.4912 -0.5948 -0.6989
 5287TIP3    H237353   4.400   2.714  11.425 -1.4117 -1.4303  2.5325
 5288TIP3   OH237354   0.128   0.143   2.512 -0.4270  0.4389  0.0961
 5288TIP3    H137355   0.116   0.220   2.456 -0.7090 -0.3137 -0.9146
 5288TIP3    H237356   0.204   0.099   2.475 -1.0562 -0.4564 -0.1485
 5289TIP3   OH237357   1.643   1.401  11.369  0.5007  0.0192 -0.0000
 5289TIP3    H137358   1.644   1.496  11.358  0.5467  0.1921  1.3571
 5289TIP3    H237359   1.681   1.386  11.456 -0.6196 -1.1482  0.3218
 5290TIP3   OH237360   0.537   4.402  10.149 -0.2998 -0.0503  0.7721
 5290TIP3    H137361   0.457   4.390  10.199 -0.7605 -1.0680 -0.1539
 5290TIP3    H237362   0.512   4.458  10.076 -0.8528 -2.3283 -0.9036
 5291TIP3   OH237363   0.030   0.850  41.155 -0.6392  0.2901 -0.0010
 5291TIP3    H137364  -0.042   0.787  41.151  0.9800 -1.6704 -0.0300
 5291TIP3    H237365   0.065   0.839  41.243 -1.2505  2.3152  0.5406
 5292TIP3   OH237366   0.306   0.951  40.942  0.2388 -0.1066  0.0013
 5292TIP3    H137367   0.323   0.861  40.969  0.5998  0.2377  0.9865
 5292TIP3    H237368   0.390   0.981  40.906  0.8307  0.5384  1.7954
 5293TIP3   OH237369   1.140   3.202   0.496 -0.8378 -0.5942  0.4120
 5293TIP3    H137370   1.069   3.151   0.535 -0.6831 -1.1321  0.0107
 5293TIP3    H237371   1.105   3.291   0.490 -1.4947 -0.8550  0.1971
 5294TIP3   OH237372   0.667   2.789   0.206  0.0574  0.0257  0.1712
 5294TIP3    H137373   0.589   2.754   0.163  0.0308 -0.1969  0.3982
 5294TIP3    H237374   0.740   2.755   0.155 -0.0240  1.3226 -0.8562
 5295TIP3   OH237375   2.561   3.189   7.640  0.0014 -0.5758  0.2790
 5295TIP3    H137376   2.596   3.100   7.640 -0.2004 -0.6704 -0.5138
 5295TIP3    H237377   2.526   3.200   7.551  1.0409  0.6925 -0.0067
 5296TIP3   OH237378   2.890   1.230   5.850  0.0391  0.3344 -0.2958
 5296TIP3    H137379   2.958   1.283   5.809 -0.9072  0.1019 -2.2958
 5296TIP3    H237380   2.815   1.237   5.791 -1.4529 -0.0315  1.4347
 5297TIP3   OH237381   0.624   1.505  38.460  0.3097  0.0877 -0.2599
 5297TIP3    H137382   0.566   1.486  38.386 -0.6332  0.4540  0.3557
 5297TIP3    H237383   0.592   1.448  38.530 -0.0803  1.1518  0.4460
 5298TIP3   OH237384   4.215   2.557  39.446  0.1680 -0.1140  0.2051
 5298TIP3    H137385   4.172   2.627  39.396  0.5724  1.1101  1.5079
 5298TIP3    H237386   4.147   2.489  39.455  0.0025 -0.2629 -1.7195
 5299TIP3   OH237387   2.881   2.953   1.508  0.0370  0.5978  0.0565
 5299TIP3    H137388   2.848   2.932   1.596  1.0211  0.4533  0.4071
 5299TIP3    H237389   2.886   2.868   1.464  0.5661  0.5369  0.2313
 5300TIP3   OH237390   0.801   3.602  25.516  0.2433  0.0959 -0.1539
 5300TIP3    H137391   0.854   3.670  25.556 -1.0760  1.2606 -0.2823
 5300TIP3    H237392   0.727   3.590  25.575  0.6106 -1.4946  0.0317
 5301TIP3   OH237393   3.388   4.141   7.383  0.0076  0.3712  0.1177
 5301TIP3    H137394   3.349   4.209   7.329 -1.1241 -1.8681 -2.1190
 5301TIP3    H237395   3.331   4.136   7.461 -1.0785  0.6830 -0.6317
 5302TIP3   OH237396   0.789   3.313  37.601  0.4244  0.0203 -0.1895
 5302TIP3    H137397   0.758   3.368  37.529 -1.2013 -0.7494 -0.1429
 5302TIP3    H237398   0.729   3.238  37.601  0.7574 -0.2920  1.5812
 5303TIP3   OH237399   3.594   1.730  28.588 -0.0525 -0.5427 -0.4640
 5303TIP3    H137400   3.585   1.766  28.676 -2.8455 -1.9295 -0.0821
 5303TIP3    H237401   3.604   1.807  28.532 -0.4906  0.5002  0.8361
 5304TIP3   OH237402   2.442   3.132   3.288 -0.2727 -0.4004  0.1351
 5304TIP3    H137403   2.438   3.165   3.198 -1.1748 -1.3679 -0.1993
 5304TIP3    H237404   2.526   3.162   3.321  0.0008  0.1076 -0.9805
 5305TIP3   OH237405   3.935   3.811  37.000 -0.3728  0.4843 -0.0619
 5305TIP3    H137406   3.914   3.893  37.045  2.4288  1.4236 -0.2814
 5305TIP3    H237407   4.028   3.817  36.982 -0.1488 -2.6145 -0.4569
 5306TIP3   OH237408   3.238   2.690   4.673 -0.0949 -0.2400 -0.3751
 5306TIP3    H137409   3.182   2.716   4.600 -0.9874 -0.4646  0.2025
 5306TIP3    H237410   3.193   2.724   4.750 -0.7068 -2.4360  0.3147
 5307TIP3   OH237411   1.559   1.654  30.996  0.0539  0.5822  0.3867
 5307TIP3    H137412   1.617   1.726  30.969 -0.3228  0.9033  0.4211
 5307TIP3    H237413   1.496   1.696  31.055 -1.0578  0.5258 -0.7186
 5308TIP3   OH237414   0.319   0.518  10.190 -0.3109 -0.0604  0.2278
 5308TIP3    H137415   0.396   0.464  10.205 -0.0602  0.5968  1.4803
 5308TIP3    H237416   0.298   0.554  10.276 -2.0511 -0.2642 -0.0779
 5309TIP3   OH237417   0.207   1.838  25.644 -0.0475  0.3382  0.3903
 5309TIP3    H137418   0.225   1.764  25.701 -0.4634 -0.3018 -0.2918
 5309TIP3    H237419   0.266   1.907  25.674  0.3216 -0.2599  1.0514
 5310TIP3   OH237420   1.103   0.166   8.980  0.0202  0.1968 -0.3279
 5310TIP3    H137421   1.144   0.205   9.057  0.8133 -0.4510 -0.4100
 5310TIP3    H237422   1.021   0.215   8.969 -0.6449 -0.4405  1.5738
 5311TIP3   OH237423   2.729   3.820  11.913 -0.0215  0.1145 -0.0244
 5311TIP3    H137424   2.707   3.912  11.926 -0.0884  0.2576 -1.0776
 5311TIP3    H237425   2.695   3.776  11.992  0.4306  1.0444  0.7042
 5312TIP3   OH237426   2.413   1.437  31.902  0.2542 -0.6692  0.4280
 5312TIP3    H137427   2.330   1.433  31.856  0.4249  0.6920 -0.0591
 5312TIP3    H237428   2.471   1.379  31.852 -0.0441 -0.5789 -0.0290
 5313TIP3   OH237429   2.884   0.423   0.599 -0.0288 -0.3276  0.1607
 5313TIP3    H137430   2.972   0.427   0.561 -0.1288  0.0304 -0.0390
 5313TIP3    H237431   2.825   0.427   0.523 -0.2681  1.9959  0.3797
 5314TIP3   OH237432   0.664   1.335  10.568 -0.0466 -0.4760 -0.8718
 5314TIP3    H137433   0.692   1.403  10.508 -2.0940  0.6370 -0.6587
 5314TIP3    H237434   0.574   1.315  10.542 -0.2640 -1.4544  0.4922
 5315TIP3   OH237435   0.757   2.071   8.679  1.0612  0.0566  0.3851
 5315TIP3    H137436   0.778   2.099   8.590 -0.1541 -1.0340 -0.2790
 5315TIP3    H237437   0.700   2.139   8.714  1.4292  0.4161  0.2955
 5316TIP3   OH237438   3.947   0.159  25.116  0.0389 -0.2096 -0.0217
 5316TIP3    H137439   3.962   0.245  25.075  1.3077 -0.0843  0.6449
 5316TIP3    H237440   4.030   0.113  25.104  0.2890 -0.3408  1.9494
 5317TIP3   OH237441   1.386   2.812  10.919  0.0232  0.4198 -0.2738
 5317TIP3    H137442   1.293   2.794  10.934 -0.0517  0.9012 -0.1503
 5317TIP3    H237443   1.427   2.725  10.917 -0.9110 -0.0814 -3.8071
 5318TIP3   OH237444   2.919   2.707   2.641 -0.3610  0.3165 -0.4668
 5318TIP3    H137445   3.007   2.701   2.604 -0.4286 -0.8478 -0.4790
 5318TIP3    H237446   2.909   2.800   2.663  0.5408  0.6204 -1.2402
 5319TIP3   OH237447   3.890   2.593  23.519  0.0244  0.1146  0.1657
 5319TIP3    H137448   3.869   2.511  23.565  0.1023  0.4499  0.8103
 5319TIP3    H237449   3.831   2.657  23.557 -1.8309 -0.1409 -2.1186
 5320TIP3   OH237450   1.609   1.042  38.144 -0.3539 -0.0419  0.1317
 5320TIP3    H137451   1.635   0.951  38.132 -0.3264 -0.0922  0.5455
 5320TIP3    H237452   1.691   1.089  38.160 -0.2769  0.2039 -0.9204
 5321TIP3   OH237453   3.361   1.135   8.684 -0.3353  0.1248  0.0519
 5321TIP3    H137454   3.435   1.074   8.692  0.8059  1.3172 -0.9917
 5321TIP3    H237455   3.373   1.175   8.598 -0.9030  2.0038  0.8080
 5322TIP3   OH237456   2.175   2.889   1.615  0.1729  0.4161  0.3284
 5322TIP3    H137457   2.169   2.961   1.678 -0.8080  1.6814 -1.1564
 5322TIP3    H237458   2.087   2.851   1.613  0.9957 -1.7978  2.1196
 5323TIP3   OH237459   2.347   3.260   7.454 -0.3245 -0.6057 -0.5441
 5323TIP3    H137460   2.300   3.183   7.486  0.1236 -0.3825  0.6737
 5323TIP3    H237461   2.318   3.332   7.510 -0.1506 -0.0280 -1.1696
 5324TIP3   OH237462   3.643   1.716  33.874  0.5221 -0.4023  0.8371
 5324TIP3    H137463   3.612   1.679  33.792 -1.2955  2.1703  0.2376
 5324TIP3    H237464   3.710   1.779  33.848 -0.7454  1.1358  1.1695
 5325TIP3   OH237465   1.383   1.444  39.420 -0.5850 -0.0893  0.6538
 5325TIP3    H137466   1.308   1.467  39.365  0.1346 -0.9437 -0.7243
 5325TIP3    H237467   1.458   1.486  39.378  0.0800 -1.2887  0.5879
 5326TIP3   OH237468   1.976   1.450   3.198 -0.6183 -0.3138  0.1040
 5326TIP3    H137469   2.063   1.480   3.225 -0.5699  0.7654 -1.1828
 5326TIP3    H237470   1.976   1.356   3.218  1.3495 -0.6248 -1.0909
 5327TIP3   OH237471   1.829   1.359   9.400 -0.1515 -0.1273 -0.2177
 5327TIP3    H137472   1.806   1.391   9.313 -1.2192  1.2849  0.5492
 5327TIP3    H237473   1.789   1.272   9.405 -2.6939  0.9780 -0.0849
 5328TIP3   OH237474   0.103   0.080  39.805  0.2676 -0.6065  0.3502
 5328TIP3    H137475   0.035   0.084  39.738 -0.1485 -0.9537  0.7485
 5328TIP3    H237476   0.155   0.160  39.792 -0.7646  0.1288  0.6172
 5329TIP3   OH237477   1.870   0.830   8.939 -0.0904 -0.0360  0.4008
 5329TIP3    H137478   1.888   0.857   8.849 -0.3541 -2.0720 -0.3259
 5329TIP3    H237479   1.775   0.835   8.947 -0.1572 -0.8079  0.2057
 5330TIP3   OH237480   3.565   1.510  12.929 -0.3508 -0.1936  0.2088
 5330TIP3    H137481   3.635   1.488  12.867 -0.7964  0.8904 -0.7103
 5330TIP3    H237482   3.611   1.529  13.011  0.5717  1.4498 -0.6347
 5331TIP3   OH237483   2.126   2.545  15.919  0.1793  0.3663 -0.4732
 5331TIP3    H137484   2.031   2.557  15.917 -0.1948 -2.1186 -0.6906
 5331TIP3    H237485   2.157   2.614  15.977 -2.1550 -0.8140  2.4445
 5332TIP3   OH237486   1.365   2.682   4.096  0.2061 -0.1505 -0.4609
 5332TIP3    H137487   1.459   2.666   4.100  0.4033  1.1284  1.3108
 5332TIP3    H237488   1.326   2.607   4.140  0.3051 -1.1275 -1.9904
 5333TIP3   OH237489   4.376   1.562  33.034 -0.0875  0.0109  0.1589
 5333TIP3    H137490   4.332   1.603  32.959  0.7663  1.2538  0.2920
 5333TIP3    H237491   4.364   1.624  33.106  0.9384 -0.1197  0.4674
 5334TIP3   OH237492   1.820   2.633  10.307 -0.0777 -0.0076 -0.4836
 5334TIP3    H137493   1.785   2.574  10.240  0.1315  0.7133 -1.2404
 5334TIP3    H237494   1.912   2.646  10.282 -0.2097  0.8942 -0.5125
 5335TIP3   OH237495   1.450   1.029  29.690 -0.4651 -0.6390  0.2617
 5335TIP3    H137496   1.428   0.983  29.771 -0.3571 -0.2080  0.5408
 5335TIP3    H237497   1.530   0.986  29.659 -0.6043 -0.9209  0.2879
 5336TIP3   OH237498   3.460   3.638   9.376  0.1513 -0.0307  0.0046
 5336TIP3    H137499   3.379   3.588   9.383 -1.5215  2.2535 -1.5375
 5336TIP3    H237500   3.433   3.721   9.337  3.3662  0.5582 -1.2247
 5337TIP3   OH237501   1.595   3.280  41.085 -0.5857  0.2953 -0.1420
 5337TIP3    H137502   1.565   3.363  41.120 -0.6950  0.1613  0.0841
 5337TIP3    H237503   1.534   3.215  41.120  0.2712 -0.0515  0.7809
 5338TIP3   OH237504   1.892   2.763  35.577  0.1257  0.1135 -0.5371
 5338TIP3    H137505   1.872   2.697  35.644 -0.7710  1.2692  0.3802
 5338TIP3    H237506   1.878   2.847  35.621  3.2642  1.0014 -1.0471
 5339TIP3   OH237507   1.301   0.557  32.501  0.0804  0.6482 -0.0235
 5339TIP3    H137508   1.362   0.512  32.559 -2.2106  0.4949  2.4620
 5339TIP3    H237509   1.214   0.531  32.532 -1.3081  2.9762 -1.6197
 5340TIP3   OH237510   3.271   1.649   9.899  0.1670  0.2851  0.4816
 5340TIP3    H137511   3.340   1.606   9.950  0.0694 -0.8722 -0.3439
 5340TIP3    H237512   3.318   1.713   9.845  0.4008  0.6710  1.1287
 5341TIP3   OH237513   3.657   0.399  13.084  0.4797 -0.6058  0.0162
 5341TIP3    H137514   3.715   0.472  13.065 -0.1785 -0.0619  0.0464
 5341TIP3    H237515   3.570   0.430  13.057  0.1036 -1.1672  0.5554
 5342TIP3   OH237516   2.237   1.405   5.911  0.0477  0.3983 -0.0325
 5342TIP3    H137517   2.254   1.497   5.933 -0.7268  0.2944  1.0106
 5342TIP3    H237518   2.308   1.383   5.850 -0.6294  2.1348 -1.5508
 5343TIP3   OH237519   4.329   2.243  37.404  0.0485 -0.1707 -0.0201
 5343TIP3    H137520   4.374   2.327  37.405 -0.4952  0.1227  1.6364
 5343TIP3    H237521   4.314   2.221  37.496  0.8490 -2.4631 -0.3643
 5344TIP3   OH237522   0.399   4.094   0.967  0.4093  0.3539  0.2429
 5344TIP3    H137523   0.317   4.105   0.919  1.1841 -0.2819 -1.3286
 5344TIP3    H237524   0.376   4.043   1.044 -0.8039  0.9315  0.2821
 5345TIP3   OH237525   3.297   1.531  28.102  0.8175  0.6691 -0.3960
 5345TIP3    H137526   3.263   1.545  28.190 -0.2485 -2.6812 -0.1136
 5345TIP3    H237527   3.364   1.463  28.112  0.2391 -0.2350 -2.1748
 5346TIP3   OH237528   1.677   2.446  36.079 -0.2161 -0.3145  0.0707
 5346TIP3    H137529   1.651   2.380  36.014  1.2192 -0.5504 -0.3035
 5346TIP3    H237530   1.676   2.400  36.162 -0.5205 -0.4425 -0.0021
 5347TIP3   OH237531   0.522   1.557  21.295 -0.1600 -0.1001  0.0851
 5347TIP3    H137532   0.469   1.627  21.333 -0.1734 -0.1874  0.2262
 5347TIP3    H237533   0.465   1.481  21.294  0.3395 -0.5237  1.3660
 5348TIP3   OH237534   1.347   3.109  11.699 -0.5074 -0.3732  1.0098
 5348TIP3    H137535   1.402   3.183  11.721 -1.1224 -0.1262  1.7564
 5348TIP3    H237536   1.278   3.146  11.643 -0.1579 -0.6077  0.4078
 5349TIP3   OH237537   3.617   2.749  37.108  0.0303  0.0961  0.7633
 5349TIP3    H137538   3.677   2.770  37.037 -1.0902  1.1556  0.0992
 5349TIP3    H237539   3.534   2.789  37.083 -0.4654  0.2819  2.5464
 5350TIP3   OH237540   1.537   0.483   4.124  0.3245  0.3026 -0.3024
 5350TIP3    H137541   1.490   0.400   4.108 -0.8631  0.9524 -0.3302
 5350TIP3    H237542   1.507   0.541   4.054 -0.9511  1.5763  1.2177
 5351TIP3   OH237543   1.502   4.095   4.607  0.5974 -0.1370 -0.0697
 5351TIP3    H137544   1.570   4.149   4.646 -1.9855  2.5371  1.1067
 5351TIP3    H237545   1.513   4.105   4.513 -1.0718  4.5922 -0.0071
 5352TIP3   OH237546   2.075   0.251   8.327 -0.5095 -0.0570 -0.0305
 5352TIP3    H137547   2.081   0.198   8.406 -0.2038  1.3497  0.9437
 5352TIP3    H237548   2.063   0.189   8.256 -0.5716 -1.3734  1.1028
 5353TIP3   OH237549   4.275   2.005  41.233  0.1307  0.3914 -0.0551
 5353TIP3    H137550   4.349   2.018  41.292  0.5612 -0.2813 -0.4376
 5353TIP3    H237551   4.236   2.092  41.224  0.5905  0.6623  0.5151
 5354TIP3   OH237552   3.175   0.556  27.655 -0.0122 -0.1887 -0.3326
 5354TIP3    H137553   3.168   0.597  27.569 -2.6283  0.8557  0.3043
 5354TIP3    H237554   3.219   0.622  27.709 -0.6822  0.1953 -0.2534
 5355TIP3   OH237555   0.858   0.002  37.354  0.6221  0.1243  0.3697
 5355TIP3    H137556   0.950   0.007  37.328  0.5803 -1.4933 -0.1747
 5355TIP3    H237557   0.861  -0.020  37.447  0.8527 -2.5902 -0.2106
 5356TIP3   OH237558   0.513   0.587  38.355  0.1507 -0.0574  0.3154
 5356TIP3    H137559   0.481   0.512  38.305  0.2860  0.3540 -0.3968
 5356TIP3    H237560   0.604   0.566  38.376 -0.4583 -1.1193  2.1295
 5357TIP3   OH237561   1.604   1.372   7.465 -0.1556 -0.1568  0.1532
 5357TIP3    H137562   1.574   1.339   7.550  0.8338 -0.1720  0.5098
 5357TIP3    H237563   1.641   1.295   7.421 -3.1821 -0.7999 -1.5077
 5358TIP3   OH237564   0.016   1.154  35.007  0.3149  0.2197  0.2685
 5358TIP3    H137565  -0.031   1.204  35.074  1.9027  1.1302  0.7305
 5358TIP3    H237566   0.071   1.218  34.963  1.4384 -0.8920  0.0216
 5359TIP3   OH237567   1.616   1.507  18.278 -0.0461 -0.4657  0.4114
 5359TIP3    H137568   1.703   1.547  18.280  0.4912 -1.4828 -0.6465
 5359TIP3    H237569   1.603   1.485  18.185 -0.4704 -2.3161  0.8662
 5360TIP3   OH237570   2.536   0.445  10.911 -0.0553  0.4516 -0.9178
 5360TIP3    H137571   2.621   0.403  10.895 -0.4461 -0.2717 -1.0878
 5360TIP3    H237572   2.474   0.397  10.857 -0.7762  0.2497  0.0530
 5361TIP3   OH237573   0.246   0.815  12.337  0.5208 -0.3496 -0.2858
 5361TIP3    H137574   0.301   0.760  12.392  0.4148 -0.9347 -0.7629
 5361TIP3    H237575   0.307   0.864  12.283  0.6038 -0.1770 -0.0409
 5362TIP3   OH237576   2.064   4.391  40.190 -0.3442 -0.0062 -0.2017
 5362TIP3    H137577   2.075   4.485  40.177  1.1693  0.0386  1.0335
 5362TIP3    H237578   2.055   4.381  40.285 -0.5346 -1.1081 -0.3234
 5363TIP3   OH237579   1.459   2.421  14.649  0.5132 -0.6205 -0.6771
 5363TIP3    H137580   1.547   2.418  14.612  1.3297 -1.9434  1.1914
 5363TIP3    H237581   1.406   2.463  14.582  1.8819 -2.7796 -3.3021
 5364TIP3   OH237582   1.729   3.455  13.462 -0.1324  0.7143 -1.0934
 5364TIP3    H137583   1.738   3.361  13.476  4.6618  0.9313 -1.1330
 5364TIP3    H237584   1.703   3.490  13.548  1.5908 -0.4131 -0.0477
 5365TIP3   OH237585   1.209   1.579   3.325 -0.0055 -0.1224 -0.8429
 5365TIP3    H137586   1.196   1.538   3.240 -0.7184 -1.9897  0.1158
 5365TIP3    H237587   1.138   1.544   3.380 -0.4364  2.1355  0.1630
 5366TIP3   OH237588   2.070   2.717   7.936 -0.0134  0.4712  0.4835
 5366TIP3    H137589   1.975   2.718   7.924  0.0485  2.1248 -0.1935
 5366TIP3    H237590   2.102   2.651   7.875 -0.6618  0.5776  0.0207
 5367TIP3   OH237591   0.376   2.741  35.300  0.2069 -0.0206  1.0688
 5367TIP3    H137592   0.339   2.750  35.387 -0.3482  1.9510  0.6873
 5367TIP3    H237593   0.301   2.744  35.241  0.3709 -3.2840  0.5119
 5368TIP3   OH237594   3.036   0.682  31.236  0.1030 -0.7568 -0.6203
 5368TIP3    H137595   2.940   0.675  31.233  0.1720 -1.4758 -1.3806
 5368TIP3    H237596   3.059   0.645  31.322 -0.5242  2.7108  1.2013
 5369TIP3   OH237597   1.338   2.400  34.458 -0.4817 -0.2514 -0.4448
 5369TIP3    H137598   1.400   2.356  34.517 -0.0612  1.3704  0.3917
 5369TIP3    H237599   1.280   2.449  34.516 -0.6729  0.6251 -1.3436
 5370TIP3   OH237600   2.538   0.255  41.368 -0.3983 -0.2443 -0.0293
 5370TIP3    H137601   2.493   0.339  41.376  1.7742  0.8987  1.0702
 5370TIP3    H237602   2.571   0.255  41.278 -0.3044  0.1244  0.0018
 5371TIP3   OH237603   3.326   0.415  40.855  0.8552  0.3023 -0.4531
 5371TIP3    H137604   3.375   0.361  40.917  0.5761 -1.3587 -1.6287
 5371TIP3    H237605   3.248   0.442  40.904  2.4912  2.3623  1.1890
 5372TIP3   OH237606   3.919   2.328  28.689 -0.4184  0.5417 -0.1109
 5372TIP3    H137607   3.950   2.240  28.669  2.7791  1.6376 -0.6271
 5372TIP3    H237608   3.899   2.326  28.783  0.9363 -0.4389  0.1943
 5373TIP3   OH237609   2.551   0.049  35.662 -0.2711  0.0467 -0.0348
 5373TIP3    H137610   2.499   0.123  35.694  0.3981  0.9348 -0.9470
 5373TIP3    H237611   2.595   0.016  35.740 -1.3626 -0.0444  0.5628
 5374TIP3   OH237612   0.651   2.915  35.854  0.2983  0.3659 -1.0044
 5374TIP3    H137613   0.609   2.865  35.783  1.5828 -1.5674 -0.4591
 5374TIP3    H237614   0.674   2.849  35.919  0.8034  1.8857  0.4043
 5375TIP3   OH237615   1.834   1.715  31.991  0.1580 -0.0816 -0.0668
 5375TIP3    H137616   1.887   1.693  32.067 -0.3600  1.4829  0.7971
 5375TIP3    H237617   1.811   1.631  31.952  0.9909 -0.8817  1.1156
 5376TIP3   OH237618   1.402   2.358  41.111  0.0319 -0.3955  0.6037
 5376TIP3    H137619   1.381   2.296  41.042 -1.3032 -0.2267  0.8389
 5376TIP3    H237620   1.496   2.345  41.127  0.3701 -0.4507 -1.2050
 5377TIP3   OH237621   3.825   2.593   8.187  0.0871 -0.5199 -0.0433
 5377TIP3    H137622   3.850   2.591   8.279 -0.2846 -4.5724  0.1489
 5377TIP3    H237623   3.754   2.657   8.182  0.4090  0.1128  2.3642
 5378TIP3   OH237624   3.704   1.820   6.560  0.5007  0.3706 -0.2618
 5378TIP3    H137625   3.644   1.872   6.506  0.8317  1.9453  0.7923
 5378TIP3    H237626   3.751   1.885   6.612  1.9130 -0.9436  0.1667
 5379TIP3   OH237627   1.811   1.780   1.637  0.2756  0.5932  0.3288
 5379TIP3    H137628   1.760   1.809   1.712 -0.9128 -1.0428  0.2228
 5379TIP3    H237629   1.801   1.684   1.637 -0.9544  0.6002 -2.6755
 5380TIP3   OH237630   3.849   1.673  40.101  0.6287 -0.0804  0.1696
 5380TIP3    H137631   3.789   1.723  40.156  1.4539 -1.7154  2.6975
 5380TIP3    H237632   3.933   1.718  40.112  0.4053  0.8763 -1.5965
 5381TIP3   OH237633   0.409   3.049  31.501  0.3947  0.6489  0.0022
 5381TIP3    H137634   0.324   3.050  31.458 -0.5932  1.6483  1.8375
 5381TIP3    H237635   0.472   3.065  31.431 -1.0028  0.8375 -1.2617
 5382TIP3   OH237636   2.147   2.840   8.838 -0.6811  0.3957  0.5571
 5382TIP3    H137637   2.083   2.781   8.879 -2.2862  1.9747  0.4259
 5382TIP3    H237638   2.197   2.783   8.780 -3.5439 -0.5869 -1.1867
 5383TIP3   OH237639   0.759   0.430   2.080  0.1404 -0.0927  0.2620
 5383TIP3    H137640   0.677   0.435   2.030  0.6513 -2.5114 -1.0041
 5383TIP3    H237641   0.810   0.505   2.051 -0.9817  0.5233 -0.1718
 5384TIP3   OH237642   0.312   0.639   8.374  0.3187 -0.2020  0.1593
 5384TIP3    H137643   0.358   0.570   8.422  0.8981 -0.9220 -1.3689
 5384TIP3    H237644   0.352   0.639   8.287 -0.0274  1.7237 -0.0553
 5385TIP3   OH237645   3.923   0.183  30.261  0.3500 -0.1367  0.0556
 5385TIP3    H137646   4.012   0.216  30.273  0.9683 -1.5755 -0.4069
 5385TIP3    H237647   3.908   0.189  30.167 -1.0291  2.4353  0.3334
 5386TIP3   OH237648   0.919   3.958   3.909 -0.4474  0.0297  0.2640
 5386TIP3    H137649   0.912   3.902   3.986 -1.8398  0.2196  0.3039
 5386TIP3    H237650   0.862   4.033   3.928  0.3103  0.7861 -0.3556
 5387TIP3   OH237651   0.678   4.353  40.531 -0.0931 -0.4722 -0.5137
 5387TIP3    H137652   0.727   4.273  40.510  0.1965 -0.5365  0.3695
 5387TIP3    H237653   0.702   4.415  40.462  2.7544  0.1327  0.9000
 5388TIP3   OH237654   0.099   2.508   6.395 -0.0934  0.5586 -0.3065
 5388TIP3    H137655   0.059   2.594   6.400 -0.7328  0.2562 -0.1217
 5388TIP3    H237656   0.120   2.486   6.486  0.4247  0.6753 -0.3907
 5389TIP3   OH237657   2.564   2.265  36.532 -0.3530 -0.4556  0.5693
 5389TIP3    H137658   2.490   2.310  36.491 -0.3944  0.8809  2.0176
 5389TIP3    H237659   2.560   2.176  36.497 -0.0114  0.6956 -2.7515
 5390TIP3   OH237660   2.396   3.119  30.401  0.1541 -0.0920  0.3344
 5390TIP3    H137661   2.345   3.101  30.479  0.2975 -0.3737  0.3614
 5390TIP3    H237662   2.331   3.125  30.331  0.2197 -2.4298 -0.0000
 5391TIP3   OH237663   3.052   3.171   6.120  0.2146 -0.1808 -0.3783
 5391TIP3    H137664   3.099   3.092   6.092  0.1784 -0.5044  0.4395
 5391TIP3    H237665   3.114   3.242   6.106  0.0758 -0.2779 -1.5868
 5392TIP3   OH237666   3.713   0.764  35.556  0.1786 -0.2812 -0.0646
 5392TIP3    H137667   3.663   0.684  35.573 -0.7281  0.3251  0.1678
 5392TIP3    H237668   3.684   0.792  35.470 -0.0084  0.1735  0.1452
 5393TIP3   OH237669   3.190   2.338   7.280 -0.2368 -0.3739 -0.0741
 5393TIP3    H137670   3.131   2.319   7.206 -1.1274 -0.0968  0.5504
 5393TIP3    H237671   3.134   2.382   7.344  0.9419  1.0465  0.0203
 5394TIP3   OH237672   1.385   3.849   1.425 -0.2011 -0.0759 -0.1947
 5394TIP3    H137673   1.355   3.813   1.509  2.0789 -0.3212  0.5961
 5394TIP3    H237674   1.417   3.772   1.377 -0.0033  0.2709 -0.6205
 5395TIP3   OH237675   3.269   1.915   4.975  0.1523  0.9166 -0.1394
 5395TIP3    H137676   3.306   1.899   5.062  1.0026 -0.2823 -0.6889
 5395TIP3    H237677   3.222   1.835   4.953  0.9250  0.7307 -1.2410
 5396TIP3   OH237678   1.326   2.111  35.691 -0.0408  0.0374  0.1211
 5396TIP3    H137679   1.235   2.084  35.698  0.0634 -2.2515 -3.9392
 5396TIP3    H237680   1.376   2.038  35.726  0.2549  0.5885  0.8635
 5397TIP3   OH237681   4.145   1.272  29.964  0.4077  0.6361  0.2687
 5397TIP3    H137682   4.224   1.228  29.995  0.8559  0.6177 -0.8636
 5397TIP3    H237683   4.101   1.302  30.044  1.1175 -0.1012  0.9481
 5398TIP3   OH237684   3.552   0.598  40.886 -0.1416 -0.1834 -0.1665
 5398TIP3    H137685   3.483   0.534  40.869  0.9922 -1.3207 -0.6472
 5398TIP3    H237686   3.520   0.647  40.962 -1.5078 -0.6085 -0.4258
 5399TIP3   OH237687   4.367   2.084   2.402  0.4691 -0.2198 -0.6505
 5399TIP3    H137688   4.399   2.025   2.471 -1.4734  2.0474  2.4699
 5399TIP3    H237689   4.397   2.170   2.429 -1.3047  0.8880 -2.0165
 5400TIP3   OH237690   0.191   2.179  27.240  0.0825 -0.5465  0.1905
 5400TIP3    H137691   0.278   2.210  27.267  0.1174 -2.0685  2.0683
 5400TIP3    H237692   0.162   2.124  27.313 -2.9850  0.8383  0.1508
 5401TIP3   OH237693   0.027   0.658  36.122 -0.3418  0.5548  0.5761
 5401TIP3    H137694  -0.060   0.694  36.105  0.2179  1.6595 -0.0699
 5401TIP3    H237695   0.040   0.669  36.216 -0.6199  1.0305  0.5613
 5402TIP3   OH237696   1.774   1.874   1.925 -0.0766 -0.1337 -0.6072
 5402TIP3    H137697   1.774   1.869   2.021 -0.0190  1.3941 -0.5068
 5402TIP3    H237698   1.701   1.818   1.899  0.5523 -1.4300  0.2486
 5403TIP3   OH237699   2.360   1.636  30.203 -0.1669  0.0796  0.3069
 5403TIP3    H137700   2.301   1.687  30.258  0.7495  0.1297  1.2974
 5403TIP3    H237701   2.444   1.637  30.251  0.9508  0.9558 -1.5806
 5404TIP3   OH237702   3.413   2.646   7.452 -0.1442 -0.2178 -0.3428
 5404TIP3    H137703   3.369   2.670   7.370  1.1202  0.1155 -0.9459
 5404TIP3    H237704   3.421   2.729   7.500  1.1577  0.0036 -0.9092
 5405TIP3   OH237705   0.757   4.332   3.375 -0.0165 -0.0498  0.1362
 5405TIP3    H137706   0.742   4.296   3.462  0.5558 -0.5433  0.0385
 5405TIP3    H237707   0.701   4.409   3.371 -0.3490 -0.2468  0.7938
 5406TIP3   OH237708   2.327   2.411  30.617  0.5284  0.0098 -0.2629
 5406TIP3    H137709   2.266   2.463  30.564  1.2095  0.0221 -1.0463
 5406TIP3    H237710   2.381   2.365  30.553  3.0154  1.9028  0.3279
 5407TIP3   OH237711   0.531   4.305   8.877 -0.5564 -0.1015 -0.6819
 5407TIP3    H137712   0.490   4.255   8.947  2.5286 -0.9367  0.7088
 5407TIP3    H237713   0.497   4.393   8.887 -0.6627 -0.3437  1.5441
 5408TIP3   OH237714   2.406   3.479  12.622  0.2962  0.1186 -0.0749
 5408TIP3    H137715   2.478   3.531  12.660 -0.3148 -0.0159  1.3237
 5408TIP3    H237716   2.450   3.407  12.577  1.1299  1.3885 -1.3974
 5409TIP3   OH237717   0.355   0.869   0.758  0.0626 -0.0096  0.2279
 5409TIP3    H137718   0.317   0.786   0.786 -0.2852  0.2650  0.5876
 5409TIP3    H237719   0.365   0.860   0.664  1.7573 -1.1609  0.4618
 5410TIP3   OH237720   0.879   3.361   1.516  0.2992  0.1546  0.3020
 5410TIP3    H137721   0.828   3.367   1.596 -0.6237  1.5676 -0.3628
 5410TIP3    H237722   0.817   3.334   1.449  0.0926  2.8587 -0.7235
 5411TIP3   OH237723   1.393   4.133  30.388  0.2265 -0.0559 -0.4650
 5411TIP3    H137724   1.353   4.146  30.303  1.9025  0.4822 -1.2242
 5411TIP3    H237725   1.452   4.208  30.398  1.8738 -1.3571  0.0561
 5412TIP3   OH237726   3.428   2.937  39.183 -0.7591  0.3680 -0.5276
 5412TIP3    H137727   3.390   2.918  39.098 -2.0032 -3.8284  0.7413
 5412TIP3    H237728   3.356   2.928  39.245  0.8023 -0.3486  1.3069
 5413TIP3   OH237729   0.708   4.285  41.188 -0.4633 -0.1904 -0.1053
 5413TIP3    H137730   0.785   4.258  41.137  0.2141  2.7252 -0.7911
 5413TIP3    H237731   0.649   4.209  41.183  0.8615 -1.2014 -2.6242
 5414TIP3   OH237732   2.373   2.502  29.635  0.7079  0.0418 -0.1202
 5414TIP3    H137733   2.469   2.503  29.627  0.8552 -0.2421  1.3432
 5414TIP3    H237734   2.348   2.413  29.613  0.6212  0.4583 -1.8341
 5415TIP3   OH237735   1.316   0.553   8.345 -0.1054 -0.0135  0.3308
 5415TIP3    H137736   1.303   0.458   8.353 -0.7210 -0.1179 -1.5101
 5415TIP3    H237737   1.232   0.586   8.314  0.6795  0.8470 -0.9737
 5416TIP3   OH237738   1.509   4.250  12.453  0.2907 -0.6303 -0.5383
 5416TIP3    H137739   1.463   4.174  12.418 -3.7008  1.2586  0.0303
 5416TIP3    H237740   1.468   4.325  12.409 -0.2999  1.4779  3.2169
 5417TIP3   OH237741   2.540   2.706  37.042  0.2312  0.4359 -0.4505
 5417TIP3    H137742   2.532   2.798  37.017  1.3418  0.3558 -1.1671
 5417TIP3    H237743   2.610   2.705  37.107  0.1835  0.1040 -0.4028
 5418TIP3   OH237744   0.393   2.300  39.777 -0.1275 -0.9133 -0.1868
 5418TIP3    H137745   0.455   2.261  39.715  0.3794 -2.2112  1.1030
 5418TIP3    H237746   0.372   2.230  39.839 -0.4175  0.4172  1.2800
 5419TIP3   OH237747   0.416   3.173  30.719  0.6113 -0.0414 -0.7488
 5419TIP3    H137748   0.376   3.101  30.671 -1.3944  0.9448 -0.6455
 5419TIP3    H237749   0.461   3.225  30.652 -0.3330  0.1313 -1.2638
 5420TIP3   OH237750   3.502   2.822  37.615 -0.0909  0.2993  0.1066
 5420TIP3    H137751   3.571   2.788  37.558  2.2211  0.8184  2.4346
 5420TIP3    H237752   3.447   2.875  37.557  0.9113 -0.8366 -1.9921
 5421TIP3   OH237753   2.860   2.206   6.214  0.3359  0.4984  0.4911
 5421TIP3    H137754   2.878   2.283   6.159 -0.0803 -0.0928 -0.4839
 5421TIP3    H237755   2.782   2.230   6.263 -0.8201  0.0719 -1.0751
 5422TIP3   OH237756   0.817   0.897   6.278 -0.5460 -0.0822  0.0249
 5422TIP3    H137757   0.911   0.891   6.294 -0.2814  2.0478 -0.4070
 5422TIP3    H237758   0.782   0.935   6.358 -1.3593 -2.4237  0.8717
 5423TIP3   OH237759   1.440   2.384  17.213  0.7292  0.1269  0.6709
 5423TIP3    H137760   1.454   2.396  17.306 -0.7744 -0.9252  1.0768
 5423TIP3    H237761   1.459   2.291  17.197 -0.9380 -0.1928  0.3606
 5424TIP3   OH237762   3.308   1.002  13.372 -0.4696  0.4447  0.5025
 5424TIP3    H137763   3.366   0.928  13.390  0.0457  0.6674 -0.1690
 5424TIP3    H237764   3.222   0.975  13.404 -1.0263 -1.6968 -2.3560
 5425TIP3   OH237765   3.194   3.628  29.535  0.1991  0.1340 -0.0102
 5425TIP3    H137766   3.111   3.587  29.558 -0.0007  1.1254  1.1274
 5425TIP3    H237767   3.204   3.699  29.598  1.3967  0.7042 -0.8072
 5426TIP3   OH237768   2.698   3.476   2.473 -0.0689  0.3741 -0.2713
 5426TIP3    H137769   2.725   3.568   2.468 -1.0909  0.8219  1.4838
 5426TIP3    H237770   2.759   3.437   2.536 -0.3013  0.1214 -0.2017
 5427TIP3   OH237771   0.582   0.741   5.261 -0.1224  0.4077 -0.1927
 5427TIP3    H137772   0.562   0.817   5.316  0.2496  0.0043  0.5262
 5427TIP3    H237773   0.664   0.706   5.298  0.0164 -0.0058 -0.8720
 5428TIP3   OH237774   0.837   0.045  13.668  0.5294 -0.1203 -0.5645
 5428TIP3    H137775   0.864  -0.046  13.654  0.3952  0.0602 -2.1951
 5428TIP3    H237776   0.744   0.040  13.690  0.6332 -0.3888 -0.1549
 5429TIP3   OH237777   1.603   2.954  17.821  0.4990  0.1512  0.3988
 5429TIP3    H137778   1.633   2.901  17.748  0.5851  1.1596 -0.3175
 5429TIP3    H237779   1.537   3.012  17.783  0.2105  0.3734  1.2165
 5430TIP3   OH237780   0.107   2.656  27.607 -0.4533  0.1263 -0.3315
 5430TIP3    H137781   0.134   2.603  27.682 -0.9157 -0.4714 -0.5754
 5430TIP3    H237782   0.046   2.600  27.558 -2.3916  1.5104  0.3600
 5431TIP3   OH237783   1.188   1.485   4.297 -0.3263  0.6108 -0.2766
 5431TIP3    H137784   1.197   1.580   4.294 -0.6563  0.6746  0.4841
 5431TIP3    H237785   1.253   1.457   4.362 -0.9733  0.4317  0.3090
 5432TIP3   OH237786   2.257   0.053   1.099 -0.2897  0.1760  0.0969
 5432TIP3    H137787   2.327  -0.000   1.135 -0.6438  0.0019  0.5404
 5432TIP3    H237788   2.251   0.129   1.157 -0.6442  0.0547  0.2257
 5433TIP3   OH237789   0.293   3.545  36.314 -0.0469  0.1658  0.1477
 5433TIP3    H137790   0.244   3.620  36.346  2.0038  1.6021  0.1540
 5433TIP3    H237791   0.266   3.535  36.223 -1.5736 -0.1879  0.6216
 5434TIP3   OH237792   4.174   3.020  34.518 -0.3954  0.2555  0.7581
 5434TIP3    H137793   4.134   2.933  34.518  1.5633 -0.6928 -0.3045
 5434TIP3    H237794   4.187   3.040  34.426  3.2321 -0.3264  1.0230
 5435TIP3   OH237795   0.743   0.242  28.923  0.1616 -0.0434  0.3332
 5435TIP3    H137796   0.780   0.253  29.010 -0.3984 -1.4512  0.7740
 5435TIP3    H237797   0.815   0.266  28.864  1.0252 -0.4895  1.1708
 5436TIP3   OH237798   0.842   0.297  26.135  0.2876 -1.2311 -0.6503
 5436TIP3    H137799   0.799   0.328  26.055 -0.7767  0.6311  0.5447
 5436TIP3    H237800   0.924   0.345  26.138 -0.5138  0.1707  0.2502
 5437TIP3   OH237801   2.566   1.366  40.093  0.1173 -0.1916 -0.0484
 5437TIP3    H137802   2.472   1.369  40.074  0.3694  0.1739 -1.3921
 5437TIP3    H237803   2.589   1.457  40.111  0.2036 -0.2865  0.3086
 5438TIP3   OH237804   1.929   3.815  40.259 -0.1247  0.0707  0.2885
 5438TIP3    H137805   2.022   3.798  40.246  0.0191  1.6859 -1.1703
 5438TIP3    H237806   1.889   3.729  40.266  1.5633 -0.6624  1.8230
 5439TIP3   OH237807   1.024   2.926  35.777  0.2583 -0.4511  0.0347
 5439TIP3    H137808   1.061   2.899  35.693  0.9544 -1.7629  0.7382
 5439TIP3    H237809   0.962   2.857  35.800  1.3440 -1.0151  1.4033
 5440TIP3   OH237810   1.545   1.918  28.408 -0.2401  0.1999  0.2518
 5440TIP3    H137811   1.488   1.979  28.361 -0.2057  0.0160 -0.0331
 5440TIP3    H237812   1.628   1.965  28.419  0.6434 -0.6411 -2.1620
 5441TIP3   OH237813   1.688   3.299  29.362  0.4519 -0.4505  0.4866
 5441TIP3    H137814   1.603   3.339  29.379  0.7417 -0.3994  1.9018
 5441TIP3    H237815   1.721   3.345  29.284 -1.7799 -2.0395 -1.5673
 5442TIP3   OH237816   3.572   1.051   9.128  0.5928 -0.1791  0.0392
 5442TIP3    H137817   3.644   1.054   9.191  0.2958  0.9366  0.3474
 5442TIP3    H237818   3.603   1.103   9.054 -0.9772  2.9773  1.4077
 5443TIP3   OH237819   3.469   2.502  11.708  0.3321  0.3547 -0.1429
 5443TIP3    H137820   3.455   2.597  11.710 -3.5658  0.0314 -1.7524
 5443TIP3    H237821   3.413   2.472  11.636  1.0174 -3.2401  0.6558
 5444TIP3   OH237822   3.122   3.678  35.995 -0.3665  0.1390  0.0683
 5444TIP3    H137823   3.198   3.661  36.051  1.7563  0.9883 -2.3307
 5444TIP3    H237824   3.119   3.773  35.987 -1.8707  0.1320  0.2914
 5445TIP3   OH237825   0.916   3.777  28.386  0.9492  0.0011  0.3139
 5445TIP3    H137826   0.938   3.692  28.424 -0.7577 -0.0285  1.3140
 5445TIP3    H237827   0.917   3.762  28.292  0.1019 -1.2878  0.4875
 5446TIP3   OH237828   3.405   1.225  24.916 -0.7211  0.3349 -0.0584
 5446TIP3    H137829   3.418   1.197  25.006 -0.7327  0.3450 -0.0535
 5446TIP3    H237830   3.398   1.320  24.921 -3.5097  0.1811  0.2677
 5447TIP3   OH237831   1.619   3.550  31.844 -0.1293 -0.1531  0.1623
 5447TIP3    H137832   1.599   3.638  31.811  0.3401 -0.2744 -0.4518
 5447TIP3    H237833   1.653   3.503  31.768  0.4498 -0.6062  0.6955
 5448TIP3   OH237834   1.592   0.348   7.807 -0.1348 -0.6732  0.5443
 5448TIP3    H137835   1.527   0.282   7.831 -0.0684 -1.4265 -1.1840
 5448TIP3    H237836   1.561   0.428   7.849  0.4222 -1.9619  3.7068
 5449TIP3   OH237837   2.787   0.411  12.722 -0.2732  0.6320  0.1691
 5449TIP3    H137838   2.729   0.383  12.651 -0.6135  0.8230  0.3645
 5449TIP3    H237839   2.872   0.374  12.700  0.0504  2.1061 -1.2443
 5450TIP3   OH237840   1.032   3.860  12.533  0.0770 -0.0841 -0.1651
 5450TIP3    H137841   1.071   3.845  12.619 -1.7967  0.1648  0.7729
 5450TIP3    H237842   1.027   3.955  12.525  0.3374 -0.1038 -0.6162
 5451TIP3   OH237843   3.732   3.831  29.889  0.4388  0.3532 -0.4362
 5451TIP3    H137844   3.800   3.791  29.833 -0.7767 -1.2049 -0.8606
 5451TIP3    H237845   3.770   3.914  29.915  2.9088 -0.8189  0.0631
 5452TIP3   OH237846   0.368   1.368  10.531 -1.0352 -0.6315  0.0085
 5452TIP3    H137847   0.289   1.414  10.561 -1.5268 -1.1080 -0.5244
 5452TIP3    H237848   0.335   1.296  10.478 -0.2118  0.2813 -1.8436
 5453TIP3   OH237849   2.630   2.478  36.929 -0.1415  0.4002 -0.0019
 5453TIP3    H137850   2.568   2.408  36.909  0.0571 -0.4717  2.1844
 5453TIP3    H237851   2.580   2.540  36.982  0.5539  0.2421  0.8510
 5454TIP3   OH237852   3.974   2.728  36.091  0.2840 -0.4420  0.2973
 5454TIP3    H137853   4.020   2.706  36.010  1.2827  0.4449  0.6091
 5454TIP3    H237854   3.882   2.709  36.072  0.4435  0.1155 -1.1783
 5455TIP3   OH237855   2.608   2.547  29.162 -0.0966 -0.5149  0.0439
 5455TIP3    H137856   2.661   2.586  29.093  0.8655  0.1439  1.1419
 5455TIP3    H237857   2.598   2.455  29.135 -0.7382 -0.0122 -1.5534
 5456TIP3   OH237858   3.284   1.342  12.412 -0.1422 -0.3793 -0.7021
 5456TIP3    H137859   3.364   1.389  12.432 -0.0085 -0.6298 -0.6440
 5456TIP3    H237860   3.266   1.289  12.490 -0.3908 -0.2870 -0.6935
 5457TIP3   OH237861   2.735   1.285  37.431  0.1109 -0.0216  0.2756
 5457TIP3    H137862   2.744   1.350  37.501 -2.6994  2.2799 -1.2722
 5457TIP3    H237863   2.787   1.321  37.359  1.2026 -1.2616  0.3968
 5458TIP3   OH237864   2.675   2.337   4.437 -0.1617  0.1044  0.1221
 5458TIP3    H137865   2.717   2.280   4.501  0.2450 -0.0754 -0.3017
 5458TIP3    H237866   2.674   2.286   4.356 -0.9198  0.2232  0.0436
 5459TIP3   OH237867   2.895   1.516  30.271  0.3870  0.1250  0.3442
 5459TIP3    H137868   2.876   1.589  30.211 -0.5364 -0.3101  0.0826
 5459TIP3    H237869   2.960   1.551  30.331  2.0539  0.2930 -1.4558
 5460TIP3   OH237870   0.015   1.347  33.366  0.0826  0.2006 -0.3310
 5460TIP3    H137871  -0.019   1.423  33.415  0.2572 -0.6433  1.1540
 5460TIP3    H237872   0.078   1.306  33.426 -1.9235 -2.6410  0.0346
 5461TIP3   OH237873   2.489   0.393  26.667 -0.1177  0.0289  0.2317
 5461TIP3    H137874   2.481   0.301  26.642  1.2960 -0.3516  1.0270
 5461TIP3    H237875   2.529   0.390  26.754  0.4764  1.4035  0.0284
 5462TIP3   OH237876   1.929   1.501   6.479  0.0624  0.3362 -0.4640
 5462TIP3    H137877   1.998   1.447   6.518 -0.4832 -1.6878 -2.1083
 5462TIP3    H237878   1.975   1.556   6.415  0.3398 -0.0603 -0.6159
 5463TIP3   OH237879   3.968   0.821  27.124 -0.2002  0.2888  0.0748
 5463TIP3    H137880   4.030   0.862  27.063  2.0960 -2.4204  0.3863
 5463TIP3    H237881   3.882   0.848  27.092  1.0146  2.0988 -2.0053
 5464TIP3   OH237882   0.330   3.318   6.391  0.1467  0.3813  0.4393
 5464TIP3    H137883   0.383   3.339   6.468  1.6222 -0.3855 -0.3217
 5464TIP3    H237884   0.250   3.370   6.401  0.1807  0.0922  2.6190
 5465TIP3   OH237885   1.859   0.943   7.777  0.5453 -0.4249  0.0073
 5465TIP3    H137886   1.792   0.874   7.784  0.6033 -0.6151 -1.0273
 5465TIP3    H237887   1.889   0.957   7.866  0.7907 -2.0163  0.2085
 5466TIP3   OH237888   2.642   2.659  33.070 -0.6362 -0.0539  0.4034
 5466TIP3    H137889   2.570   2.714  33.101  0.1251  0.5414  1.1778
 5466TIP3    H237890   2.721   2.705  33.098  0.1658  0.6241 -2.5822
 5467TIP3   OH237891   4.375   0.009  30.849 -0.8616 -0.6157 -0.1575
 5467TIP3    H137892   4.336   0.097  30.853 -1.0225 -0.7183  0.9026
 5467TIP3    H237893   4.447   0.013  30.912 -2.7646 -2.1374  2.2612
 5468TIP3   OH237894   3.003   4.062  13.087  0.0575 -0.2886 -0.7319
 5468TIP3    H137895   3.011   4.044  12.993  2.6213  0.0330 -0.6314
 5468TIP3    H237896   3.085   4.031  13.124 -0.3924  0.7677  1.2397
 5469TIP3   OH237897   1.153   4.341  32.269 -0.1074  0.1656  0.0925
 5469TIP3    H137898   1.244   4.366  32.254 -0.1349  0.9058  1.0926
 5469TIP3    H237899   1.127   4.388  32.349 -0.1823 -2.9779  2.0997
 5470TIP3   OH237900   2.115   2.362  35.558 -0.0197  0.5828  0.6237
 5470TIP3    H137901   2.090   2.422  35.628 -0.3711  1.2504 -0.0504
 5470TIP3    H237902   2.146   2.420  35.487  0.4600 -0.0783  0.2802
 5471TIP3   OH237903   3.218   0.263  27.730 -0.2267  0.4717  0.0911
 5471TIP3    H137904   3.156   0.241  27.660  1.6353 -1.1958 -1.1561
 5471TIP3    H237905   3.241   0.354  27.715 -0.7145  0.4606 -0.7823
 5472TIP3   OH237906   1.060   1.999   2.513 -0.4642  0.1118 -0.0225
 5472TIP3    H137907   1.085   2.050   2.590  0.8053  0.6010 -0.7259
 5472TIP3    H237908   1.115   1.921   2.518 -0.3802  0.1433 -0.4221
 5473TIP3   OH237909   3.830   3.257  31.559 -0.1128  0.0805 -0.2916
 5473TIP3    H137910   3.864   3.320  31.496 -0.1554 -0.0393 -0.4351
 5473TIP3    H237911   3.735   3.262  31.550 -0.1043 -0.2818 -0.5748
 5474TIP3   OH237912   4.149   0.602  38.687  0.2382  0.2427 -0.5527
 5474TIP3    H137913   4.236   0.608  38.726 -0.5054 -0.3550  1.3029
 5474TIP3    H237914   4.103   0.680  38.718 -0.0510  0.3129 -1.1355
 5475TIP3   OH237915   2.279   2.548  39.810  0.1960 -0.1940 -0.2829
 5475TIP3    H137916   2.251   2.496  39.886  1.3958 -0.0700  0.2619
 5475TIP3    H237917   2.374   2.535  39.805  0.3378  0.9427 -0.9017
 5476TIP3   OH237918   0.311   0.462  13.596 -0.0259  0.1958  0.1835
 5476TIP3    H137919   0.321   0.383  13.649 -0.1851  0.5307  0.7252
 5476TIP3    H237920   0.255   0.437  13.524  1.0378 -0.5472 -0.4131
 5477TIP3   OH237921   4.050   4.066   5.108  0.5709 -0.3543 -0.4780
 5477TIP3    H137922   3.985   3.997   5.123 -1.5589  1.1690 -2.0128
 5477TIP3    H237923   4.027   4.135   5.169  1.1231 -0.0134 -0.6442
 5478TIP3   OH237924   3.502   1.690  11.411  0.4512  0.4917  0.0543
 5478TIP3    H137925   3.534   1.674  11.500 -0.2450  1.5502  0.5218
 5478TIP3    H237926   3.485   1.784  11.409 -2.6291  0.0136 -0.1365
 5479TIP3   OH237927   2.418   4.177  29.787  0.2350 -0.0783  0.0411
 5479TIP3    H137928   2.437   4.099  29.839  1.3684  0.2090  0.0817
 5479TIP3    H237929   2.358   4.228  29.842 -0.6637 -0.9915 -0.0656
 5480TIP3   OH237930   3.004   2.160   4.390  0.5085  0.4694 -0.5885
 5480TIP3    H137931   3.072   2.096   4.372 -0.2852 -0.9576  1.1950
 5480TIP3    H237932   3.046   2.222   4.451 -0.2142 -1.5101  2.1211
 5481TIP3   OH237933   2.086   3.769  35.361 -0.1228  0.1197  0.4141
 5481TIP3    H137934   2.043   3.684  35.377  1.3086 -0.5652  0.7872
 5481TIP3    H237935   2.160   3.769  35.420  1.4304  0.4824 -1.4447
 5482TIP3   OH237936   1.301   3.974  33.886 -0.0896  0.1540  0.6390
 5482TIP3    H137937   1.335   3.985  33.797 -1.7207  2.4792  0.1904
 5482TIP3    H237938   1.240   3.901  33.880  1.1042 -0.8342  0.2838
 5483TIP3   OH237939   4.212   2.880   8.666 -0.5771  0.0961 -0.1145
 5483TIP3    H137940   4.211   2.798   8.715  0.6593  0.0314 -0.1681
 5483TIP3    H237941   4.146   2.869   8.598  1.5420 -2.0665 -2.0188
 5484TIP3   OH237942   2.215   3.454  33.165 -0.1872 -0.1139 -0.2778
 5484TIP3    H137943   2.174   3.417  33.087 -1.2057 -0.3357  0.3430
 5484TIP3    H237944   2.307   3.433  33.156 -0.3786 -0.6328 -1.1422
 5485TIP3   OH237945   3.241   0.733  30.995 -0.1090 -0.0437  0.0722
 5485TIP3    H137946   3.164   0.729  31.052  0.1082 -1.5446  0.2956
 5485TIP3    H237947   3.255   0.642  30.968  2.5180 -0.0814  1.2778
 5486TIP3   OH237948   2.913   1.711  40.984  0.3334 -0.1009  0.2934
 5486TIP3    H137949   2.951   1.661  41.056  0.0017 -0.9895 -0.1277
 5486TIP3    H237950   2.841   1.656  40.952 -0.8302  1.1919  0.5934
 5487TIP3   OH237951   2.708   1.632  31.645  0.2488 -0.6287 -0.1937
 5487TIP3    H137952   2.779   1.575  31.674 -0.0820 -0.8314  0.2374
 5487TIP3    H237953   2.632   1.603  31.696  0.5187  1.5705  1.5996
 5488TIP3   OH237954   4.088   3.783  37.612  0.4879  0.1460 -0.5544
 5488TIP3    H137955   4.047   3.802  37.696  0.7125  1.4084 -0.7088
 5488TIP3    H237956   4.167   3.733  37.635 -1.0416 -2.2532 -0.2563
 5489TIP3   OH237957   3.098   0.300  33.285 -0.6550 -0.0840  0.3878
 5489TIP3    H137958   3.132   0.348  33.210 -1.9049 -0.7612 -0.6559
 5489TIP3    H237959   3.143   0.216  33.282 -1.6225 -0.5994 -0.4015
 5490TIP3   OH237960   1.004   1.908  32.610 -0.5329  0.2649  0.4636
 5490TIP3    H137961   1.064   1.833  32.611  0.7192  1.2377  0.6648
 5490TIP3    H237962   1.031   1.959  32.534 -1.1388  0.7047  0.5397
 5491TIP3   OH237963   0.570   3.255  12.296  0.4440  0.0912 -0.0749
 5491TIP3    H137964   0.609   3.168  12.287 -1.9241 -1.2590  1.6250
 5491TIP3    H237965   0.571   3.272  12.390 -0.6070  1.1761 -0.2316
 5492TIP3   OH237966   2.639   0.600  12.860 -0.3475  0.5314  0.1878
 5492TIP3    H137967   2.704   0.538  12.826 -0.0573 -0.5657  2.4846
 5492TIP3    H237968   2.605   0.645  12.783 -0.4404 -2.3569 -1.6192
 5493TIP3   OH237969   2.982   3.915  29.990  0.5207  0.0311 -0.6115
 5493TIP3    H137970   3.048   3.960  29.937  0.2709  0.4795 -0.5445
 5493TIP3    H237971   2.970   3.831  29.946 -0.6871  0.9333 -2.0983
 5494TIP3   OH237972   4.091   2.889   4.233  0.0950  0.6811 -0.1640
 5494TIP3    H137973   4.129   2.846   4.156 -0.8619 -1.9437  0.7096
 5494TIP3    H237974   4.161   2.887   4.299 -0.3914 -1.0409  0.3548
 5495TIP3   OH237975   1.589   4.273   8.381 -0.1908  0.0020  0.5723
 5495TIP3    H137976   1.662   4.211   8.383  0.6961  1.0362  1.4940
 5495TIP3    H237977   1.578   4.301   8.471 -1.7650 -0.1291  0.4565
 5496TIP3   OH237978   2.393   2.033  31.276 -0.0269 -0.0470  0.0595
 5496TIP3    H137979   2.437   1.991  31.202 -0.1350  1.9237 -1.2132
 5496TIP3    H237980   2.449   2.016  31.351  0.7392 -1.0613 -0.7234
 5497TIP3   OH237981   2.504   2.510  11.216 -0.0127  0.1407 -0.0231
 5497TIP3    H137982   2.597   2.503  11.192  0.0304 -0.5015  0.3044
 5497TIP3    H237983   2.459   2.522  11.132  0.4154  1.0439 -0.1333
 5498TIP3   OH237984   2.195   3.872   1.416  0.3323  0.1093 -0.5149
 5498TIP3    H137985   2.131   3.846   1.349  0.2537  0.9842 -0.7871
 5498TIP3    H237986   2.280   3.868   1.371  0.1602  2.0721 -1.1351
 5499TIP3   OH237987   3.637   3.984  40.871 -0.2089 -0.1322 -0.3323
 5499TIP3    H137988   3.550   3.969  40.908 -0.6498  0.1444 -1.2388
 5499TIP3    H237989   3.690   3.913  40.907 -0.4271  0.5217  1.4084
 5500TIP3   OH237990   3.179   2.876  29.569 -0.3557 -0.2441  0.2171
 5500TIP3    H137991   3.260   2.900  29.523 -1.4270  0.6203 -1.3192
 5500TIP3    H237992   3.209   2.828  29.647  1.7450  2.5653  1.2937
 5501TIP3   OH237993   4.254   4.283   7.695  0.1009 -0.3464 -0.2129
 5501TIP3    H137994   4.225   4.356   7.642  2.3661  0.3515 -0.6270
 5501TIP3    H237995   4.269   4.212   7.633  1.2205 -0.0275 -0.3405
 5502TIP3   OH237996   3.688   1.663  28.960  0.3079 -0.0528  0.0040
 5502TIP3    H137997   3.599   1.698  28.961 -0.0033 -0.7217 -1.4320
 5502TIP3    H237998   3.677   1.571  28.936  1.2857 -0.5579  1.3820
 5503TIP3   OH237999   4.265   2.188   6.256 -0.3481  0.3326  0.6205
 5503TIP3    H138000   4.242   2.238   6.335  0.1126  0.2492  0.8108
 5503TIP3    H238001   4.322   2.246   6.206  0.8697 -0.2889  1.2396
 5504TIP3   OH238002   0.419   1.310  27.173 -0.2511  0.2065  0.0005
 5504TIP3    H138003   0.470   1.329  27.095 -1.4135 -0.8531 -1.0737
 5504TIP3    H238004   0.466   1.353  27.244  0.0129  2.5604 -1.4790
 5505TIP3   OH238005   0.472   3.541   1.707 -0.1420 -0.0558 -1.3692
 5505TIP3    H138006   0.407   3.503   1.648 -0.6006  2.9277 -3.0443
 5505TIP3    H238007   0.513   3.610   1.654  1.3311  0.9964  1.0021
 5506TIP3   OH238008   0.893   3.621   8.027  0.4826 -0.2499  0.4144
 5506TIP3    H138009   0.890   3.553   8.095 -0.7312 -0.5365  0.0887
 5506TIP3    H238010   0.972   3.672   8.048  1.4317 -1.7536  0.6552
 5507TIP3   OH238011   1.456   0.237  29.894  0.3969 -0.6804  0.4798
 5507TIP3    H138012   1.461   0.322  29.938  2.3310 -1.5080  2.0226
 5507TIP3    H238013   1.478   0.256  29.802  0.7690  0.4950  0.7904
 5508TIP3   OH238014   1.241   1.728  27.867 -0.2283  0.5596  0.4892
 5508TIP3    H138015   1.233   1.823  27.862  0.5489  0.5850 -0.9133
 5508TIP3    H238016   1.308   1.706  27.801 -1.1499 -1.0485  0.0297
 5509TIP3   OH238017   2.447   3.082  31.706 -0.0077 -0.0053 -0.0089
 5509TIP3    H138018   2.381   3.145  31.678 -0.6236 -1.2138 -1.3748
 5509TIP3    H238019   2.445   3.013  31.640  0.5256 -1.5525  1.5015
 5510TIP3   OH238020   3.749   0.339  27.530  0.4547 -0.1092 -0.2709
 5510TIP3    H138021   3.702   0.271  27.482 -1.7068  1.3654 -0.3886
 5510TIP3    H238022   3.836   0.341  27.490  0.3844 -2.2895 -0.7002
 5511TIP3   OH238023   1.719   1.850   5.425  0.1398  0.2000 -0.0648
 5511TIP3    H138024   1.676   1.935   5.433 -0.3758 -0.0856  0.2134
 5511TIP3    H238025   1.677   1.809   5.349  0.1458  0.0478  0.0141
 5512TIP3   OH238026   2.240   4.147   9.704 -0.5708 -0.4370 -0.0103
 5512TIP3    H138027   2.243   4.219   9.768 -1.9933 -0.0186 -0.3712
 5512TIP3    H238028   2.316   4.162   9.648 -1.0418  1.0301 -0.3075
 5513TIP3   OH238029   1.277   2.220  40.907  0.1420  0.2252  0.2821
 5513TIP3    H138030   1.288   2.128  40.882 -0.2514  0.6409 -1.5714
 5513TIP3    H238031   1.199   2.249  40.860  0.6897  1.7129  0.2328
 5514TIP3   OH238032   0.383   3.929  21.319 -0.0752  0.0451  0.2119
 5514TIP3    H138033   0.344   3.850  21.358 -0.2398 -0.5384 -1.0763
 5514TIP3    H238034   0.354   4.000  21.376 -1.0563 -0.6616  0.6326
 5515TIP3   OH238035   2.326   3.058  33.845 -0.1565  0.0807  0.0849
 5515TIP3    H138036   2.307   2.975  33.801  1.6200 -0.1704 -0.2853
 5515TIP3    H238037   2.322   3.123  33.775 -1.3255  0.2941  0.3350
 5516TIP3   OH238038   2.336   0.191  19.345 -0.0728 -0.3181 -0.3025
 5516TIP3    H138039   2.379   0.192  19.430  0.3631 -0.4183 -0.5217
 5516TIP3    H238040   2.356   0.276  19.307 -1.5414  0.3497  0.3200
 5517TIP3   OH238041   1.691   3.142   7.904 -0.8747  0.1349  0.5807
 5517TIP3    H138042   1.773   3.138   7.955  0.2258 -0.2358 -1.1392
 5517TIP3    H238043   1.644   3.216   7.942  0.7237  1.0203  0.9702
 5518TIP3   OH238044   2.441   3.264   1.658 -0.2072  0.3879 -0.2696
 5518TIP3    H138045   2.514   3.236   1.602  0.8102  0.3501  1.0338
 5518TIP3    H238046   2.364   3.223   1.618  0.5258  0.0680 -1.4291
 5519TIP3   OH238047   2.120   1.329   5.140 -0.4456  0.1658 -0.2453
 5519TIP3    H138048   2.030   1.296   5.145  0.2123 -1.7177 -0.0672
 5519TIP3    H238049   2.119   1.390   5.066 -1.5165 -1.0537 -1.2856
 5520TIP3   OH238050   0.660   4.276  37.244  0.6619  0.0814  0.1875
 5520TIP3    H138051   0.591   4.248  37.304  0.5951 -0.3558 -0.0941
 5520TIP3    H238052   0.731   4.306  37.302  1.2494 -1.8452  0.5400
 5521TIP3   OH238053   4.137   1.074   3.009 -0.1357  0.1745  0.1691
 5521TIP3    H138054   4.073   1.048   3.076 -0.2894 -1.4635 -0.5625
 5521TIP3    H238055   4.095   1.053   2.926  0.7079  0.6309 -0.3930
 5522TIP3   OH238056   1.220   2.469  10.540 -0.6428  0.4278  0.1268
 5522TIP3    H138057   1.258   2.381  10.542 -0.7066  0.4051  1.0249
 5522TIP3    H238058   1.244   2.504  10.454  0.7578  0.1299  0.3627
 5523TIP3   OH238059   1.335   2.572  39.377 -0.1481  0.6119 -0.1913
 5523TIP3    H138060   1.257   2.542  39.425  0.1831  0.0914  0.0352
 5523TIP3    H238061   1.408   2.532  39.424  0.2315  0.7740 -0.6421
 5524TIP3   OH238062   1.962   2.536  14.664 -0.4422  0.8113 -0.3539
 5524TIP3    H138063   1.958   2.616  14.612  1.2359  1.3468  0.2748
 5524TIP3    H238064   2.029   2.482  14.621 -0.0112  0.6830  0.4433
 5525TIP3   OH238065   3.211   0.591   3.203  0.4080 -0.2526 -0.0424
 5525TIP3    H138066   3.229   0.663   3.144  3.0347 -0.7766 -0.0061
 5525TIP3    H238067   3.297   0.562   3.233 -0.5412 -3.2073  0.1847
 5526TIP3   OH238068   3.951   3.364   4.428  0.4308 -0.3851  0.0901
 5526TIP3    H138069   4.010   3.308   4.478  1.2394  0.3066 -0.0690
 5526TIP3    H238070   3.967   3.453   4.461 -0.3569 -0.1502 -0.1160
 5527TIP3   OH238071   1.017   2.826   8.160 -0.1526  0.4801  0.3528
 5527TIP3    H138072   1.002   2.913   8.197  1.9617  0.5756  1.1014
 5527TIP3    H238073   1.032   2.770   8.236  1.0004 -0.0114 -0.2171
 5528TIP3   OH238074   3.362   1.559  10.535  0.2492  0.4866  0.0403
 5528TIP3    H138075   3.272   1.588  10.551  0.1814 -1.2070  3.7313
 5528TIP3    H238076   3.415   1.609  10.597  1.4184 -0.6174 -0.0170
 5529TIP3   OH238077   2.702   1.410   7.088 -0.5005 -1.1539 -0.2188
 5529TIP3    H138078   2.662   1.492   7.118  0.6700 -0.7662  0.3198
 5529TIP3    H238079   2.727   1.427   6.997 -0.3433 -0.9436 -0.1376
 5530TIP3   OH238080   0.150   3.178  36.942 -0.2707  0.0202  0.2628
 5530TIP3    H138081   0.184   3.141  36.860 -1.9733 -0.2987 -0.3516
 5530TIP3    H238082   0.075   3.123  36.963 -0.9620  1.2188  1.0401
 5531TIP3   OH238083   0.733   0.225  11.827 -0.0686 -0.2770 -0.6318
 5531TIP3    H138084   0.824   0.211  11.801  0.3100  0.6138  0.1496
 5531TIP3    H238085   0.696   0.137  11.830  1.0658 -0.7586  0.0618
 5532TIP3   OH238086   4.296   2.014  26.887 -0.0444  0.2752  0.2335
 5532TIP3    H138087   4.225   2.069  26.854 -0.7795 -1.3979 -1.0748
 5532TIP3    H238088   4.290   2.024  26.983 -2.6846 -0.5354  0.2407
 5533TIP3   OH238089   0.813   1.496  30.941 -0.4073 -0.2733  0.2313
 5533TIP3    H138090   0.767   1.571  30.979 -3.5048 -2.4682  1.2902
 5533TIP3    H238091   0.873   1.467  31.010  0.5268  0.9363 -0.0450
 5534TIP3   OH238092   3.331   2.672  33.117  0.0836 -0.0534 -0.2749
 5534TIP3    H138093   3.261   2.709  33.064  0.0293  0.3122  0.0419
 5534TIP3    H238094   3.318   2.577  33.112 -1.1225  0.0258  0.6744
 5535TIP3   OH238095   0.963   3.827  39.329  0.0503  0.0496 -0.1624
 5535TIP3    H138096   1.018   3.842  39.406 -0.8260  1.1120  0.2869
 5535TIP3    H238097   1.022   3.841  39.254  0.9279 -1.0734  0.2922
 5536TIP3   OH238098   0.742   3.119  31.031  0.2628  0.2674  0.1468
 5536TIP3    H138099   0.752   3.111  31.125 -1.0518 -1.0160  0.2045
 5536TIP3    H238100   0.831   3.113  30.997  0.7752  0.9910  1.3054
 5537TIP3   OH238101   4.267   0.220  28.803 -0.1068 -0.4753  0.3184
 5537TIP3    H138102   4.299   0.199  28.715  2.1023  1.5264  0.5581
 5537TIP3    H238103   4.223   0.140  28.832 -1.3860 -1.0066 -2.7817
 5538TIP3   OH238104   0.183   0.514  39.467 -0.1416 -0.2374 -0.0670
 5538TIP3    H138105   0.094   0.510  39.430 -0.0579 -1.0671 -0.1914
 5538TIP3    H238106   0.206   0.423  39.485 -0.2303  0.1276  2.2019
 5539TIP3   OH238107   3.163   0.109  41.003  0.7267 -0.3762  0.1130
 5539TIP3    H138108   3.202   0.023  41.019  1.1280 -0.2355 -0.0869
 5539TIP3    H238109   3.149   0.112  40.908  2.3467  0.4408 -0.1477
 5540TIP3   OH238110   0.797   2.458  31.244  0.2216 -0.3165 -0.3943
 5540TIP3    H138111   0.846   2.385  31.206  0.7481 -0.3082  0.2535
 5540TIP3    H238112   0.827   2.462  31.335  0.5791  1.0243 -0.5515
 5541TIP3   OH238113   2.007   0.907   9.184 -1.0912  0.8274 -0.1035
 5541TIP3    H138114   1.978   0.855   9.258 -2.0115  2.6078  0.8437
 5541TIP3    H238115   1.936   0.897   9.119 -2.0108  2.0549  0.6726
 5542TIP3   OH238116   3.926   0.448  26.323  0.1292 -0.1526 -0.4784
 5542TIP3    H138117   3.951   0.380  26.385  1.1410  1.6163  1.1573
 5542TIP3    H238118   3.979   0.430  26.245  1.7878 -0.2026  0.6072
 5543TIP3   OH238119   3.354   3.661  35.774  0.5634  0.2151 -0.1102
 5543TIP3    H138120   3.333   3.577  35.814  1.0626 -0.3604 -1.0146
 5543TIP3    H238121   3.393   3.712  35.844  0.2725 -0.3168  0.4472
 5544TIP3   OH238122   1.929   2.795  14.538  0.4190  0.2061  0.6657
 5544TIP3    H138123   2.011   2.813  14.491  0.3751 -0.7395  0.1971
 5544TIP3    H238124   1.861   2.799  14.470  0.1306  0.5691  0.9741
 5545TIP3   OH238125   1.928   2.684  31.851 -0.1024  0.3614 -0.7179
 5545TIP3    H138126   1.978   2.632  31.913 -1.8722 -0.8470 -0.2293
 5545TIP3    H238127   1.933   2.774  31.884 -2.1729 -0.4297  2.0881
 5546TIP3   OH238128   3.116   2.521  39.433  0.0108  0.1532 -0.0654
 5546TIP3    H138129   3.098   2.484  39.347 -0.4440 -0.2867  0.2138
 5546TIP3    H238130   3.183   2.464  39.471 -1.6394 -1.2371  0.9003
 5547TIP3   OH238131   2.620   0.094  29.141  0.1235 -0.0178 -0.1882
 5547TIP3    H138132   2.620   0.054  29.054  1.0985  1.2389 -0.7896
 5547TIP3    H238133   2.558   0.167  29.133 -0.4680 -0.4358  0.4539
 5548TIP3   OH238134   3.155   1.706  32.018 -0.2251  0.1629  0.0052
 5548TIP3    H138135   3.209   1.629  32.037  0.2203  0.7906  1.4577
 5548TIP3    H238136   3.078   1.696  32.075 -0.8619  0.0962 -0.8489
 5549TIP3   OH238137   2.606   4.141  34.778  0.0288  0.3189  0.2232
 5549TIP3    H138138   2.678   4.157  34.718 -2.0175  0.7299 -2.2927
 5549TIP3    H238139   2.552   4.075  34.735 -1.0905 -0.0472  2.0504
 5550TIP3   OH238140   3.166   1.415  31.848 -0.3451  0.2012  0.4504
 5550TIP3    H138141   3.174   1.339  31.905 -1.0198  0.9907  1.6479
 5550TIP3    H238142   3.226   1.397  31.776  0.3620 -0.9454  1.2822
 5551TIP3   OH238143   2.156   0.321  17.162 -0.3812  0.5153 -0.2016
 5551TIP3    H138144   2.153   0.309  17.257  0.2077  2.4028  0.1033
 5551TIP3    H238145   2.139   0.415  17.150  0.7773  0.5502 -1.8659
 5552TIP3   OH238146   4.029   4.255  27.014  0.6632 -0.0862  0.0680
 5552TIP3    H138147   4.065   4.299  27.091  1.6410  0.0379 -0.4470
 5552TIP3    H238148   4.104   4.243  26.956  0.0093 -0.5303 -0.7034
 5553TIP3   OH238149   1.560   1.233  30.732 -0.0538 -0.2716 -0.4808
 5553TIP3    H138150   1.479   1.182  30.739 -0.3155  0.2108  0.1626
 5553TIP3    H238151   1.533   1.323  30.750  0.8992 -0.3378  1.5760
 5554TIP3   OH238152   4.245   2.652  38.589  0.0476  0.3444 -0.5229
 5554TIP3    H138153   4.225   2.678  38.499 -0.8010  0.1179 -0.4034
 5554TIP3    H238154   4.207   2.565  38.598 -1.1205  0.9336  0.4825
 5555TIP3   OH238155   2.835   1.663  27.591  0.0099  0.0763  0.3653
 5555TIP3    H138156   2.787   1.648  27.673  0.8705  0.9281  1.0409
 5555TIP3    H238157   2.926   1.676  27.618  0.8345 -2.4127 -0.9774
 5556TIP3   OH238158   4.398   3.179  41.655  0.1306  0.1764  0.1135
 5556TIP3    H138159   4.308   3.149  41.639 -0.4480  0.7583  2.1065
 5556TIP3    H238160   4.431   3.201  41.568 -1.3855 -0.7558 -0.7477
 5557TIP3   OH238161   2.246   3.757   3.200 -0.6777 -0.1778 -0.1356
 5557TIP3    H138162   2.322   3.746   3.142  0.9468 -0.7983  2.0023
 5557TIP3    H238163   2.235   3.672   3.242  0.3105  1.0550  2.8685
 5558TIP3   OH238164   2.465   1.296   5.780  0.0112  0.2568 -0.5952
 5558TIP3    H138165   2.451   1.322   5.689  1.1847 -0.7013 -1.0838
 5558TIP3    H238166   2.501   1.207   5.774 -1.2739 -0.4075  0.8732
 5559TIP3   OH238167   3.059   1.716  29.127  0.0751 -0.1456  0.6366
 5559TIP3    H138168   2.970   1.737  29.100  0.7054 -0.7562 -2.3966
 5559TIP3    H238169   3.049   1.651  29.197 -1.9334 -1.4056 -0.7021
 5560TIP3   OH238170   0.174   0.479  28.838  0.1051 -0.3224  0.4418
 5560TIP3    H138171   0.091   0.472  28.885  0.6455  1.5981  1.8248
 5560TIP3    H238172   0.222   0.547  28.885  1.4422  0.4209 -1.8535
 5561TIP3   OH238173   1.955   0.018  13.412 -0.5922  0.4281  0.1189
 5561TIP3    H138174   2.003  -0.018  13.337 -1.0485 -1.3717  0.6321
 5561TIP3    H238175   1.864  -0.010  13.398 -0.4379 -1.2296  2.0370
 5562TIP3   OH238176   3.723   0.666  25.353 -0.1278  0.2532 -0.1389
 5562TIP3    H138177   3.638   0.678  25.311  0.1133  0.3918 -0.5963
 5562TIP3    H238178   3.772   0.746  25.332  0.7002 -0.5291 -1.3108
 5563TIP3   OH238179   0.725   0.099  29.932 -0.0940 -0.0251 -0.2118
 5563TIP3    H138180   0.686   0.168  29.985 -0.1309  0.5819 -1.0122
 5563TIP3    H238181   0.784   0.145  29.872  0.8722 -0.8038  0.1053
 5564TIP3   OH238182   0.050   4.304  12.621  0.6302 -0.5497 -0.4211
 5564TIP3    H138183  -0.001   4.322  12.542  0.6974 -1.1051 -0.5965
 5564TIP3    H238184   0.089   4.388  12.644 -0.0012 -0.2133 -0.5414
 5565TIP3   OH238185   0.148   1.394  29.060 -0.1554  0.1892 -0.6412
 5565TIP3    H138186   0.134   1.347  29.142  0.0990  0.3330 -0.5147
 5565TIP3    H238187   0.166   1.325  28.996 -3.1255 -0.1888 -1.2223
 5566TIP3   OH238188   3.044   0.566   4.991  0.0150  0.0365  0.1585
 5566TIP3    H138189   3.033   0.579   4.896  1.6636  0.5693  0.0064
 5566TIP3    H238190   3.130   0.602   5.010  0.0241 -0.7502  1.7537
 5567TIP3   OH238191   1.018   2.841  33.555 -0.3102 -0.1771  0.2942
 5567TIP3    H138192   1.111   2.859  33.545 -0.5713  0.6662 -0.7596
 5567TIP3    H238193   1.014   2.748  33.578  0.7782 -0.2864  0.0847
 5568TIP3   OH238194   0.810   2.076   6.429  0.6063 -0.1726  0.1749
 5568TIP3    H138195   0.804   1.989   6.467  0.8845  0.5443  1.9596
 5568TIP3    H238196   0.839   2.061   6.339 -0.7129 -1.9749  0.0097
 5569TIP3   OH238197   0.449   2.471   7.820 -0.1521 -0.1031 -0.2720
 5569TIP3    H138198   0.443   2.484   7.725 -0.3090 -0.2867 -0.2900
 5569TIP3    H238199   0.423   2.379   7.832  0.0698 -0.1385 -0.0720
 5570TIP3   OH238200   1.834   0.076  30.448  0.2431 -0.5830 -0.3110
 5570TIP3    H138201   1.781   0.079  30.528  1.5916 -0.7924  0.6108
 5570TIP3    H238202   1.923   0.058  30.478  0.6074 -1.7444 -1.9436
 5571TIP3   OH238203   3.871   0.664  38.440 -0.1519  0.1852  0.6320
 5571TIP3    H138204   3.960   0.633  38.455 -0.0700  0.6406  1.1485
 5571TIP3    H238205   3.819   0.625  38.511  0.0776  1.6996  1.6919
 5572TIP3   OH238206   4.308   0.064  33.596 -0.2833  0.1931  0.4295
 5572TIP3    H138207   4.375   0.003  33.565 -1.7535 -1.2919  0.0036
 5572TIP3    H238208   4.357   0.131  33.644  1.3390 -2.2016  2.3617
 5573TIP3   OH238209   3.404   4.366   8.047 -0.0527  0.3976  0.1181
 5573TIP3    H138210   3.343   4.295   8.028  0.3652  0.5229 -1.9169
 5573TIP3    H238211   3.441   4.344   8.132  0.6681 -2.2505 -0.7884
 5574TIP3   OH238212   0.290   0.466  31.981  0.3358 -0.4448 -0.1849
 5574TIP3    H138213   0.252   0.454  32.068  1.2269 -2.5259 -0.0193
 5574TIP3    H238214   0.268   0.385  31.934  1.3071 -0.0726 -1.3287
 5575TIP3   OH238215   2.074   4.185  41.528  0.1889 -0.4120 -0.3958
 5575TIP3    H138216   2.169   4.174  41.527  0.3554  0.7087  0.4525
 5575TIP3    H238217   2.054   4.238  41.451  0.4950  0.8623  0.3695
 5576TIP3   OH238218   1.125   2.118   6.787  0.3788 -0.6637 -0.3256
 5576TIP3    H138219   1.059   2.052   6.809  0.7236 -0.4073  1.7055
 5576TIP3    H238220   1.205   2.067   6.771  0.3246 -0.8209 -0.1044
 5577TIP3   OH238221   3.662   1.327  24.773  0.0351  0.0096  0.1084
 5577TIP3    H138222   3.602   1.254  24.791  0.7728 -1.2032 -1.9453
 5577TIP3    H238223   3.615   1.405  24.802 -1.0825 -1.1954  1.7310
 5578TIP3   OH238224   2.232   3.426   7.240 -0.2334 -0.0141 -0.2837
 5578TIP3    H138225   2.298   3.397   7.303  0.4493 -1.8101 -1.7133
 5578TIP3    H238226   2.156   3.370   7.256 -2.4979  3.4736  2.8371
 5579TIP3   OH238227   3.263   3.656  34.241 -0.4497 -0.6778 -0.5966
 5579TIP3    H138228   3.258   3.659  34.337  0.9913 -1.5345 -0.4541
 5579TIP3    H238229   3.262   3.563  34.220  0.5797 -0.5570 -1.2904
 5580TIP3   OH238230   0.906   1.532   4.307 -0.2265 -0.7011 -0.5858
 5580TIP3    H138231   0.996   1.500   4.320 -0.0067  0.0597 -0.1753
 5580TIP3    H238232   0.851   1.460   4.340  0.2839 -0.1154  1.7664
 5581TIP3   OH238233   2.597   3.358  36.689 -0.1123  0.0881  0.2257
 5581TIP3    H138234   2.558   3.295  36.628 -1.2656  0.0026  1.0113
 5581TIP3    H238235   2.549   3.344  36.771 -0.1551  1.7677  0.5161
 5582TIP3   OH238236   0.138   2.050  30.588 -0.0134  0.0359 -0.1251
 5582TIP3    H138237   0.194   1.983  30.627 -2.4602 -1.5130  0.9211
 5582TIP3    H238238   0.141   2.123  30.650 -0.2035 -0.5665  0.6074
 5583TIP3   OH238239   3.008   1.330   5.538  0.1553  0.2599 -0.0682
 5583TIP3    H138240   3.084   1.297   5.490 -0.0431  0.1487 -0.3076
 5583TIP3    H238241   2.943   1.347   5.471  0.7450  2.5906 -0.1401
 5584TIP3   OH238242   4.285   4.181  39.518  0.1268 -0.0573  0.0043
 5584TIP3    H138243   4.257   4.094  39.545  0.2262 -0.6280 -1.6289
 5584TIP3    H238244   4.249   4.191  39.430  0.8773  1.1981 -0.1799
 5585TIP3   OH238245   0.996   4.121   0.922 -0.2651  0.1629  0.3869
 5585TIP3    H138246   1.059   4.193   0.928  1.0554 -0.8532 -0.4264
 5585TIP3    H238247   1.051   4.043   0.908 -1.5500 -1.1731  2.2642
 5586TIP3   OH238248   4.241   2.856  33.855 -0.6671  0.4931  0.8087
 5586TIP3    H138249   4.311   2.919  33.868 -0.5715  0.5842 -0.0662
 5586TIP3    H238250   4.205   2.840  33.942  0.3040  0.5985  1.2358
 5587TIP3   OH238251   4.040   2.972  36.197  0.2387  0.1863 -0.6235
 5587TIP3    H138252   4.133   2.968  36.219  1.3013  2.7181 -3.7545
 5587TIP3    H238253   4.018   2.884  36.166  1.4372 -0.5837  0.6313
 5588TIP3   OH238254   0.169   3.724  32.717 -0.6686 -0.9024  0.3887
 5588TIP3    H138255   0.112   3.683  32.652 -0.8788  2.2970 -1.7023
 5588TIP3    H238256   0.254   3.731  32.673 -0.1885 -0.6561  1.3371
 5589TIP3   OH238257   0.827   3.958   4.704 -0.3264 -0.3804  0.1424
 5589TIP3    H138258   0.815   3.881   4.647 -1.1408  0.1631 -0.4488
 5589TIP3    H238259   0.797   3.929   4.790  1.2253 -1.3159  0.4071
 5590TIP3   OH238260   2.094   2.555  18.822 -0.1269  0.6887  0.4071
 5590TIP3    H138261   2.103   2.542  18.728  0.3852  1.2700  0.3690
 5590TIP3    H238262   2.020   2.615  18.831 -0.7584 -0.0682  0.4356
 5591TIP3   OH238263   2.686   1.846   3.415 -0.5265  0.5904 -0.3640
 5591TIP3    H138264   2.713   1.888   3.496 -0.0867  1.5473 -0.9877
 5591TIP3    H238265   2.767   1.809   3.379 -0.7020  0.2576 -0.4196
 5592TIP3   OH238266   3.408   1.355  26.940 -0.9864 -0.1570 -0.3394
 5592TIP3    H138267   3.429   1.345  27.033 -0.5337  2.8142 -0.0360
 5592TIP3    H238268   3.318   1.387  26.939 -0.8774  0.1422 -0.9056
 5593TIP3   OH238269   2.700   1.873   2.375 -0.2324 -0.1549 -0.3269
 5593TIP3    H138270   2.694   1.792   2.425 -0.5958  0.4110  0.6002
 5593TIP3    H238271   2.649   1.857   2.296 -1.2067 -0.4965  0.3475
 5594TIP3   OH238272   3.144   0.849  37.493  0.4822  0.1737  0.5660
 5594TIP3    H138273   3.097   0.932  37.499  1.5247  0.7646  0.9307
 5594TIP3    H238274   3.091   0.787  37.543  0.6930  1.1171  2.0256
 5595TIP3   OH238275   2.508   3.509  13.366  0.8781  0.3395 -0.4003
 5595TIP3    H138276   2.538   3.558  13.442  2.0763  0.0774 -0.6861
 5595TIP3    H238277   2.516   3.417  13.392 -0.9289  0.2433 -0.0307
 5596TIP3   OH238278   0.911   2.854  30.052 -0.0375  0.5301  0.0941
 5596TIP3    H138279   0.885   2.893  30.135  0.4782  3.1263 -0.8737
 5596TIP3    H238280   0.832   2.855  29.999 -0.7712 -2.5410  0.9367
 5597TIP3   OH238281   3.615   2.967   2.769 -0.7163  0.0235  0.0749
 5597TIP3    H138282   3.698   2.944   2.812  0.9005  0.5365 -2.5418
 5597TIP3    H238283   3.560   2.889   2.780  1.0198 -1.3009 -0.1912
 5598TIP3   OH238284   0.813   4.282  27.909 -0.0213  0.7339 -0.8309
 5598TIP3    H138285   0.821   4.322  27.995  1.6629 -2.1888  0.5349
 5598TIP3    H238286   0.871   4.334  27.853  0.7067  1.2978  0.4088
 5599TIP3   OH238287   1.322   4.121  40.307  0.1528  0.1251  0.0711
 5599TIP3    H138288   1.304   4.193  40.246 -0.2388  0.5431  0.6592
 5599TIP3    H238289   1.387   4.157  40.367 -1.7124  0.8436  1.7793
 5600TIP3   OH238290   4.053   2.723  40.408  0.4813 -0.0444 -0.8969
 5600TIP3    H138291   3.967   2.745  40.374  0.2051  0.0363 -0.1599
 5600TIP3    H238292   4.056   2.627  40.406 -0.4747 -0.1475  1.0982
 5601TIP3   OH238293   1.147   2.173  10.764 -0.9706 -0.1904 -0.6115
 5601TIP3    H138294   1.084   2.195  10.833 -0.6589  0.4962 -0.5294
 5601TIP3    H238295   1.219   2.130  10.809 -0.9244 -0.0554 -0.5553
 5602TIP3   OH238296   2.107   2.821   9.888 -0.1637  0.4411  0.4487
 5602TIP3    H138297   2.132   2.905   9.849 -2.2490  1.3741  0.9840
 5602TIP3    H238298   2.189   2.785   9.922  0.9102  1.8414 -0.5612
 5603TIP3   OH238299   2.137   3.628   9.833  0.0952  0.2080  0.2268
 5603TIP3    H138300   2.199   3.696   9.806  0.8715 -0.2665  0.7825
 5603TIP3    H238301   2.191   3.550   9.845 -1.1475 -1.5606 -3.7291
 5604TIP3   OH238302   1.200   4.163  32.681 -0.3656  0.1788 -0.2751
 5604TIP3    H138303   1.266   4.159  32.611 -0.2596 -1.3297 -0.1125
 5604TIP3    H238304   1.186   4.072  32.707 -2.1319  0.5074  0.0763
 5605TIP3   OH238305   2.173   0.884  37.728 -0.6654 -0.2702 -0.2818
 5605TIP3    H138306   2.232   0.880  37.804 -2.2930 -1.9574  0.9835
 5605TIP3    H238307   2.204   0.816  37.669  1.0125  1.4818 -1.5375
 5606TIP3   OH238308   2.470   0.015   7.788  0.3895  0.2233  0.2871
 5606TIP3    H138309   2.473  -0.064   7.842  1.4840 -2.5524 -3.4134
 5606TIP3    H238310   2.554   0.015   7.742 -1.0861  1.3080 -2.6526
 5607TIP3   OH238311   4.307   2.567  39.717  0.5581  0.3250  0.1632
 5607TIP3    H138312   4.277   2.558  39.626  1.9054  1.7652 -0.4686
 5607TIP3    H238313   4.383   2.510  39.722 -1.1803 -2.0698  1.3042
 5608TIP3   OH238314   4.057   2.245  11.879  0.4590  0.8215 -0.4088
 5608TIP3    H138315   3.997   2.178  11.912  2.1079 -0.5270  0.0005
 5608TIP3    H238316   4.027   2.263  11.790  0.5009 -1.1717 -0.8703
 5609TIP3   OH238317   1.849   2.661  36.257 -0.1204 -0.5715 -0.1647
 5609TIP3    H138318   1.885   2.587  36.208  2.6572  1.0493 -0.8004
 5609TIP3    H238319   1.856   2.735  36.196 -1.7097  0.4642  0.8538
 5610TIP3   OH238320   1.641   2.588   4.158 -0.2167  0.2057  0.4546
 5610TIP3    H138321   1.667   2.514   4.104 -1.5607 -1.6151  2.1612
 5610TIP3    H238322   1.711   2.596   4.223  0.4487  1.1500 -0.3578
 5611TIP3   OH238323   3.256   2.253   2.379  0.3178 -0.9088  0.1036
 5611TIP3    H138324   3.178   2.228   2.328 -0.0916  0.9051 -0.2159
 5611TIP3    H238325   3.314   2.295   2.315  1.1870 -1.4390  0.5246
 5612TIP3   OH238326   1.531   0.165   9.610 -0.3429  0.3340  0.2869
 5612TIP3    H138327   1.609   0.178   9.555  0.9575  0.9887  2.1946
 5612TIP3    H238328   1.459   0.162   9.547  1.2656 -1.3245 -1.6801
 5613TIP3   OH238329   3.550   4.364  34.338  0.1401  0.2255 -0.2291
 5613TIP3    H138330   3.496   4.364  34.417  0.2910  2.5834 -0.0653
 5613TIP3    H238331   3.612   4.292  34.352 -0.2966  0.1284  1.4536
 5614TIP3   OH238332   2.976   3.503  30.283 -0.1519  0.3730  0.1791
 5614TIP3    H138333   2.989   3.537  30.372 -0.8240 -0.1852  0.4972
 5614TIP3    H238334   2.892   3.540  30.255 -1.6152 -2.0566  1.0650
 5615TIP3   OH238335   2.355   2.026   1.178 -0.2006 -0.2643  0.1765
 5615TIP3    H138336   2.348   2.092   1.247  1.0225 -1.0856  1.1523
 5615TIP3    H238337   2.289   1.960   1.201 -0.3092 -0.1660  0.1424
 5616TIP3   OH238338   3.734   3.643   7.235  0.2629 -0.5688  0.1887
 5616TIP3    H138339   3.732   3.712   7.168 -0.2377  0.1539  0.9172
 5616TIP3    H238340   3.693   3.567   7.193 -0.7143  0.0963 -0.1014
 5617TIP3   OH238341   2.528   3.796  11.733 -0.4829  0.7073 -1.0584
 5617TIP3    H138342   2.605   3.791  11.790 -0.3318 -1.4946 -1.3606
 5617TIP3    H238343   2.564   3.798  11.645 -0.7277 -0.7240 -1.2188
 5618TIP3   OH238344   2.007   4.019  32.751  0.5066 -0.4517 -0.3063
 5618TIP3    H138345   2.081   3.959  32.762 -1.1400 -2.5460  0.0124
 5618TIP3    H238346   2.009   4.076  32.828  0.1202 -2.4511  1.2579
 5619TIP3   OH238347   0.929   2.655   6.211 -0.2312 -0.3685 -0.0152
 5619TIP3    H138348   0.991   2.722   6.181 -0.2178 -0.6725 -0.6899
 5619TIP3    H238349   0.846   2.703   6.220  0.1123  0.0562  0.9711
 5620TIP3   OH238350   0.691   1.861  39.849  0.4335  0.0638 -0.5753
 5620TIP3    H138351   0.707   1.863  39.755 -0.6194 -3.3991 -0.9803
 5620TIP3    H238352   0.708   1.770  39.874 -3.8659 -0.3784  1.6210
 5621TIP3   OH238353   2.935   0.113  32.229 -0.3712 -0.0874  0.0513
 5621TIP3    H138354   2.993   0.190  32.232  1.3279 -1.3432  1.3216
 5621TIP3    H238355   2.974   0.052  32.291 -3.0091 -1.0947  0.8025
 5622TIP3   OH238356   4.150   1.892  29.835  0.0499  0.0798 -0.3866
 5622TIP3    H138357   4.226   1.938  29.871  0.3097 -1.0951  0.6531
 5622TIP3    H238358   4.092   1.881  29.910 -1.5215  1.5971 -1.3124
 5623TIP3   OH238359   3.417   3.969  28.093 -0.3030 -0.3271  0.1114
 5623TIP3    H138360   3.459   3.934  28.171  0.4594 -3.0008 -1.3599
 5623TIP3    H238361   3.398   3.892  28.039  0.5733  1.4255 -2.9987
 5624TIP3   OH238362   3.348   1.407  30.603 -0.2539  0.7107  0.3153
 5624TIP3    H138363   3.376   1.489  30.643  1.3573  0.8353 -1.0166
 5624TIP3    H238364   3.261   1.427  30.567 -0.8102  1.1887  1.8133
 5625TIP3   OH238365   0.123   0.697   3.764 -0.4013 -0.2335  0.3316
 5625TIP3    H138366   0.204   0.718   3.810  1.2809 -3.4845 -0.7621
 5625TIP3    H238367   0.083   0.627   3.816 -1.0664 -0.5271 -0.5475
 5626TIP3   OH238368   3.559   3.051   4.502  0.1000 -0.3340 -0.6599
 5626TIP3    H138369   3.600   3.120   4.449  0.9621 -0.6831 -0.4706
 5626TIP3    H238370   3.633   2.997   4.530 -0.5395 -1.1719 -0.5779
 5627TIP3   OH238371   2.693   3.931   4.007 -0.3658  0.2701 -0.3606
 5627TIP3    H138372   2.750   3.953   3.934 -1.2066 -0.8065 -1.3864
 5627TIP3    H238373   2.702   3.836   4.017  0.3792  0.4902  1.5170
 5628TIP3   OH238374   0.483   2.344   1.290  0.4389  0.0871  0.8482
 5628TIP3    H138375   0.404   2.393   1.266  0.8110  0.5163  0.4814
 5628TIP3    H238376   0.487   2.351   1.386  0.4542  0.7297  0.8073
 5629TIP3   OH238377   2.378   2.980  39.887  0.2465 -0.0695 -0.3067
 5629TIP3    H138378   2.454   3.038  39.883  1.5280 -1.6453 -0.1021
 5629TIP3    H238379   2.309   3.032  39.927  2.0692  0.5784  2.2141
 5630TIP3   OH238380   2.929   0.412   3.789 -0.6652  0.3541 -0.2517
 5630TIP3    H138381   3.005   0.470   3.776 -0.5162  0.6149  1.5595
 5630TIP3    H238382   2.857   0.458   3.745 -0.3841  1.5783  0.5034
 5631TIP3   OH238383   2.349   1.317  35.703  0.1867  0.1312  0.1821
 5631TIP3    H138384   2.401   1.275  35.635 -0.8596  0.1098 -0.6381
 5631TIP3    H238385   2.333   1.248  35.767  0.4365 -0.0844  0.0131
 5632TIP3   OH238386   3.074   1.073   2.108  0.4737 -0.5451  0.1175
 5632TIP3    H138387   3.035   1.130   2.174  0.8235 -0.8466  0.5921
 5632TIP3    H238388   3.060   0.984   2.141 -0.4313 -0.7701 -0.8114
 5633TIP3   OH238389   0.826   1.203  31.637  0.1694  0.3169 -0.1839
 5633TIP3    H138390   0.825   1.129  31.698  3.8493  1.7042  1.8694
 5633TIP3    H238391   0.809   1.280  31.692  0.9495  1.4081 -1.4041
 5634TIP3   OH238392   1.241   0.120   4.984 -0.7216  0.4702 -0.5044
 5634TIP3    H138393   1.322   0.077   4.958 -1.8962 -2.2135 -0.1184
 5634TIP3    H238394   1.268   0.187   5.046  1.1131 -1.8848  1.4329
 5635TIP3   OH238395   1.639   4.372  27.441  0.1582 -0.1724 -0.1566
 5635TIP3    H138396   1.692   4.381  27.520  1.1980 -1.0538 -0.7461
 5635TIP3    H238397   1.702   4.368  27.369 -0.7504 -0.0101 -0.9867
 5636TIP3   OH238398   1.656   3.198  37.271  0.2790  0.5734 -0.0393
 5636TIP3    H138399   1.716   3.237  37.335 -0.4068  2.3968 -0.4406
 5636TIP3    H238400   1.575   3.184  37.320 -0.2907  2.0949 -0.4629
 5637TIP3   OH238401   4.023   4.006  35.658 -0.2978  0.0007 -0.6010
 5637TIP3    H138402   3.983   4.084  35.617  0.6866  1.8366  1.7250
 5637TIP3    H238403   4.112   4.033  35.679  0.4213 -2.1572 -0.6333
 5638TIP3   OH238404   0.910   1.624  21.729  0.9174  0.5457 -0.7343
 5638TIP3    H138405   0.966   1.666  21.664  0.2111  1.5756 -0.6986
 5638TIP3    H238406   0.825   1.667  21.719  0.1322 -0.9188 -0.7321
 5639TIP3   OH238407   2.395   3.498  38.790 -0.1145 -0.0479  0.2689
 5639TIP3    H138408   2.442   3.502  38.873  0.7905 -0.7867 -0.2062
 5639TIP3    H238409   2.401   3.587  38.755 -1.0210  0.4279  1.2556
 5640TIP3   OH238410   3.435   2.449   7.194 -0.2192 -0.4954  0.1462
 5640TIP3    H138411   3.348   2.411   7.180 -0.6877  0.3583  0.6388
 5640TIP3    H238412   3.418   2.538   7.225  0.8503  0.3566 -1.5809
 5641TIP3   OH238413   1.088   0.481  32.663  0.1243  0.1418 -0.1158
 5641TIP3    H138414   0.994   0.488  32.648 -0.0593 -0.3115  0.7431
 5641TIP3    H238415   1.101   0.390  32.692  0.7588  0.3329  0.2143
 5642TIP3   OH238416   3.764   0.414   7.281  0.1998 -0.0889 -0.2678
 5642TIP3    H138417   3.767   0.483   7.347 -1.4770  0.6016 -0.8535
 5642TIP3    H238418   3.699   0.352   7.315  0.2947 -0.3975 -0.6457
 5643TIP3   OH238419   3.830   1.278   3.745  0.0233  0.0537 -0.4317
 5643TIP3    H138420   3.831   1.277   3.841  1.9198 -0.5691 -0.4184
 5643TIP3    H238421   3.737   1.282   3.722 -0.4383  2.0687  1.4255
 5644TIP3   OH238422   0.091   1.630  10.445 -0.5693  0.1620  0.3726
 5644TIP3    H138423   0.156   1.620  10.514 -1.7006 -1.6700  1.2546
 5644TIP3    H238424   0.023   1.686  10.483 -1.2901 -1.0117  0.8667
 5645TIP3   OH238425   2.193   1.205   0.214  0.2927 -0.4172 -0.3991
 5645TIP3    H138426   2.248   1.240   0.145 -0.5236 -0.7065 -1.2143
 5645TIP3    H238427   2.103   1.224   0.186 -0.0276  1.6719  1.7593
 5646TIP3   OH238428   3.653   4.359  36.895 -0.0216 -0.1356 -0.2178
 5646TIP3    H138429   3.571   4.399  36.866 -0.8460 -0.9734  0.8816
 5646TIP3    H238430   3.626   4.292  36.958  1.5750  0.4042  1.1042
 5647TIP3   OH238431   2.934   2.767   6.382 -0.7119 -0.2503  0.2530
 5647TIP3    H138432   3.018   2.742   6.344 -0.0838  0.4050  1.1622
 5647TIP3    H238433   2.872   2.764   6.309  0.9647  3.7664 -1.6121
 5648TIP3   OH238434   0.894   0.106   1.482 -0.6590  1.0727 -0.0869
 5648TIP3    H138435   0.903   0.162   1.559  1.3816 -1.8610  1.9907
 5648TIP3    H238436   0.832   0.038   1.508  0.3331 -0.1688 -0.8520
 5649TIP3   OH238437   1.561   0.017  17.035  0.4543 -1.0259  0.6186
 5649TIP3    H138438   1.641  -0.035  17.029  1.5713  0.5475  1.1569
 5649TIP3    H238439   1.591   0.108  17.035 -1.3652 -0.3711  0.5127
 5650TIP3   OH238440   1.664   0.123  38.392  0.1510 -0.1812 -0.8244
 5650TIP3    H138441   1.694   0.210  38.420  0.9955 -0.5930 -0.4103
 5650TIP3    H238442   1.741   0.083  38.351 -0.2861 -0.6612 -1.1916
 5651TIP3   OH238443   1.729   2.564  15.687  0.2553  0.3007  0.2981
 5651TIP3    H138444   1.802   2.599  15.637 -1.1094 -0.0415 -2.0789
 5651TIP3    H238445   1.657   2.625  15.672 -0.8286 -1.0069 -0.0624
 5652TIP3   OH238446   0.434   1.104  21.499  0.1759 -0.3703  0.0738
 5652TIP3    H138447   0.420   1.189  21.457 -1.9785 -1.3118 -1.2872
 5652TIP3    H238448   0.371   1.102  21.571  0.8323 -0.4938  0.6573
 5653TIP3   OH238449   4.162   2.139  36.169 -0.6792 -0.2510  0.6231
 5653TIP3    H138450   4.220   2.202  36.126 -1.9741 -0.3067 -1.3242
 5653TIP3    H238451   4.204   2.122  36.254  0.6221  1.8621  0.4771
 5654TIP3   OH238452   2.139   0.264   3.930 -0.5514  0.7718  0.4673
 5654TIP3    H138453   2.112   0.333   3.991 -1.8951 -0.0726  0.8722
 5654TIP3    H238454   2.085   0.189   3.954 -0.0988 -0.0091 -0.8703
 5655TIP3   OH238455   1.517   0.668   6.470  0.4979 -0.4292 -0.1169
 5655TIP3    H138456   1.563   0.752   6.479  1.2753 -0.8301 -0.3175
 5655TIP3    H238457   1.516   0.632   6.559 -1.4548  0.5984  0.3548
 5656TIP3   OH238458   0.034   3.239   3.305 -0.4236  0.0024 -0.2286
 5656TIP3    H138459  -0.029   3.273   3.368  2.5296  1.0769  2.3994
 5656TIP3    H238460   0.073   3.318   3.266  3.0339 -0.2592  2.3098
 5657TIP3   OH238461   0.554   3.582   8.364  0.0756  0.1731  0.5210
 5657TIP3    H138462   0.557   3.640   8.287  0.0847 -1.3090 -0.6497
 5657TIP3    H238463   0.471   3.535   8.356  1.0570 -1.6034  0.1447
 5658TIP3   OH238464   1.434   4.398  28.909 -0.8786  0.6821 -0.3416
 5658TIP3    H138465   1.408   4.480  28.952 -1.0242  1.0920 -1.1961
 5658TIP3    H238466   1.355   4.345  28.908 -0.7486  0.4597  0.3441
 5659TIP3   OH238467   1.050   0.819   3.391  0.0116  0.1245  0.0661
 5659TIP3    H138468   1.048   0.784   3.480 -3.7411  0.0230  0.0945
 5659TIP3    H238469   1.050   0.741   3.335  0.9757  0.1940 -0.0566
 5660TIP3   OH238470   1.591   1.524   6.248  0.0097  0.4105  0.4195
 5660TIP3    H138471   1.634   1.570   6.176 -1.0237  1.0681  0.1972
 5660TIP3    H238472   1.660   1.509   6.312  0.9298 -0.0743 -0.6435
 5661TIP3   OH238473   2.765   3.933  32.350  0.6944  0.4998  0.1758
 5661TIP3    H138474   2.701   3.942  32.421  0.8838  0.7044  0.3247
 5661TIP3    H238475   2.766   4.020  32.308  1.9133  0.9460  1.0708
 5662TIP3   OH238476   0.356   3.494  27.611 -0.4329  0.1539 -0.0979
 5662TIP3    H138477   0.352   3.399  27.624 -1.7500  0.3114  0.8187
 5662TIP3    H238478   0.450   3.514  27.612 -0.1674 -0.8629  2.0569
 5663TIP3   OH238479   2.972   3.429  33.299 -0.2828 -0.1312 -0.0899
 5663TIP3    H138480   2.919   3.493  33.253 -0.2960  0.8856  1.2738
 5663TIP3    H238481   3.058   3.433  33.256 -1.6473 -3.1266 -3.5596
 5664TIP3   OH238482   1.640   3.398   6.501 -0.2995  0.4826 -0.3915
 5664TIP3    H138483   1.664   3.450   6.424  0.3225 -2.3164 -2.2448
 5664TIP3    H238484   1.587   3.326   6.466  1.1250 -1.6474  1.5572
 5665TIP3   OH238485   1.412   4.252  14.361 -0.2890 -0.2517  0.4273
 5665TIP3    H138486   1.478   4.199  14.404  1.3026  0.1768 -1.3539
 5665TIP3    H238487   1.458   4.333  14.337 -1.2319 -0.2261 -1.4861
 5666TIP3   OH238488   1.028   1.969  12.292  0.3039  0.1559 -0.4518
 5666TIP3    H138489   1.019   1.893  12.234 -1.1403  0.6252 -0.8942
 5666TIP3    H238490   1.032   1.931  12.380 -0.6849 -0.4375 -0.6452
 5667TIP3   OH238491   0.292   0.906   1.390  0.2383 -0.1343 -0.2670
 5667TIP3    H138492   0.312   0.835   1.329 -0.6197 -1.3247  0.7833
 5667TIP3    H238493   0.305   0.868   1.477  1.7692  1.6231  0.3477
 5668TIP3   OH238494   3.164   3.130  11.500  0.3856 -0.4646 -0.4206
 5668TIP3    H138495   3.219   3.200  11.536  0.4493 -0.0669 -1.2435
 5668TIP3    H238496   3.092   3.177  11.457 -0.4967 -0.9752  0.4699
 5669TIP3   OH238497   2.277   2.377  28.700 -0.4276 -0.1084 -0.0185
 5669TIP3    H138498   2.360   2.330  28.701  0.1945  0.8948 -1.2348
 5669TIP3    H238499   2.236   2.357  28.784  0.0295 -2.3855 -0.2871
 5670TIP3   OH238500   2.735   2.892  37.926  0.4507 -0.1759  0.5858
 5670TIP3    H138501   2.770   2.980  37.911 -0.4412  0.3360  1.3692
 5670TIP3    H238502   2.750   2.845  37.844  0.7952  0.7569  0.1059
 5671TIP3   OH238503   3.404   2.755  13.087 -0.2082 -0.1576  0.5866
 5671TIP3    H138504   3.358   2.700  13.024  0.5278 -1.7051  1.3410
 5671TIP3    H238505   3.353   2.836  13.091  0.1316  0.3227 -2.5300
 5672TIP3   OH238506   0.397   0.949  31.146  0.0944  0.2273  0.1444
 5672TIP3    H138507   0.473   1.006  31.149 -0.5691  1.1684 -0.2290
 5672TIP3    H238508   0.416   0.878  31.208  1.3473  0.3245 -0.1135
 5673TIP3   OH238509   3.824   1.711  41.194  0.5508 -0.0771 -0.5331
 5673TIP3    H138510   3.877   1.689  41.117  2.3844 -1.5134  1.0008
 5673TIP3    H238511   3.868   1.787  41.233  0.9677 -0.6880  0.2294
 5674TIP3   OH238512   2.499   0.069   9.685  0.4769  0.1758  0.7363
 5674TIP3    H138513   2.558   0.075   9.760  1.0252  0.4492  0.2938
 5674TIP3    H238514   2.557   0.049   9.611 -0.1257 -0.6920  0.4877
 5675TIP3   OH238515   0.757   0.910   2.705  0.2647 -0.2416 -0.0267
 5675TIP3    H138516   0.769   0.817   2.724 -1.0080 -0.7079 -1.3235
 5675TIP3    H238517   0.835   0.952   2.741  1.7754 -2.0399 -1.0178
 5676TIP3   OH238518   1.867   2.640  10.580 -0.1816  0.4694  0.7960
 5676TIP3    H138519   1.858   2.623  10.487  0.5145  0.1260  0.7832
 5676TIP3    H238520   1.959   2.621  10.599 -0.4082  0.1545  1.6260
 5677TIP3   OH238521   4.232   1.810  26.682 -0.3385  0.2893  0.3564
 5677TIP3    H138522   4.264   1.866  26.611 -1.2787  0.5396  0.1198
 5677TIP3    H238523   4.193   1.871  26.745 -0.7757 -0.0388  0.4118
 5678TIP3   OH238524   2.476   0.002  10.078  0.7258  0.8662  0.1286
 5678TIP3    H138525   2.506   0.072  10.135  1.5489  0.7847 -0.1956
 5678TIP3    H238526   2.409  -0.043  10.129  1.3717  0.8569  0.9919
 5679TIP3   OH238527   2.314   2.186  11.582  0.1311  0.4688 -0.6290
 5679TIP3    H138528   2.352   2.271  11.557 -1.7824  1.3741 -0.6282
 5679TIP3    H238529   2.225   2.188  11.547 -0.0781 -1.4129 -0.3057
 5680TIP3   OH238530   0.439   3.402   8.090 -0.0313  0.4558 -0.1257
 5680TIP3    H138531   0.509   3.463   8.066 -1.6116  2.2943 -0.3258
 5680TIP3    H238532   0.400   3.376   8.006 -0.3122  0.3593  0.0340
 5681TIP3   OH238533   2.768   2.690   0.393  0.1412 -0.4756 -0.0470
 5681TIP3    H138534   2.713   2.735   0.457 -0.7266 -0.7563 -0.5802
 5681TIP3    H238535   2.714   2.686   0.314 -0.3041 -3.5622  0.3257
 5682TIP3   OH238536   0.320   1.105  36.921 -0.1302 -0.2445  0.2603
 5682TIP3    H138537   0.243   1.162  36.920 -0.2598 -0.4234  0.2384
 5682TIP3    H238538   0.353   1.108  36.831  0.6432  0.8733  0.5516
 5683TIP3   OH238539   0.732   3.876  32.940 -0.0877 -0.1906  0.8035
 5683TIP3    H138540   0.651   3.826  32.931 -0.1409 -0.1259  0.9177
 5683TIP3    H238541   0.722   3.948  32.877  0.7307 -1.2845 -0.6284
 5684TIP3   OH238542   3.063   0.354  27.500  0.1452  0.5294 -0.5790
 5684TIP3    H138543   2.977   0.331  27.536 -0.0260  0.0806 -1.2551
 5684TIP3    H238544   3.073   0.447  27.519 -0.0427  0.3507  0.4125
 5685TIP3   OH238545   4.128   4.090  10.665 -0.1836 -0.2222 -0.3548
 5685TIP3    H138546   4.157   4.002  10.642 -0.2556  0.2899 -2.6806
 5685TIP3    H238547   4.079   4.120  10.588  0.0041  1.9327  0.2895
 5686TIP3   OH238548   3.900   0.025   6.048 -0.1552 -0.3515  0.2283
 5686TIP3    H138549   3.992   0.040   6.070 -0.3566  2.5117 -0.4938
 5686TIP3    H238550   3.896  -0.068   6.024  2.2877 -0.8204  1.3426
 5687TIP3   OH238551   2.218   1.932  32.776 -0.4169 -0.1686  0.1664
 5687TIP3    H138552   2.183   1.957  32.861 -1.8511 -1.9372  0.1504
 5687TIP3    H238553   2.295   1.879  32.795  0.7325  1.4586  0.2632
 5688TIP3   OH238554   1.734   0.460  12.728  0.1155 -0.1868 -0.1609
 5688TIP3    H138555   1.798   0.421  12.787  1.4655  2.3120  0.1675
 5688TIP3    H238556   1.732   0.401  12.652 -0.2825 -2.4615  1.4880
 5689TIP3   OH238557   2.549   1.863  27.893 -0.5994  0.6272 -0.1830
 5689TIP3    H138558   2.617   1.900  27.836 -1.2796  0.5826 -1.0523
 5689TIP3    H238559   2.593   1.847  27.976 -0.2663  3.4110  0.2699
 5690TIP3   OH238560   2.599   3.372  36.199 -0.2090 -0.1929  0.7336
 5690TIP3    H138561   2.591   3.417  36.283  3.5208  0.1332  1.0848
 5690TIP3    H238562   2.600   3.279  36.221  1.4478 -0.0923  1.2179
 5691TIP3   OH238563   3.025   3.053  27.619  0.2210 -0.3024  0.1654
 5691TIP3    H138564   2.991   2.995  27.551 -3.5850  0.4811  1.1183
 5691TIP3    H238565   2.959   3.049  27.688  1.4988  2.5672  1.7286
 5692TIP3   OH238566   1.984   2.594   5.135 -0.3155  0.5962 -0.5775
 5692TIP3    H138567   2.050   2.582   5.203  0.1601  1.9216 -0.7615
 5692TIP3    H238568   2.034   2.603   5.054 -0.7354  1.1575 -0.7867
 5693TIP3   OH238569   0.085   3.366  25.064 -0.0830 -0.2906  0.1937
 5693TIP3    H138570   0.153   3.413  25.113  2.3443 -3.1821 -0.1643
 5693TIP3    H238571   0.047   3.306  25.127 -1.0219 -0.0183 -0.0978
 5694TIP3   OH238572   2.500   1.154  28.974  0.2293 -0.2676 -0.4023
 5694TIP3    H138573   2.593   1.151  28.996 -0.1514 -2.2745  1.2984
 5694TIP3    H238574   2.497   1.194  28.887  2.5131  1.4124  0.1828
 5695TIP3   OH238575   0.492   1.163  11.868  0.3898 -0.0895  0.0261
 5695TIP3    H138576   0.528   1.203  11.947 -0.0068  0.9185 -0.2809
 5695TIP3    H238577   0.437   1.092  11.899  2.2702 -1.4075  0.5274
 5696TIP3   OH238578   1.214   4.030   7.016  0.1906  0.4367 -0.5924
 5696TIP3    H138579   1.123   4.016   7.045  0.2021 -0.5289 -0.9811
 5696TIP3    H238580   1.267   3.996   7.089  0.2572  1.6207 -0.0719
 5697TIP3   OH238581   2.390   3.356   8.864 -0.3895  0.2344 -0.5793
 5697TIP3    H138582   2.416   3.266   8.880  0.1978  0.7740  1.8216
 5697TIP3    H238583   2.446   3.385   8.792  1.8532 -0.3235  0.8533
 5698TIP3   OH238584   1.476   2.271  10.242 -0.3873  0.5936  0.0210
 5698TIP3    H138585   1.440   2.354  10.273 -0.2201  0.3857  0.7685
 5698TIP3    H238586   1.567   2.272  10.270 -0.0710  0.6525 -0.9614
 5699TIP3   OH238587   2.665   0.560   8.150  0.0247 -0.2845 -0.1897
 5699TIP3    H138588   2.720   0.634   8.177 -1.3532  0.5732  0.3721
 5699TIP3    H238589   2.629   0.586   8.065 -0.3728 -0.3416 -0.0427
 5700TIP3   OH238590   3.405   1.236  37.334  0.2129  0.2490 -0.2077
 5700TIP3    H138591   3.390   1.151  37.293  1.3294  0.1642 -0.4763
 5700TIP3    H238592   3.499   1.237  37.354 -0.2890  0.2204  2.5232
 5701TIP3   OH238593   3.442   1.379  37.620  0.4278 -0.1318  0.0875
 5701TIP3    H138594   3.434   1.334  37.704  3.3191  0.7754  0.9722
 5701TIP3    H238595   3.486   1.315  37.563  0.7716  0.1292  0.0573
 5702TIP3   OH238596   2.879   1.685   9.531 -0.2890  0.1916  0.2958
 5702TIP3    H138597   2.917   1.690   9.619 -1.5198 -0.7196  0.9087
 5702TIP3    H238598   2.934   1.743   9.478  0.9990  0.0977  1.4686
 5703TIP3   OH238599   4.187   1.363  36.906 -0.7082 -0.4533  0.1550
 5703TIP3    H138600   4.218   1.301  36.841 -1.8403  0.1869 -1.0570
 5703TIP3    H238601   4.172   1.310  36.985  1.0435 -1.1737  0.0542
 5704TIP3   OH238602   1.227   1.301  39.925  0.2841 -0.1306 -0.0380
 5704TIP3    H138603   1.269   1.316  40.009 -2.6858 -0.7572  1.6970
 5704TIP3    H238604   1.178   1.382  39.907  0.5660 -0.1518 -0.9671
 5705TIP3   OH238605   3.049   1.076   0.241  0.3649  0.0873 -0.6873
 5705TIP3    H138606   3.065   1.025   0.320 -1.4504 -1.7118 -1.4094
 5705TIP3    H238607   2.965   1.119   0.256 -0.9875 -1.8145 -2.2985
 5706TIP3   OH238608   3.853   1.052  41.230 -0.1750  0.8616 -0.2360
 5706TIP3    H138609   3.940   1.061  41.192 -0.7214  2.3129 -1.2238
 5706TIP3    H238610   3.805   0.996  41.169 -0.4957  1.6524 -0.7207
 5707TIP3   OH238611   2.428   1.961  39.780 -0.8908 -0.0782  0.6231
 5707TIP3    H138612   2.467   1.911  39.708  0.4354 -0.1209  1.3461
 5707TIP3    H238613   2.387   1.895  39.836  1.2385 -0.4705  1.8111
 5708TIP3   OH238614   3.615   0.844  11.157  0.2300 -0.3391  0.0124
 5708TIP3    H138615   3.645   0.935  11.155  1.3532 -0.6675  0.6997
 5708TIP3    H238616   3.667   0.800  11.090  1.0265 -0.8315  0.9286
 5709TIP3   OH238617   3.993   0.901   6.642 -0.1930  0.0513  0.2178
 5709TIP3    H138618   3.928   0.925   6.707  1.0287 -0.3979  1.6641
 5709TIP3    H238619   4.066   0.866   6.693  0.7925 -0.3604 -1.4029
 5710TIP3   OH238620   4.254   0.901  36.651  0.9897 -0.0855 -0.0811
 5710TIP3    H138621   4.257   0.808  36.629 -0.2106 -0.3724  0.8598
 5710TIP3    H238622   4.198   0.941  36.584 -0.2911 -0.4490  0.7387
 5711TIP3   OH238623   0.568   2.240  30.978 -0.6062 -0.3681  0.1057
 5711TIP3    H138624   0.587   2.233  31.072  0.5988 -0.7715 -0.1605
 5711TIP3    H238625   0.494   2.301  30.974  0.3367  0.9185  1.2171
 5712TIP3   OH238626   1.115   3.248   4.109  0.2881 -0.1846 -0.1981
 5712TIP3    H138627   1.195   3.298   4.126  0.2811  0.0849 -0.9114
 5712TIP3    H238628   1.107   3.247   4.013 -1.6513  1.5396 -0.1196
 5713TIP3   OH238629   2.731   3.364   3.711  0.1144 -0.2646 -0.7482
 5713TIP3    H138630   2.676   3.345   3.787  0.9466 -1.8996 -0.4973
 5713TIP3    H238631   2.737   3.459   3.708  0.3843 -0.1644  1.4735
 5714TIP3   OH238632   1.992   2.999  14.875  0.1486  0.1280 -0.6946
 5714TIP3    H138633   1.931   2.990  14.948 -0.5188  0.2737 -1.2340
 5714TIP3    H238634   2.077   3.015  14.917 -0.3163  0.7430  0.0382
 5715TIP3   OH238635   1.234   1.446   2.352  0.2807  0.1024  0.6937
 5715TIP3    H138636   1.170   1.499   2.303  1.1030  0.2319 -0.2713
 5715TIP3    H238637   1.184   1.410   2.425 -0.7464  0.7092  0.3133
 5716TIP3   OH238638   0.946   3.008  41.103  0.8580  0.5201  0.0796
 5716TIP3    H138639   1.004   3.080  41.077  0.0974  2.2540  2.8445
 5716TIP3    H238640   0.901   3.039  41.181 -2.7329 -1.3401 -1.0244
 5717TIP3   OH238641   4.217   1.177  12.386  0.6168  0.0678  0.0281
 5717TIP3    H138642   4.125   1.196  12.368 -0.2596 -2.4498  1.3450
 5717TIP3    H238643   4.265   1.224  12.318 -1.7120  0.3420 -1.5481
 5718TIP3   OH238644   4.124   0.235  31.573 -0.2247  0.0390  0.4346
 5718TIP3    H138645   4.081   0.163  31.527  1.4681 -0.1088 -1.0538
 5718TIP3    H238646   4.208   0.245  31.528  0.7600  1.1322  2.3670
 5719TIP3   OH238647   4.222   4.301  36.609  0.1338 -0.1661 -0.5986
 5719TIP3    H138648   4.278   4.224  36.617  0.7419  0.3710  0.4762
 5719TIP3    H238649   4.191   4.299  36.518  1.3804 -0.8154 -1.0249
 5720TIP3   OH238650   3.818   0.409  25.298 -0.8014  0.6127  0.0443
 5720TIP3    H138651   3.791   0.497  25.326  1.2464  1.2880  0.1232
 5720TIP3    H238652   3.826   0.415  25.203 -1.3299  0.3011 -0.0212
 5721TIP3   OH238653   2.411   1.569   0.766 -0.2869  0.1563 -0.1838
 5721TIP3    H138654   2.398   1.616   0.684  2.4385  0.3863 -0.5815
 5721TIP3    H238655   2.466   1.494   0.743  0.1960 -0.0041  1.3568
 5722TIP3   OH238656   3.625   4.028  28.909 -0.0003 -0.2297  0.0996
 5722TIP3    H138657   3.537   4.027  28.871  0.0083  0.6005  0.0430
 5722TIP3    H238658   3.665   3.947  28.878 -0.7315 -0.6072  0.0995
 5723TIP3   OH238659   1.690   0.269   1.534  0.0404 -0.2105 -0.0836
 5723TIP3    H138660   1.672   0.281   1.441  1.1254 -0.5215 -0.3547
 5723TIP3    H238661   1.681   0.175   1.548 -0.6267 -0.1004  0.2471
 5724TIP3   OH238662   0.523   1.406  13.936  0.0564  0.4609  0.3022
 5724TIP3    H138663   0.514   1.369  13.848  0.6941  1.2891 -0.1282
 5724TIP3    H238664   0.599   1.360  13.973 -1.8057 -1.8694  1.4967
 5725TIP3   OH238665   1.862   1.097  31.194 -0.1307 -0.0755  0.2493
 5725TIP3    H138666   1.786   1.147  31.166  0.9907  1.0883 -0.8246
 5725TIP3    H238667   1.836   1.005  31.184 -1.2617  0.3014 -0.3989
 5726TIP3   OH238668   0.303   0.603   8.667 -0.0335 -0.0493 -0.2544
 5726TIP3    H138669   0.288   0.513   8.638 -2.1651  0.1934 -0.0960
 5726TIP3    H238670   0.234   0.619   8.731  2.6082  0.4913  2.6785
 5727TIP3   OH238671   1.101   1.024   4.602 -0.5541 -0.1135 -0.0747
 5727TIP3    H138672   1.184   1.072   4.609 -1.1492  0.7310  2.6654
 5727TIP3    H238673   1.064   1.051   4.518  1.1640  0.8127 -0.5698
 5728TIP3   OH238674   2.234   0.246   6.799 -0.3984 -0.0017  0.1851
 5728TIP3    H138675   2.213   0.206   6.715  1.6044 -0.0789 -0.3271
 5728TIP3    H238676   2.204   0.336   6.791  0.0243  0.0702 -0.7449
 5729TIP3   OH238677   0.122   1.317  40.093 -0.1062 -0.0900  0.3619
 5729TIP3    H138678   0.141   1.407  40.117  0.9402 -0.7903  2.4851
 5729TIP3    H238679   0.099   1.320  40.001  2.9958  1.9592 -0.5042
 5730TIP3   OH238680   2.664   0.200  37.453 -0.1641 -0.1809 -0.3288
 5730TIP3    H138681   2.643   0.284  37.413  1.1905 -0.0469 -0.7999
 5730TIP3    H238682   2.584   0.175  37.500 -0.7381  1.1347 -0.5718
 5731TIP3   OH238683   4.153   2.869   6.869  0.2009 -0.2485  0.0036
 5731TIP3    H138684   4.084   2.929   6.899 -0.0721 -0.2009 -0.7094
 5731TIP3    H238685   4.136   2.787   6.915  0.4355  0.1456  0.8081
 5732TIP3   OH238686   2.358   0.135  13.268  0.1329  0.5824 -0.4719
 5732TIP3    H138687   2.422   0.131  13.198  0.3688  1.7497 -0.3414
 5732TIP3    H238688   2.410   0.137  13.348 -0.1378 -1.0539 -0.2115
 5733TIP3   OH238689   2.130   2.846   8.231 -0.0651  0.2532  0.1864
 5733TIP3    H138690   2.184   2.833   8.309  0.5987  0.6269 -0.1962
 5733TIP3    H238691   2.193   2.853   8.160 -0.6164  0.7890 -0.2614
 5734TIP3   OH238692   0.088   0.270  38.473 -0.2437  0.6221  0.0926
 5734TIP3    H138693   0.144   0.211  38.423  0.8011  0.6464  1.1858
 5734TIP3    H238694   0.041   0.213  38.534 -1.5984  0.5779 -0.9566
 5735TIP3   OH238695   1.642   3.818   5.815 -0.2092 -0.1666 -0.3033
 5735TIP3    H138696   1.723   3.779   5.848  1.0273  1.3758 -1.3723
 5735TIP3    H238697   1.618   3.761   5.741  1.3777  0.7548 -1.6208
 5736TIP3   OH238698   2.875   2.920  35.251  0.3001 -0.0529 -0.5840
 5736TIP3    H138699   2.889   2.835  35.209 -0.3152 -0.2401 -0.4217
 5736TIP3    H238700   2.787   2.946  35.223 -0.2789 -0.3585  0.8855
 5737TIP3   OH238701   1.466   1.598   9.931 -0.0639  0.3253 -0.0468
 5737TIP3    H138702   1.440   1.513   9.896 -0.1269 -0.0506  0.8969
 5737TIP3    H238703   1.425   1.603  10.017 -0.4362  1.5071 -0.2736
 5738TIP3   OH238704   4.211   4.282   3.814  0.2490 -0.9061 -0.1013
 5738TIP3    H138705   4.299   4.296   3.849 -0.0797  0.2804  0.3308
 5738TIP3    H238706   4.172   4.370   3.813 -1.3127 -1.5413  0.8014
 5739TIP3   OH238707   2.659   3.593  11.493 -0.4994  0.2487  0.4141
 5739TIP3    H138708   2.671   3.552  11.407 -2.2667 -0.2439  0.3576
 5739TIP3    H238709   2.732   3.561  11.545  1.0268  1.1180 -1.0665
 5740TIP3   OH238710   2.374   1.190   8.695  0.1744 -0.1208  0.4954
 5740TIP3    H138711   2.380   1.182   8.790 -0.2517  1.5607  0.6950
 5740TIP3    H238712   2.420   1.113   8.662  2.7306  0.6123  2.0418
 5741TIP3   OH238713   0.226   3.826  29.643 -0.5204  0.1255  0.9162
 5741TIP3    H138714   0.160   3.863  29.585 -0.9821  1.8604  2.4470
 5741TIP3    H238715   0.303   3.814  29.587 -1.4160  0.2697 -0.3875
 5742TIP3   OH238716   4.127   2.038  25.222  0.6546  0.4995  0.3208
 5742TIP3    H138717   4.167   2.124  25.205  0.9021  0.1885 -0.7312
 5742TIP3    H238718   4.184   1.976  25.178 -1.1530  0.0675 -1.5402
 5743TIP3   OH238719   2.878   2.858  10.278 -0.4924  0.0957 -0.3431
 5743TIP3    H138720   2.967   2.884  10.253 -0.7788  0.3403 -1.1285
 5743TIP3    H238721   2.890   2.803  10.356  0.2089  1.5607  0.6130
 5744TIP3   OH238722   0.778   3.759  40.037 -0.1655  0.0260 -0.4225
 5744TIP3    H138723   0.775   3.694  40.107 -1.5573  1.2849  0.7670
 5744TIP3    H238724   0.731   3.718  39.965  0.6245 -1.0056 -0.3687
 5745TIP3   OH238725   2.916   2.471  35.260 -0.2549 -0.0427  0.2059
 5745TIP3    H138726   3.008   2.479  35.283  0.3171 -0.0752 -1.8195
 5745TIP3    H238727   2.875   2.550  35.293  0.8609  0.7896 -0.3490
 5746TIP3   OH238728   1.901   2.384  37.020  0.6931 -0.6035  0.0125
 5746TIP3    H138729   1.950   2.374  36.939 -0.4214 -1.3885 -0.5869
 5746TIP3    H238730   1.962   2.357  37.089  0.8357 -2.4472 -0.7841
 5747TIP3   OH238731   3.797   4.355  30.379  0.0420 -0.1949 -0.5144
 5747TIP3    H138732   3.879   4.314  30.349  1.2286  0.1368  2.0260
 5747TIP3    H238733   3.822   4.446  30.397 -0.6819 -0.2704  0.9729
 5748TIP3   OH238734   0.181   1.493   4.386  0.8506 -0.3254 -0.0371
 5748TIP3    H138735   0.259   1.440   4.405  1.2879  0.9629  2.2567
 5748TIP3    H238736   0.205   1.581   4.417 -1.4822  0.1138  0.7036
 5749TIP3   OH238737   4.011   2.762   8.873 -0.2019 -0.2719 -0.5975
 5749TIP3    H138738   4.085   2.702   8.874 -1.3205 -1.7596  1.5224
 5749TIP3    H238739   3.940   2.712   8.831 -0.5601  0.3693 -0.7738
 5750TIP3   OH238740   4.352   2.362  41.438 -0.0395 -0.1804 -0.1303
 5750TIP3    H138741   4.377   2.402  41.521 -0.0308  2.2210 -1.2199
 5750TIP3    H238742   4.258   2.378  41.430 -0.8568 -3.5275  0.9535
 5751TIP3   OH238743   1.022   2.598  34.990 -0.1979 -0.6303 -0.0225
 5751TIP3    H138744   1.097   2.605  35.049 -0.3287 -1.0983  0.2127
 5751TIP3    H238745   0.947   2.626  35.043 -0.0605  0.8041 -0.5609
 5752TIP3   OH238746   3.830   0.719   8.274  0.2291  0.6098  0.1772
 5752TIP3    H138747   3.767   0.750   8.208  1.4098  0.2324 -1.1903
 5752TIP3    H238748   3.908   0.772   8.258  0.3828  0.8705  1.6562
 5753TIP3   OH238749   4.255   3.893   1.330  0.6394 -0.5478 -0.5508
 5753TIP3    H138750   4.209   3.897   1.246 -0.1433 -2.3853 -0.2495
 5753TIP3    H238751   4.237   3.805   1.363  0.6253  0.2590  1.7221
 5754TIP3   OH238752   2.201   4.035  31.132  0.0709  0.1041 -0.5270
 5754TIP3    H138753   2.116   4.041  31.177 -0.6312 -1.2478 -1.6110
 5754TIP3    H238754   2.259   3.994  31.196 -0.2711  0.4084 -0.0126
 5755TIP3   OH238755   1.850   4.266   0.195 -0.3938 -0.5074  0.3802
 5755TIP3    H138756   1.917   4.227   0.251 -0.0890 -1.0121 -0.3270
 5755TIP3    H238757   1.775   4.277   0.253  0.3735  0.3319  1.2539
 5756TIP3   OH238758   3.851   1.392   5.084 -1.0379  0.4195  0.3415
 5756TIP3    H138759   3.828   1.302   5.105 -0.6967  0.4288  0.7633
 5756TIP3    H238760   3.771   1.429   5.046 -1.7970  0.5147  1.9713
 5757TIP3   OH238761   4.316   2.882   3.359 -0.2501 -0.2927 -0.2071
 5757TIP3    H138762   4.280   2.839   3.281 -1.1866  0.3430 -0.1359
 5757TIP3    H238763   4.247   2.942   3.387  0.6132  0.4638  0.3325
 5758TIP3   OH238764   1.338   2.077  40.038  0.0073  0.1235 -0.9904
 5758TIP3    H138765   1.390   2.157  40.028 -0.5647  0.4672 -1.3205
 5758TIP3    H238766   1.251   2.102  40.006 -0.2620 -0.5393 -0.7830
 5759TIP3   OH238767   0.062   0.638   1.325 -0.2520  0.1006 -0.9577
 5759TIP3    H138768   0.152   0.652   1.293 -0.8519  1.4530 -2.1489
 5759TIP3    H238769   0.009   0.633   1.245 -1.4940  1.2607 -0.2412
 5760TIP3   OH238770   4.239   2.640  12.770 -0.0156  0.4827  0.4221
 5760TIP3    H138771   4.174   2.700  12.734 -0.4003 -0.0282  0.2553
 5760TIP3    H238772   4.223   2.640  12.864 -0.2469  0.3710  0.3837
 5761TIP3   OH238773   3.821   0.842   7.381  0.3911 -0.3566  0.2280
 5761TIP3    H138774   3.775   0.771   7.427  0.9093  0.1004  1.4997
 5761TIP3    H238775   3.911   0.836   7.412  0.2285  1.4768  1.1544
 5762TIP3   OH238776   1.208   2.180  38.667  0.0203  0.0478 -0.5070
 5762TIP3    H138777   1.173   2.136  38.745  1.3963  0.6531  0.4834
 5762TIP3    H238778   1.201   2.114  38.598  1.2932 -1.4908  0.7644
 5763TIP3   OH238779   0.400   4.021  30.982 -0.2536 -0.3013  0.3578
 5763TIP3    H138780   0.450   3.964  30.924  1.6417 -0.0099  1.6283
 5763TIP3    H238781   0.348   4.076  30.923  1.6797  0.0700 -1.0763
 5764TIP3   OH238782   3.674   2.101  31.741 -0.4422  0.3010  0.0381
 5764TIP3    H138783   3.691   2.059  31.656 -4.5638 -1.2893 -0.2227
 5764TIP3    H238784   3.691   2.032  31.805  0.6462  0.8594  0.3728
 5765TIP3   OH238785   0.760   2.279  28.908 -0.0417 -0.5203  0.4663
 5765TIP3    H138786   0.804   2.282  28.992  0.7464 -0.2831  0.0551
 5765TIP3    H238787   0.718   2.365  28.899 -1.5285 -1.1194  1.3335
 5766TIP3   OH238788   2.419   4.008  38.090 -0.9216 -0.2584  0.0920
 5766TIP3    H138789   2.449   4.033  38.003 -0.0176  0.2251  0.5315
 5766TIP3    H238790   2.486   4.042  38.150 -1.9677  0.1997  1.0494
 5767TIP3   OH238791   3.748   1.667  11.801 -0.0203  0.0578  0.3685
 5767TIP3    H138792   3.785   1.611  11.732  1.4987  1.2193  0.1935
 5767TIP3    H238793   3.665   1.626  11.822  0.4197 -1.5002 -0.7089
 5768TIP3   OH238794   3.592   3.043   7.336 -0.8376 -0.8872 -0.1254
 5768TIP3    H138795   3.567   2.989   7.261 -0.7425  1.7113 -2.1474
 5768TIP3    H238796   3.674   3.083   7.311 -1.2590  0.7563  0.9717
 5769TIP3   OH238797   3.809   1.824  12.030  0.0888  0.2207 -0.1665
 5769TIP3    H138798   3.821   1.748  11.973  0.8466  0.7743 -0.7634
 5769TIP3    H238799   3.718   1.818  12.059  0.6553 -2.0095  1.4303
 5770TIP3   OH238800   0.388   0.958  33.510 -0.0460 -0.6104  0.3992
 5770TIP3    H138801   0.314   0.915  33.554 -1.6826  2.0012  0.3977
 5770TIP3    H238802   0.422   1.019  33.576  0.1451  0.3602 -0.5700
 5771TIP3   OH238803   1.088   2.881  32.238 -0.1093 -0.0011  0.2878
 5771TIP3    H138804   1.167   2.927  32.213 -0.4902  0.7458  0.4370
 5771TIP3    H238805   1.109   2.788  32.225 -0.0498  0.2937 -2.0757
 5772TIP3   OH238806   4.032   2.960  38.180 -0.5456 -0.2714 -0.2048
 5772TIP3    H138807   4.056   3.001  38.263 -1.3045 -0.0445 -0.0955
 5772TIP3    H238808   4.114   2.921  38.149  0.0219  0.6735  0.0629
 5773TIP3   OH238809   1.788   1.924  39.206 -0.5400  0.2935 -0.1777
 5773TIP3    H138810   1.788   1.872  39.286  1.2691 -0.4056 -0.6008
 5773TIP3    H238811   1.861   1.985  39.217 -0.8785  0.8441 -0.8898
 5774TIP3   OH238812   2.486   3.189  30.059 -0.1472  0.0008 -0.4939
 5774TIP3    H138813   2.396   3.168  30.082  0.0256  1.7115  2.0993
 5774TIP3    H238814   2.506   3.129  29.987 -2.5987 -1.9925  0.3115
 5775TIP3   OH238815   3.254   2.392  31.126 -0.3510 -0.1987  0.2624
 5775TIP3    H138816   3.264   2.483  31.152  1.4394 -0.5045  0.7604
 5775TIP3    H238817   3.238   2.396  31.031  0.1488  0.6128  0.2042
 5776TIP3   OH238818   2.835   3.930  32.030  0.6946  0.1084  0.4203
 5776TIP3    H138819   2.842   3.935  31.935  1.4325  1.0312  0.5093
 5776TIP3    H238820   2.741   3.927  32.048  0.5155 -3.0552 -0.4363
 5777TIP3   OH238821   1.967   1.698  30.394  0.2471 -0.2842 -0.4956
 5777TIP3    H138822   2.054   1.705  30.435 -0.2608 -2.3397  1.1025
 5777TIP3    H238823   1.916   1.646  30.456 -2.4548  1.6491 -0.9426
 5778TIP3   OH238824   3.452   3.973   9.633  0.1940 -0.3604 -0.3771
 5778TIP3    H138825   3.377   3.953   9.689 -0.5388  1.1349 -0.7747
 5778TIP3    H238826   3.527   3.935   9.679 -0.6694 -1.0371  0.5208
 5779TIP3   OH238827   0.163   1.098   9.485  0.5488 -0.3656 -0.2901
 5779TIP3    H138828   0.085   1.113   9.431 -0.6929 -0.5802  1.3456
 5779TIP3    H238829   0.237   1.117   9.428 -0.7266  0.5603 -1.6885
 5780TIP3   OH238830   4.280   2.562  22.434 -0.2397 -0.3144  0.2058
 5780TIP3    H138831   4.277   2.466  22.431 -1.0875 -0.2852 -0.2784
 5780TIP3    H238832   4.372   2.582  22.451  0.6003 -1.1769 -2.7250
 5781TIP3   OH238833   1.180   1.298  30.519  0.0149 -0.3554 -0.3957
 5781TIP3    H138834   1.149   1.388  30.524 -1.5822 -0.8340 -1.0842
 5781TIP3    H238835   1.195   1.273  30.611  1.5851  0.9288 -0.2581
 5782TIP3   OH238836   3.330   3.158  32.183 -0.5638 -0.2497  0.4467
 5782TIP3    H138837   3.326   3.197  32.270  0.4568  0.1403  0.3414
 5782TIP3    H238838   3.249   3.186  32.140  0.5464  2.7359  0.0128
 5783TIP3   OH238839   1.162   0.760  36.056 -0.2115 -0.2137 -0.2730
 5783TIP3    H138840   1.169   0.721  36.143  0.3605  0.2133 -0.1215
 5783TIP3    H238841   1.128   0.848  36.073  1.3615  0.4257 -0.3334
 5784TIP3   OH238842   4.132   2.308  31.940  0.5639  0.5958  0.2904
 5784TIP3    H138843   4.121   2.226  31.988 -1.4153  0.9052  0.4461
 5784TIP3    H238844   4.124   2.376  32.007 -0.0257  0.9747 -0.1581
 5785TIP3   OH238845   3.361   0.380  36.687 -0.3196  1.0064 -0.3025
 5785TIP3    H138846   3.280   0.416  36.650  0.2388  0.3420 -2.3071
 5785TIP3    H238847   3.376   0.300  36.637  1.2140  0.7559  0.5139
 5786TIP3   OH238848   0.271   1.597  28.184 -0.0217  0.0593 -0.2945
 5786TIP3    H138849   0.179   1.577  28.199  0.3790 -0.6805  1.3883
 5786TIP3    H238850   0.287   1.569  28.094 -0.6187 -3.2352  0.4714
 5787TIP3   OH238851   1.079   3.839  14.469  0.0790  0.3780  0.5404
 5787TIP3    H138852   1.092   3.839  14.374  1.2449 -0.1522  0.6812
 5787TIP3    H238853   1.021   3.913  14.485  0.5428  0.9954 -0.5084
 5788TIP3   OH238854   3.724   2.931   3.452  0.4745  0.3951 -0.6125
 5788TIP3    H138855   3.711   2.870   3.379 -2.6572  0.2370 -0.0884
 5788TIP3    H238856   3.734   2.874   3.528  0.0038  0.5364 -0.4444
 5789TIP3   OH238857   3.520   0.500   4.268 -0.0131 -0.8184 -0.5044
 5789TIP3    H138858   3.546   0.409   4.255 -0.0369 -1.2082  1.7024
 5789TIP3    H238859   3.465   0.497   4.347  0.0482  1.1140 -0.3508
 5790TIP3   OH238860   2.324   0.872  32.410 -0.1098  0.3336  0.1206
 5790TIP3    H138861   2.387   0.810  32.372  0.3165  1.0274 -0.3406
 5790TIP3    H238862   2.250   0.871  32.349 -0.5766 -0.5082  0.6803
 5791TIP3   OH238863   1.171   0.533  26.614 -0.2620  0.6080  0.0441
 5791TIP3    H138864   1.085   0.513  26.576 -1.3437  2.2898  1.4267
 5791TIP3    H238865   1.186   0.465  26.679  0.0645 -0.4037 -1.0645
 5792TIP3   OH238866   3.445   1.415  41.126  0.2325 -0.3532  0.1964
 5792TIP3    H138867   3.399   1.379  41.202  0.0228 -0.9106 -0.1915
 5792TIP3    H238868   3.532   1.376  41.130  0.3016 -0.1932  0.2805
 5793TIP3   OH238869   1.080   3.556  30.518 -0.4453  0.2227  0.5455
 5793TIP3    H138870   1.146   3.561  30.587 -1.7628 -0.5646  1.9172
 5793TIP3    H238871   1.128   3.577  30.437  1.0478  1.5806  1.7268
 5794TIP3   OH238872   2.458   1.929   8.123 -0.2295  0.6578  0.6703
 5794TIP3    H138873   2.364   1.912   8.118 -0.2092  0.2365  1.5514
 5794TIP3    H238874   2.485   1.940   8.031 -0.9659 -0.1899  0.3317
 5795TIP3   OH238875   0.492   1.705  40.587  0.3350  0.0726 -0.0552
 5795TIP3    H138876   0.529   1.653  40.516 -0.9230  1.8768 -2.1231
 5795TIP3    H238877   0.568   1.747  40.628  1.1963 -2.0139  0.6219
 5796TIP3   OH238878   3.415   1.130   3.066 -0.8114  0.0311 -0.0147
 5796TIP3    H138879   3.340   1.185   3.090 -0.8044  0.0708 -0.0858
 5796TIP3    H238880   3.482   1.153   3.131 -0.7590  0.2101 -0.1306
 5797TIP3   OH238881   1.321   3.608  15.833 -0.1796 -0.0913 -0.2692
 5797TIP3    H138882   1.283   3.679  15.885  1.9555 -0.9148  2.7232
 5797TIP3    H238883   1.412   3.635  15.820  0.6385 -2.1042  0.7847
 5798TIP3   OH238884   0.717   2.381  14.260 -0.3173 -0.4329 -0.9715
 5798TIP3    H138885   0.705   2.356  14.352  2.0163  1.2745 -0.1327
 5798TIP3    H238886   0.732   2.298  14.215 -2.1423 -1.3689  0.0068
 5799TIP3   OH238887   1.110   2.840  28.707  0.2780  0.2647 -0.0090
 5799TIP3    H138888   1.095   2.933  28.691  1.8536  0.4318 -0.7034
 5799TIP3    H238889   1.096   2.798  28.622 -1.6672 -0.3431  0.5656
 5800TIP3   OH238890   4.152   3.714   7.784  0.3227  0.1297 -0.3223
 5800TIP3    H138891   4.237   3.755   7.800  0.0217  0.4638  0.4919
 5800TIP3    H238892   4.149   3.641   7.846  0.5952 -0.7574 -1.3317
 5801TIP3   OH238893   3.213   1.754  10.212  0.3154 -0.4119  0.1892
 5801TIP3    H138894   3.253   1.795  10.135 -1.3921  1.4412  0.2336
 5801TIP3    H238895   3.163   1.680  10.177 -1.9317  1.4778 -0.7923
 5802TIP3   OH238896   2.876   1.694   6.551 -0.5450 -0.3219  0.5279
 5802TIP3    H138897   2.935   1.619   6.565  0.1092 -0.1245 -1.0025
 5802TIP3    H238898   2.895   1.753   6.624  1.5338 -0.0504 -0.1458
 5803TIP3   OH238899   3.610   3.086  30.326  0.1266 -0.0724  0.2409
 5803TIP3    H138900   3.518   3.062  30.340  0.0977  0.4166  0.9400
 5803TIP3    H238901   3.624   3.072  30.232  0.0334 -2.4952  0.5253
 5804TIP3   OH238902   3.411   0.056   6.171 -0.1405 -0.5725 -0.2543
 5804TIP3    H138903   3.424   0.044   6.265  0.2009  0.4142 -0.1650
 5804TIP3    H238904   3.326   0.015   6.153  0.3015 -1.7492  0.2670
 5805TIP3   OH238905   1.512   3.696  10.502 -0.8457 -0.1816  0.6425
 5805TIP3    H138906   1.606   3.713  10.510 -1.2168  1.4959  2.0805
 5805TIP3    H238907   1.501   3.605  10.528  0.5518 -0.9286 -1.2036
 5806TIP3   OH238908   0.780   1.519  10.400  0.0598 -0.0356 -0.2428
 5806TIP3    H138909   0.710   1.516  10.336  0.8012  0.1071 -1.0830
 5806TIP3    H238910   0.856   1.483  10.354  0.3491 -0.9358  0.9005
 5807TIP3   OH238911   2.851   0.832   0.455 -0.8223  0.5253  0.0222
 5807TIP3    H138912   2.946   0.838   0.456 -0.8736  1.7330 -0.5854
 5807TIP3    H238913   2.827   0.810   0.545  0.0309 -0.0472  0.1261
 5808TIP3   OH238914   2.062   4.295  10.033 -0.3673 -0.4689  0.4925
 5808TIP3    H138915   2.064   4.391  10.034  0.5606 -0.3546 -2.4929
 5808TIP3    H238916   2.130   4.269  10.095 -0.6838  0.7888  1.4003
 5809TIP3   OH238917   1.789   3.999   1.207  0.0299  0.0281  0.5610
 5809TIP3    H138918   1.707   3.954   1.227  0.0914  0.6225  2.3771
 5809TIP3    H238919   1.788   4.076   1.264  1.1137  0.9276 -0.5790
 5810TIP3   OH238920   0.172   0.953  39.895 -0.0898 -0.4651  0.3443
 5810TIP3    H138921   0.180   0.946  39.800  0.1128  0.8380  0.2556
 5810TIP3    H238922   0.227   1.028  39.919 -0.7283 -0.3194  1.4064
 5811TIP3   OH238923   4.198   1.365  10.960 -0.6591  0.4582 -0.5344
 5811TIP3    H138924   4.137   1.360  11.034 -1.9000  2.0277 -1.3977
 5811TIP3    H238925   4.216   1.273  10.938  0.8508 -0.1042  2.5227
 5812TIP3   OH238926   2.900   3.486  33.844 -0.2064  0.1773  0.4547
 5812TIP3    H138927   2.806   3.506  33.848 -0.1680  0.3399  0.6199
 5812TIP3    H238928   2.913   3.443  33.760 -0.4785 -0.1034  0.5554
 5813TIP3   OH238929   0.514   3.012  27.897  0.5018 -0.2119  0.3792
 5813TIP3    H138930   0.527   3.086  27.838  1.6731 -0.7467 -0.0761
 5813TIP3    H238931   0.595   3.006  27.947 -0.5240  0.3276  2.2156
 5814TIP3   OH238932   2.729   0.066   4.587 -0.4008 -0.0888 -0.5446
 5814TIP3    H138933   2.642   0.089   4.556 -0.3760  1.2682  0.3285
 5814TIP3    H238934   2.752   0.134   4.650  0.7880 -1.1032  0.1841
 5815TIP3   OH238935   0.967   1.921   4.310 -0.2896 -0.0064 -0.3253
 5815TIP3    H138936   0.971   1.827   4.292  2.2207  0.3121 -2.0779
 5815TIP3    H238937   1.058   1.947   4.324 -0.8367  2.2475 -0.4181
 5816TIP3   OH238938   3.318   4.309  29.824 -0.5272 -0.3341  0.2835
 5816TIP3    H138939   3.266   4.344  29.895  0.9089  3.0959 -0.1599
 5816TIP3    H238940   3.282   4.349  29.745 -0.7764 -2.4475 -0.7592
 5817TIP3   OH238941   4.206   2.427  35.962 -0.4959  0.2421  0.1265
 5817TIP3    H138942   4.230   2.367  35.891 -1.4354  0.8115 -0.6992
 5817TIP3    H238943   4.267   2.407  36.033 -0.3137 -1.1782 -0.4040
 5818TIP3   OH238944   0.065   0.753   8.331  0.5025 -0.0250 -0.2169
 5818TIP3    H138945   0.054   0.824   8.395 -0.4540 -1.1603  0.9529
 5818TIP3    H238946   0.148   0.712   8.356 -1.0916 -2.1361  2.1614
 5819TIP3   OH238947   0.264   3.182   8.221 -0.2300 -0.1674  0.2881
 5819TIP3    H138948   0.259   3.161   8.314 -1.1871  0.0519  0.2957
 5819TIP3    H238949   0.358   3.193   8.204 -0.1716  3.1369  1.9619
 5820TIP3   OH238950   1.098   1.047  12.277 -0.6247 -0.0951  0.1240
 5820TIP3    H138951   1.081   1.001  12.359 -0.9331 -2.4042 -1.1507
 5820TIP3    H238952   1.156   0.988  12.228 -0.6903  1.0779 -1.4327
 5821TIP3   OH238953   4.244   1.639  26.996  0.2370 -0.2892  0.4196
 5821TIP3    H138954   4.243   1.557  27.045 -1.4397 -0.2023  0.5991
 5821TIP3    H238955   4.266   1.614  26.906  1.0033 -0.7536  0.7289
 5822TIP3   OH238956   3.443   1.241  34.324 -0.1989  0.2925 -0.0744
 5822TIP3    H138957   3.510   1.305  34.351 -0.7813  0.7467  0.3284
 5822TIP3    H238958   3.488   1.185  34.261 -0.0231  1.9135 -1.4626
 5823TIP3   OH238959   1.105   1.691   9.251 -0.0039 -0.3418  0.0901
 5823TIP3    H138960   1.053   1.687   9.332 -0.3468 -1.6791 -0.1640
 5823TIP3    H238961   1.180   1.634   9.268  0.5490  0.3180 -0.1209
 5824TIP3   OH238962   2.659   1.985  10.715  0.3820 -0.0528 -0.1835
 5824TIP3    H138963   2.573   1.962  10.680  0.1480 -1.2317  1.0896
 5824TIP3    H238964   2.646   2.069  10.759 -0.5850 -1.0722  1.5596
 5825TIP3   OH238965   1.575   2.248   0.353 -0.1588 -0.3269 -0.0279
 5825TIP3    H138966   1.591   2.184   0.422  0.1398  0.6220  0.8039
 5825TIP3    H238967   1.530   2.320   0.397 -0.9793 -0.1850 -1.0551
 5826TIP3   OH238968   0.570   1.778  10.120  0.4341  0.3789 -0.2714
 5826TIP3    H138969   0.484   1.775  10.077  1.5541  0.6878 -2.7220
 5826TIP3    H238970   0.611   1.695  10.096  1.1068  0.5599  0.2276
 5827TIP3   OH238971   3.016   2.182   7.881 -0.0127  0.6809  0.2791
 5827TIP3    H138972   2.945   2.124   7.910 -0.5624  0.7836 -0.8153
 5827TIP3    H238973   3.074   2.189   7.957  0.9270 -2.5517  0.0160
 5828TIP3   OH238974   2.538   0.648  36.591  0.2446 -0.5977  0.0602
 5828TIP3    H138975   2.494   0.624  36.673  0.2658  0.0679  0.2753
 5828TIP3    H238976   2.470   0.690  36.539  0.3352 -0.6326 -0.0846
 5829TIP3   OH238977   1.442   0.807  17.036 -0.0417 -0.0121 -0.3039
 5829TIP3    H138978   1.420   0.840  16.949  0.6517  2.2950  0.3090
 5829TIP3    H238979   1.486   0.881  17.079  0.5289 -1.4083  1.6608
 5830TIP3   OH238980   0.275   0.070  29.610  0.0281  0.1695 -0.0474
 5830TIP3    H138981   0.192   0.112  29.632 -0.8773 -1.0941 -0.9043
 5830TIP3    H238982   0.288   0.007  29.680  0.7351  0.9675  0.5566
 5831TIP3   OH238983   4.205   3.303   0.577 -0.3546 -0.1857  0.3730
 5831TIP3    H138984   4.177   3.375   0.634 -0.3329 -0.6421  0.9750
 5831TIP3    H238985   4.186   3.333   0.488 -0.6466  0.4305  0.6410
 5832TIP3   OH238986   2.157   2.004  10.618  0.2341 -0.3315  0.6407
 5832TIP3    H138987   2.180   2.091  10.650 -0.0860 -0.1582  0.4143
 5832TIP3    H238988   2.077   1.981  10.665  0.2420 -0.4448  0.5996
 5833TIP3   OH238989   0.306   2.424  10.986 -0.1487 -0.3264  0.5744
 5833TIP3    H138990   0.331   2.463  11.070  2.4137 -0.1416 -0.1733
 5833TIP3    H238991   0.313   2.329  11.001  0.9029 -0.2852  0.4664
 5834TIP3   OH238992   2.800   0.030  38.655 -0.4241  0.0503  0.7458
 5834TIP3    H138993   2.856   0.100  38.688  0.0297 -0.4202  0.9877
 5834TIP3    H238994   2.717   0.073  38.633 -0.8222  0.3499  2.6736
 5835TIP3   OH238995   0.912   1.060  38.351 -0.4480  0.0421 -0.0655
 5835TIP3    H138996   0.853   1.085  38.422 -0.1418 -0.4315  0.3614
 5835TIP3    H238997   0.999   1.083  38.383 -0.1056 -1.9246  0.5200
 5836TIP3   OH238998   0.924   0.349  33.977 -0.1140 -0.0252 -0.4435
 5836TIP3    H138999   0.924   0.441  33.950 -0.7754  0.3398  0.7352
 5836TIP3    H239000   0.832   0.327  33.988 -0.0500 -1.2662 -2.0567
 5837TIP3   OH239001   4.290   1.496  29.011 -0.3177  0.1404 -0.3730
 5837TIP3    H139002   4.334   1.580  29.026 -2.8418  1.2488  1.4319
 5837TIP3    H239003   4.359   1.431  29.028  1.6117  1.7737 -1.4516
 5838TIP3   OH239004   0.978   1.380  13.490 -0.0803 -0.2800  0.4039
 5838TIP3    H139005   0.963   1.444  13.559 -0.0061 -0.9546  1.0651
 5838TIP3    H239006   1.041   1.319  13.528  1.1645  0.2003 -0.8284
 5839TIP3   OH239007   2.925   2.047  37.769 -0.4312  0.3077 -0.1025
 5839TIP3    H139008   2.842   2.089  37.789  0.3850  1.7648  0.3542
 5839TIP3    H239009   2.922   1.964  37.816 -1.1192  0.9075  0.9635
 5840TIP3   OH239010   2.859   0.573   9.671  0.2793 -0.2851 -0.3712
 5840TIP3    H139011   2.889   0.556   9.760  1.8717 -0.1397 -0.8545
 5840TIP3    H239012   2.902   0.506   9.618 -0.3344 -0.1212 -1.0950
 5841TIP3   OH239013   3.905   0.273  28.800 -0.0558  0.6065 -0.2230
 5841TIP3    H139014   3.840   0.286  28.731 -0.5703 -1.9979 -0.3400
 5841TIP3    H239015   3.941   0.186  28.783  3.5769  1.9264 -0.2036
 5842TIP3   OH239016   0.343   4.347  36.900 -0.7471  0.2288 -0.3490
 5842TIP3    H139017   0.431   4.353  36.937 -0.8970  0.3515 -0.0087
 5842TIP3    H239018   0.320   4.254  36.908 -1.0135  0.3500  0.4278
 5843TIP3   OH239019   1.119   0.260  11.452 -0.0604 -0.0646  0.5429
 5843TIP3    H139020   1.108   0.350  11.482 -0.9694  0.4252 -1.1774
 5843TIP3    H239021   1.194   0.227  11.503  0.2420  1.6184  1.2439
 5844TIP3   OH239022   2.191   3.084  28.948 -0.1463  0.3266  0.4295
 5844TIP3    H139023   2.117   3.128  28.907 -0.1829 -0.2837 -0.1605
 5844TIP3    H239024   2.263   3.095  28.886 -0.4958 -1.6003 -0.3780
 5845TIP3   OH239025   3.983   1.930  41.246  0.2527 -0.1595 -0.7498
 5845TIP3    H139026   3.947   2.018  41.254 -1.2894 -0.6759 -1.6552
 5845TIP3    H239027   4.070   1.936  41.286 -1.1565  0.8902  2.5002
 5846TIP3   OH239028   1.422   0.860  10.725  0.3412 -0.5908 -0.8390
 5846TIP3    H139029   1.363   0.799  10.770 -1.7624  1.7451 -0.2280
 5846TIP3    H239030   1.419   0.940  10.777  1.9665  0.5054 -2.3001
 5847TIP3   OH239031   0.351   4.174  10.363 -0.3907 -0.1600  0.1714
 5847TIP3    H139032   0.339   4.269  10.368 -1.8202 -0.3086  0.2183
 5847TIP3    H239033   0.445   4.161  10.370 -0.0239  1.3377 -1.2502
 5848TIP3   OH239034   0.125   4.399  21.678  0.1339  0.1943 -0.2199
 5848TIP3    H139035   0.097   4.461  21.611  1.6721  0.9301 -0.2215
 5848TIP3    H239036   0.046   4.351  21.700 -0.5427  0.3044 -2.1600
 5849TIP3   OH239037   3.442   3.476  39.634  0.4437  0.1743  0.3584
 5849TIP3    H139038   3.508   3.545  39.642  0.5808 -0.1220  2.1096
 5849TIP3    H239039   3.448   3.448  39.543  0.4701  2.3731 -0.3844
 5850TIP3   OH239040   3.962   2.338  36.240 -0.2670  0.6230 -0.1594
 5850TIP3    H139041   4.026   2.275  36.206 -0.3251  1.1290 -1.2418
 5850TIP3    H239042   3.952   2.315  36.332  1.2067  0.3099 -0.0617
 5851TIP3   OH239043   1.143   3.365  39.146  0.0777  0.4770  0.5644
 5851TIP3    H139044   1.149   3.307  39.223  1.7677  3.1675  2.6520
 5851TIP3    H239045   1.230   3.360  39.107 -0.8183 -0.9850 -1.3797
 5852TIP3   OH239046   3.417   3.868   6.382  0.7143 -0.2606  0.4366
 5852TIP3    H139047   3.404   3.928   6.456 -2.2004  1.2136 -1.0837
 5852TIP3    H239048   3.417   3.781   6.421 -3.5912  0.2557  2.0901
 5853TIP3   OH239049   0.968   3.568   0.914  0.0688 -0.0070  0.5125
 5853TIP3    H139050   1.064   3.557   0.914  0.0025 -0.7427  1.5801
 5853TIP3    H239051   0.934   3.485   0.881 -0.1966  0.5983 -0.7936
 5854TIP3   OH239052   1.134   3.254   1.522  0.0613 -0.4627  0.0546
 5854TIP3    H139053   1.147   3.237   1.429  2.0652  0.8011  0.0419
 5854TIP3    H239054   1.046   3.288   1.528  1.4627  4.4145 -2.2721
 5855TIP3   OH239055   1.174   1.932  26.830 -0.2817  1.0309  0.1366
 5855TIP3    H139056   1.180   1.836  26.837 -0.8954  0.9312 -0.5725
 5855TIP3    H239057   1.081   1.951  26.845  0.0750  1.6649  1.7618
 5856TIP3   OH239058   2.334   0.032  12.024  0.2514 -0.3704  0.0642
 5856TIP3    H139059   2.415   0.081  12.038  0.8295 -1.3374  0.1577
 5856TIP3    H239060   2.304   0.009  12.112 -0.1498  0.0196  0.0320
 5857TIP3   OH239061   3.891   0.680  26.730 -0.0457 -0.2432 -0.1183
 5857TIP3    H139062   3.864   0.588  26.739  0.4330 -0.3103  0.7813
 5857TIP3    H239063   3.865   0.720  26.813  3.2897 -0.5100  1.1969
 5858TIP3   OH239064   0.368   0.266   4.083 -0.2077 -0.1109 -0.3238
 5858TIP3    H139065   0.440   0.287   4.143  0.9781  0.8551 -2.0235
 5858TIP3    H239066   0.296   0.323   4.110 -0.0732 -0.4450  0.8150
 5859TIP3   OH239067   4.143   0.444  25.832 -0.2225  0.4430  0.4078
 5859TIP3    H139068   4.066   0.499  25.814 -0.4725  0.8236  2.3704
 5859TIP3    H239069   4.135   0.421  25.925  0.8664 -1.3985  0.1088
 5860TIP3   OH239070   2.338   2.353   8.253  0.7620  0.0400  0.6579
 5860TIP3    H139071   2.357   2.301   8.176  1.0539 -0.4088  1.0281
 5860TIP3    H239072   2.256   2.399   8.232  1.3819  0.7345 -0.3170
 5861TIP3   OH239073   0.586   1.302  39.356 -0.1566  0.0528 -0.6216
 5861TIP3    H139074   0.621   1.225  39.312 -1.4771 -0.4582 -0.8159
 5861TIP3    H239075   0.504   1.321  39.310 -0.2004  1.1510 -0.1227
 5862TIP3   OH239076   0.722   3.487  25.272  0.1153 -0.6536  0.0545
 5862TIP3    H139077   0.785   3.518  25.337  0.3715 -1.0822  0.0098
 5862TIP3    H239078   0.769   3.492  25.189 -0.5729  0.9897 -0.2867
 5863TIP3   OH239079   2.570   4.284   8.193 -0.2702 -0.3191  0.0486
 5863TIP3    H139080   2.578   4.189   8.188 -1.2492 -0.4801  1.2453
 5863TIP3    H239081   2.661   4.315   8.193  0.0657 -1.1344 -1.7002
 5864TIP3   OH239082   1.811   2.564   0.870 -0.1997 -0.6364  0.4465
 5864TIP3    H139083   1.756   2.611   0.807  0.2306 -0.2814  0.3334
 5864TIP3    H239084   1.749   2.532   0.936 -0.4970  0.0879  0.5273
 5865TIP3   OH239085   1.430   1.468  34.040  0.1662  0.6481 -0.2745
 5865TIP3    H139086   1.523   1.463  34.018  0.9683 -0.4907  2.8053
 5865TIP3    H239087   1.400   1.377  34.044 -0.4545  0.8741  0.8924
 5866TIP3   OH239088   3.988   1.872   4.792 -0.1751 -0.1216 -0.1516
 5866TIP3    H139089   3.927   1.860   4.719  0.6863 -0.1294 -0.8836
 5866TIP3    H239090   3.975   1.963   4.819 -0.5123 -0.1227 -0.3017
 5867TIP3   OH239091   1.155   1.147  10.681 -0.2549 -0.5813  0.4871
 5867TIP3    H139092   1.149   1.127  10.588 -1.1166  0.1195  0.3802
 5867TIP3    H239093   1.066   1.173  10.706  0.3231  0.8702  1.1238
 5868TIP3   OH239094   1.747   0.639  33.083 -0.6658 -0.7279 -0.2635
 5868TIP3    H139095   1.684   0.711  33.088 -0.9206 -0.9445 -0.3832
 5868TIP3    H239096   1.731   0.588  33.162 -0.7218 -0.8517 -0.3558
 5869TIP3   OH239097   0.232   2.316  30.764 -0.3688  0.5618  0.4933
 5869TIP3    H139098   0.301   2.344  30.824  0.5500 -0.6943  0.0773
 5869TIP3    H239099   0.154   2.310  30.819 -0.3488  2.6834  0.8232
 5870TIP3   OH239100   4.107   3.879  38.209 -0.0810  0.3457  0.3546
 5870TIP3    H139101   4.192   3.885  38.166 -0.2201  1.1848  0.1713
 5870TIP3    H239102   4.127   3.860  38.300  0.2875  0.1933  0.2442
 5871TIP3   OH239103   3.524   1.036   5.421 -0.2841  0.1357  0.5771
 5871TIP3    H139104   3.501   0.979   5.348 -0.8461 -1.3452  1.8537
 5871TIP3    H239105   3.619   1.048   5.413  0.1150 -2.2086  1.0587
 5872TIP3   OH239106   2.303   3.620  31.032  0.8897 -0.0074 -0.3950
 5872TIP3    H139107   2.233   3.555  31.036  0.0338  0.7486 -1.9921
 5872TIP3    H239108   2.320   3.643  31.123 -2.2461  1.1178  0.0017
 5873TIP3   OH239109   3.339   3.311   3.884 -0.2658 -0.6384  0.6113
 5873TIP3    H139110   3.306   3.242   3.941 -2.3656 -0.7909 -0.6895
 5873TIP3    H239111   3.352   3.269   3.799 -0.3958  0.3005  0.1118
 5874TIP3   OH239112   2.314   4.375   9.838 -0.1831 -0.1719 -0.1322
 5874TIP3    H139113   2.351   4.351   9.923  0.1972  0.9879  0.0471
 5874TIP3    H239114   2.386   4.418   9.792 -1.6419  4.0813  1.0142
 5875TIP3   OH239115   4.015   1.272  40.280  0.2046 -0.3844 -0.3559
 5875TIP3    H139116   4.084   1.233  40.227  0.1577 -1.5351  0.3916
 5875TIP3    H239117   4.021   1.226  40.364  0.5876  1.6795  0.8222
 5876TIP3   OH239118   3.876   2.661   0.650  0.5435 -0.0579 -0.4064
 5876TIP3    H139119   3.802   2.619   0.693 -0.5927  2.0176 -0.2397
 5876TIP3    H239120   3.906   2.727   0.712  0.5196  1.2316 -1.7111
 5877TIP3   OH239121   1.446   0.925   9.832  0.3068 -0.4362  0.5074
 5877TIP3    H139122   1.351   0.937   9.834  0.2794 -0.6223  0.2430
 5877TIP3    H239123   1.459   0.831   9.846  0.4771 -0.3234  1.1891
 5878TIP3   OH239124   3.657   4.007  35.889 -0.1516 -0.3007  0.0745
 5878TIP3    H139125   3.588   4.054  35.936 -0.3580 -0.7303  0.2026
 5878TIP3    H239126   3.738   4.048  35.919 -0.1978 -1.2958  1.6620
 5879TIP3   OH239127   1.927   4.221  30.344  0.5165  0.1726 -1.0913
 5879TIP3    H139128   1.999   4.191  30.399  0.4235  0.6601 -0.6979
 5879TIP3    H239129   1.934   4.169  30.264 -0.9769 -2.5173  0.4013
 5880TIP3   OH239130   1.706   3.564  38.562 -0.2890 -0.5937 -0.1209
 5880TIP3    H139131   1.648   3.493  38.533 -2.2114  1.6591 -2.3180
 5880TIP3    H239132   1.651   3.642  38.559  1.8888  1.1309  1.5507
 5881TIP3   OH239133   1.168   2.293  31.304  0.0889 -0.7224  0.2651
 5881TIP3    H139134   1.244   2.259  31.350 -1.2900 -1.2400  2.3042
 5881TIP3    H239135   1.204   2.344  31.232  2.3423 -1.0955  1.0566
 5882TIP3   OH239136   2.883   2.491  33.840 -0.6720 -0.5644  0.2773
 5882TIP3    H139137   2.964   2.441  33.828 -2.2250 -2.8624 -1.5027
 5882TIP3    H239138   2.913   2.579  33.865  2.2958 -1.6165  0.8424
 5883TIP3   OH239139   2.767   2.273  27.662 -0.3236  0.0169  0.1391
 5883TIP3    H139140   2.734   2.220  27.590 -0.3616 -0.8378  0.7771
 5883TIP3    H239141   2.860   2.286  27.641 -0.1714 -0.8008  0.2643
 5884TIP3   OH239142   1.992   2.787  33.662 -0.0776 -0.2007  0.4144
 5884TIP3    H139143   1.974   2.730  33.586 -0.1447  0.2715  0.0698
 5884TIP3    H239144   1.932   2.756  33.729  1.8796 -2.4864  1.2672
 5885TIP3   OH239145   0.234   3.581  26.672  0.1489 -0.7912 -0.1264
 5885TIP3    H139146   0.321   3.545  26.657  0.0159 -0.6908 -1.2029
 5885TIP3    H239147   0.203   3.537  26.751  0.4265 -2.2412 -0.8024
 5886TIP3   OH239148   0.001   4.114   6.330 -0.4512 -0.2702  0.2966
 5886TIP3    H139149  -0.078   4.117   6.385 -0.7641  0.1737 -0.1747
 5886TIP3    H239150   0.073   4.126   6.392 -0.7672 -0.3855  0.6935
 5887TIP3   OH239151   1.528   3.395  38.469 -0.0020 -0.0543 -0.1919
 5887TIP3    H139152   1.517   3.343  38.389 -0.2511  0.3471 -0.4207
 5887TIP3    H239153   1.453   3.372  38.523  1.6715 -2.6413  1.2596
 5888TIP3   OH239154   3.525   3.860  37.726  1.3507 -0.1584 -0.2414
 5888TIP3    H139155   3.481   3.818  37.800  2.7429  0.1821  0.8399
 5888TIP3    H239156   3.597   3.801  37.705  1.6737  0.3353 -0.5384
 5889TIP3   OH239157   4.185   0.882  30.015  0.1209  0.3120 -0.1728
 5889TIP3    H139158   4.127   0.938  30.067  0.9849  0.4182  0.7109
 5889TIP3    H239159   4.166   0.905  29.924 -0.6306  0.9244  0.1285
 5890TIP3   OH239160   4.174   2.911  12.937 -0.1077  0.0644 -0.3935
 5890TIP3    H139161   4.151   2.831  12.984  0.1937 -1.0162 -2.0098
 5890TIP3    H239162   4.269   2.906  12.925 -0.3678 -0.6032 -2.6182
 5891TIP3   OH239163   2.916   3.751  37.411  0.3595  0.3692 -0.5798
 5891TIP3    H139164   2.965   3.735  37.492  1.1182  1.4414 -0.8094
 5891TIP3    H239165   2.876   3.667  37.390 -2.8965  0.7883  2.8616
 5892TIP3   OH239166   0.728   2.364  12.843  0.7835 -0.5313  0.3358
 5892TIP3    H139167   0.811   2.372  12.796  0.3471  0.6697 -0.2724
 5892TIP3    H239168   0.668   2.420  12.794 -0.1192 -0.5819  1.3637
 5893TIP3   OH239169   4.272   1.106  33.796 -0.8657 -0.4217  0.2424
 5893TIP3    H139170   4.180   1.077  33.805 -0.4613 -1.4218  1.5445
 5893TIP3    H239171   4.298   1.073  33.710 -1.3369 -1.3578  0.4348
 5894TIP3   OH239172   2.965   4.338   8.887  0.0257  0.0777  0.2622
 5894TIP3    H139173   2.923   4.343   8.801 -0.6660  1.3985  0.6377
 5894TIP3    H239174   3.055   4.366   8.871  0.3715 -1.2961 -0.2947
 5895TIP3   OH239175   3.917   0.132  39.340 -0.0741 -0.5902  0.4274
 5895TIP3    H139176   3.882   0.048  39.369  0.4071 -0.6280  0.9098
 5895TIP3    H239177   3.886   0.141  39.249 -1.8996 -0.3088  1.0382
 5896TIP3   OH239178   3.066   0.316   4.716  0.4267 -0.3768 -0.2518
 5896TIP3    H139179   2.974   0.289   4.716 -0.0898  1.2193 -0.1210
 5896TIP3    H239180   3.090   0.317   4.623 -0.4257  1.3415 -0.5047
 5897TIP3   OH239181   2.738   2.297   6.658 -0.4794  0.9204 -0.2204
 5897TIP3    H139182   2.732   2.219   6.603 -1.1134  1.6750 -1.2854
 5897TIP3    H239183   2.820   2.339   6.630  0.8673 -0.2875  1.6913
 5898TIP3   OH239184   2.532   0.067  31.243  0.1609 -0.2743  0.2851
 5898TIP3    H139185   2.577   0.151  31.245  0.2387 -0.3321  1.5298
 5898TIP3    H239186   2.551   0.026  31.327 -1.0321 -0.9227  0.2745
 5899TIP3   OH239187   3.355   1.325  11.201  0.0935 -0.4369 -0.7135
 5899TIP3    H139188   3.291   1.276  11.149  1.3426 -1.0440 -1.7592
 5899TIP3    H239189   3.384   1.263  11.267 -0.3371 -0.1870 -0.2879
 5900TIP3   OH239190   2.955   0.533   9.929  0.3619  0.4218  0.0003
 5900TIP3    H139191   2.997   0.522  10.014  1.8005  2.1366 -0.4234
 5900TIP3    H239192   2.872   0.487   9.937  2.2815 -3.2765  0.8644
 5901TIP3   OH239193   1.327   0.423  28.598 -0.6813  0.6525  0.5360
 5901TIP3    H139194   1.283   0.377  28.527 -1.1249  0.8702  0.6642
 5901TIP3    H239195   1.272   0.500  28.614  0.4404  1.6382 -0.1922
 5902TIP3   OH239196   0.524   4.070  37.879 -0.1805  0.0628  0.1800
 5902TIP3    H139197   0.592   4.135  37.860 -0.4932  0.4193  0.2621
 5902TIP3    H239198   0.562   4.014  37.946  0.2070 -0.0241 -0.1125
 5903TIP3   OH239199   0.311   2.955   4.142  0.1713  0.3014  0.4906
 5903TIP3    H139200   0.255   3.031   4.130 -1.4272 -0.4008  2.8893
 5903TIP3    H239201   0.273   2.887   4.086 -0.8611  0.0942  1.4300
 5904TIP3   OH239202   3.306   4.080  31.540 -0.4424  0.6644  0.1378
 5904TIP3    H139203   3.273   4.026  31.612 -0.6814  0.1211 -0.3685
 5904TIP3    H239204   3.305   4.169  31.574  0.7035  0.2639  1.2581
 5905TIP3   OH239205   0.442   1.025  30.728 -0.1646 -0.8250  0.0280
 5905TIP3    H139206   0.363   1.009  30.780 -0.7651 -0.8565 -0.8711
 5905TIP3    H239207   0.501   1.071  30.788 -0.6952 -1.1837  0.8457
 5906TIP3   OH239208   0.620   3.547   6.920 -0.1001  0.3314 -0.0321
 5906TIP3    H139209   0.654   3.528   6.833 -0.9099  1.9139 -0.7271
 5906TIP3    H239210   0.568   3.626   6.909 -1.4762 -0.2925  1.5973
 5907TIP3   OH239211   2.568   4.374  40.676 -0.0853 -0.1945 -0.4181
 5907TIP3    H139212   2.546   4.359  40.768  0.4735 -1.4060 -0.4643
 5907TIP3    H239213   2.658   4.344  40.667  0.4772  1.5374 -0.9959
 5908TIP3   OH239214   1.945   1.448   5.551 -0.6225  0.5191  0.2087
 5908TIP3    H139215   1.954   1.392   5.629 -1.5192  0.9534  0.6409
 5908TIP3    H239216   1.876   1.510   5.574  0.0867  1.5709 -0.4075
 5909TIP3   OH239217   2.134   1.662  34.522 -0.5072 -0.4725 -0.5636
 5909TIP3    H139218   2.120   1.577  34.480 -2.0799 -0.1364 -0.7655
 5909TIP3    H239219   2.097   1.726  34.462 -0.1156  0.2940 -0.0140
 5910TIP3   OH239220   0.078   3.372   9.608  0.1356 -0.1855  0.4524
 5910TIP3    H139221   0.071   3.280   9.583 -0.4611  0.0034 -0.0969
 5910TIP3    H239222   0.150   3.406   9.556  0.3648 -0.3440  0.6647
 5911TIP3   OH239223   4.302   3.847   3.715 -0.3012 -0.2733  0.7696
 5911TIP3    H139224   4.351   3.914   3.667  1.1459 -0.5284  1.8087
 5911TIP3    H239225   4.277   3.888   3.797 -1.2840 -0.3583  0.5215
 5912TIP3   OH239226   0.614   2.211   6.550 -0.1564  0.0428 -0.0594
 5912TIP3    H139227   0.694   2.170   6.519  1.2695  1.4458  1.5704
 5912TIP3    H239228   0.568   2.141   6.597  0.3884 -0.6280 -0.5118
 5913TIP3   OH239229   1.328   3.371  40.553  0.9470  0.0855  0.1145
 5913TIP3    H139230   1.324   3.324  40.636 -0.2692 -1.3599 -0.6942
 5913TIP3    H239231   1.253   3.431  40.556  0.8601 -0.0191  0.0320
 5914TIP3   OH239232   3.764   0.310   0.408  0.1618  0.2883  0.2824
 5914TIP3    H139233   3.727   0.337   0.325  1.6459 -2.0587 -1.2766
 5914TIP3    H239234   3.768   0.390   0.461  1.4486  2.4400 -2.7962
 5915TIP3   OH239235   1.489   3.351  11.711 -0.7461  0.2989 -0.2092
 5915TIP3    H139236   1.549   3.422  11.688 -1.4737  1.4347  1.2366
 5915TIP3    H239237   1.542   3.292  11.764 -0.4206  0.3048 -0.5190
 5916TIP3   OH239238   0.202   2.038  24.996  0.2120  0.3082 -0.5020
 5916TIP3    H139239   0.289   2.066  25.025  0.4159  1.0930 -1.7943
 5916TIP3    H239240   0.219   1.969  24.932 -0.2000 -0.8268  0.5771
 5917TIP3   OH239241   1.031   1.756   6.289  0.0227  0.8434  0.4056
 5917TIP3    H139242   1.119   1.759   6.251  0.7481  1.2062  2.0267
 5917TIP3    H239243   1.045   1.739   6.382 -1.7657 -2.1264  0.2530
 5918TIP3   OH239244   3.585   1.480   1.738  0.4784  0.3513  0.0960
 5918TIP3    H139245   3.564   1.388   1.718 -0.4651  0.9028 -1.7558
 5918TIP3    H239246   3.665   1.476   1.790  0.9656 -1.4997 -0.7019
 5919TIP3   OH239247   1.600   2.867  10.676  0.0568 -0.4507 -0.5616
 5919TIP3    H139248   1.521   2.835  10.719  1.4507 -1.9221  1.0953
 5919TIP3    H239249   1.624   2.796  10.616  1.7646 -1.5420  1.2631
 5920TIP3   OH239250   3.919   2.355  22.878 -0.4949  0.2662  0.5082
 5920TIP3    H139251   3.955   2.430  22.925 -1.6225 -0.1867  2.1413
 5920TIP3    H239252   3.957   2.279  22.922 -2.4524 -0.1894  1.4880
 5921TIP3   OH239253   2.193   3.789  40.917 -0.0825  0.2394 -0.3906
 5921TIP3    H139254   2.282   3.809  40.889  0.0441 -0.3120 -0.3969
 5921TIP3    H239255   2.137   3.832  40.853  0.1902  0.0799 -0.7367
 5922TIP3   OH239256   4.313   1.823   4.315 -0.0775 -0.1219 -0.1831
 5922TIP3    H139257   4.243   1.760   4.330  1.8709 -2.6041 -0.8456
 5922TIP3    H239258   4.390   1.783   4.355  1.0486  2.4388  0.3952
 5923TIP3   OH239259   2.697   1.126  27.218 -0.4076 -0.2339 -0.3777
 5923TIP3    H139260   2.746   1.186  27.274  0.9463 -0.0917 -1.6373
 5923TIP3    H239261   2.764   1.078  27.169 -1.5065 -0.3283 -1.8830
 5924TIP3   OH239262   3.620   0.135   7.737  0.0537  0.2021  0.4553
 5924TIP3    H139263   3.704   0.181   7.742  0.1374 -0.0923  2.9304
 5924TIP3    H239264   3.643   0.044   7.719 -0.0310  0.7226 -2.8689
 5925TIP3   OH239265   2.195   2.084   5.297  0.0000 -0.4476  0.0868
 5925TIP3    H139266   2.232   2.085   5.209 -0.5609 -2.0730 -0.1883
 5925TIP3    H239267   2.263   2.043   5.351  1.2513  2.4291  0.9066
 5926TIP3   OH239268   3.387   0.207  31.882  0.2461  0.5433 -0.5251
 5926TIP3    H139269   3.455   0.198  31.814  0.4967  0.2070 -0.2382
 5926TIP3    H239270   3.389   0.299  31.906  0.6560  0.5246 -0.4704
 5927TIP3   OH239271   1.106   4.037   7.651  0.4314  0.0912  0.3131
 5927TIP3    H139272   1.091   4.002   7.564 -1.5181  1.7537 -0.1098
 5927TIP3    H239273   1.056   3.981   7.710  1.8690 -1.1218  0.4533
 5928TIP3   OH239274   2.127   1.956   7.299 -0.0936 -0.3830  0.3586
 5928TIP3    H139275   2.112   2.030   7.359 -1.1039 -0.7424  0.5706
 5928TIP3    H239276   2.052   1.898   7.314  0.7987 -1.5659  0.3564
 5929TIP3   OH239277   1.437   2.069  17.761  0.3439  0.0876 -0.0454
 5929TIP3    H139278   1.350   2.031  17.752  0.7189 -0.5918 -1.0214
 5929TIP3    H239279   1.425   2.145  17.818 -1.1142  0.7790 -1.2120
 5930TIP3   OH239280   4.234   3.375  37.341  0.6949  0.1307 -0.0093
 5930TIP3    H139281   4.159   3.378  37.281 -0.3181 -0.7039  1.1742
 5930TIP3    H239282   4.311   3.376  37.283 -0.2452 -0.5945 -1.3210
 5931TIP3   OH239283   3.614   2.741  29.587 -0.4030 -0.1730 -0.0804
 5931TIP3    H139284   3.576   2.829  29.591  1.2044  0.5609 -0.2679
 5931TIP3    H239285   3.598   2.704  29.674  2.3138  1.8360  1.4249
 5932TIP3   OH239286   4.022   2.377  25.272 -0.0519 -0.2770 -0.3202
 5932TIP3    H139287   3.965   2.379  25.349 -1.6287  1.5948 -1.4524
 5932TIP3    H239288   4.099   2.426  25.298 -1.3215  1.8752 -0.4180
 5933TIP3   OH239289   1.725   2.930  31.350 -0.3389  0.1438 -0.3542
 5933TIP3    H139290   1.738   2.980  31.269  2.7257 -0.5901 -0.4299
 5933TIP3    H239291   1.812   2.896  31.372 -1.4616 -1.4284  2.1387
 5934TIP3   OH239292   0.774   3.629   3.193  0.2976  0.2119  0.6994
 5934TIP3    H139293   0.790   3.674   3.110 -2.9357  1.2416  0.4957
 5934TIP3    H239294   0.764   3.537   3.168 -0.1994  0.4457 -0.0151
 5935TIP3   OH239295   2.545   2.497  10.312  0.1265 -0.3745 -0.0243
 5935TIP3    H139296   2.490   2.565  10.273 -0.9702 -1.6861 -0.8463
 5935TIP3    H239297   2.531   2.506  10.406  0.4957  0.9201 -0.0673
 5936TIP3   OH239298   1.907   2.063   5.363  0.8583 -0.1720  0.0375
 5936TIP3    H139299   1.916   1.994   5.297  0.0505 -0.1895 -0.0641
 5936TIP3    H239300   1.996   2.075   5.397  0.8751 -1.9088  0.7150
 5937TIP3   OH239301   0.387   3.627   3.932 -0.1909 -0.6052  0.2983
 5937TIP3    H139302   0.365   3.535   3.941 -1.4669 -0.3506 -0.0183
 5937TIP3    H239303   0.341   3.655   3.853 -0.9668  0.6235  1.1463
 5938TIP3   OH239304   3.938   0.054   2.717  0.0927  0.1449  0.0482
 5938TIP3    H139305   3.843   0.063   2.713 -0.0538 -1.3793 -2.9957
 5938TIP3    H239306   3.971   0.115   2.650  0.8961 -1.8259 -1.4831
 5939TIP3   OH239307   2.510   3.189  32.738  0.3768 -0.2577  0.1107
 5939TIP3    H139308   2.508   3.285  32.728  0.2472  0.0146  2.3505
 5939TIP3    H239309   2.418   3.164  32.747  0.5294  0.0566  4.1153
 5940TIP3   OH239310   3.113   2.203  10.062  0.4554 -0.2344  0.4795
 5940TIP3    H139311   3.176   2.273  10.044  0.6947 -0.8768 -1.2645
 5940TIP3    H239312   3.032   2.250  10.086  0.1580  0.7346 -2.1673
 5941TIP3   OH239313   0.184   3.744  36.014 -0.3958 -0.5928  0.5434
 5941TIP3    H139314   0.230   3.826  35.996 -0.1666 -0.8665 -0.1419
 5941TIP3    H239315   0.250   3.676  36.001 -0.1666 -0.8166  2.5836
 5942TIP3   OH239316   3.113   1.452   0.515 -0.1667 -0.1877  0.3090
 5942TIP3    H139317   3.170   1.437   0.440 -2.1678 -2.2981 -0.9246
 5942TIP3    H239318   3.059   1.526   0.490 -0.8141 -0.8722 -0.3891
 5943TIP3   OH239319   0.051   1.241   5.263 -0.3530  0.6717  0.2201
 5943TIP3    H139320   0.060   1.251   5.357  1.8613 -2.5921  0.5323
 5943TIP3    H239321   0.107   1.310   5.226  0.7397  0.4687  1.4184
 5944TIP3   OH239322   3.214   0.761  39.673  0.4548  0.1741 -0.1008
 5944TIP3    H139323   3.168   0.678  39.685  0.6410  0.1819  0.7542
 5944TIP3    H239324   3.185   0.793  39.588  0.5070 -0.8430 -0.5127
 5945TIP3   OH239325   2.131   4.039   7.897  0.0887  0.0601 -0.3641
 5945TIP3    H139326   2.207   4.010   7.847  0.6319  0.8344 -0.0013
 5945TIP3    H239327   2.137   4.135   7.897 -0.2633  0.0885  0.6262
 5946TIP3   OH239328   1.138   0.364  11.183 -0.4466  0.1448 -0.0800
 5946TIP3    H139329   1.206   0.316  11.135  2.1362  2.7300  0.7057
 5946TIP3    H239330   1.135   0.321  11.269  1.0160  0.6078  0.2330
 5947TIP3   OH239331   2.325   0.764   5.884 -0.2291 -0.1831 -0.1483
 5947TIP3    H139332   2.248   0.709   5.895 -1.2183  0.9886 -0.8751
 5947TIP3    H239333   2.346   0.794   5.973 -0.4329 -0.7489  0.0926
 5948TIP3   OH239334   0.156   3.913  39.493 -0.1653  0.0798  0.2846
 5948TIP3    H139335   0.115   3.839  39.449 -0.2670  0.8514 -0.9481
 5948TIP3    H239336   0.216   3.950  39.428  0.1470  0.8751  1.0002
 5949TIP3   OH239337   4.173   3.745  38.916  0.5129  0.7387 -0.3767
 5949TIP3    H139338   4.241   3.736  38.983 -1.9777  1.3305  2.4596
 5949TIP3    H239339   4.164   3.839  38.902 -1.7638  0.9568  1.7708
 5950TIP3   OH239340   2.257   0.576  39.218 -0.0228 -0.1479  0.1003
 5950TIP3    H139341   2.280   0.519  39.291 -0.2332  0.0674  0.3377
 5950TIP3    H239342   2.307   0.656  39.234 -1.3734  0.5810  0.9779
 5951TIP3   OH239343   0.959   3.151  14.029  0.3355  0.2018 -0.0544
 5951TIP3    H139344   0.954   3.202  14.110 -2.1394 -0.1132  0.0672
 5951TIP3    H239345   0.957   3.060  14.057 -1.4393  0.0864 -0.4500
 5952TIP3   OH239346   2.358   3.314  31.119 -0.1605 -0.2727  0.3134
 5952TIP3    H139347   2.378   3.373  31.191 -0.1331  1.2390 -0.8715
 5952TIP3    H239348   2.441   3.271  31.099 -0.2932 -1.1273  1.5152
 5953TIP3   OH239349   4.188   3.139  40.061  0.2850 -0.4927 -0.1921
 5953TIP3    H139350   4.171   3.091  39.979 -0.6820 -0.6357  0.0748
 5953TIP3    H239351   4.132   3.095  40.126  4.0128 -3.1085  1.5888
 5954TIP3   OH239352   0.109   3.130  36.185 -0.2339  0.2945 -0.2462
 5954TIP3    H139353   0.132   3.071  36.114  0.3556 -0.7288  0.7529
 5954TIP3    H239354   0.187   3.132  36.241  0.1106  2.7490 -0.6897
 5955TIP3   OH239355   2.429   3.109   5.004 -0.3098 -0.6272  0.5016
 5955TIP3    H139356   2.410   3.157   4.924  2.0686  1.5393  1.0890
 5955TIP3    H239357   2.362   3.138   5.066 -0.1273  0.4140  0.2374
 5956TIP3   OH239358   3.836   0.737  39.732  0.4514 -0.3545  0.5973
 5956TIP3    H139359   3.846   0.695  39.646  0.6084  1.8638 -0.5474
 5956TIP3    H239360   3.925   0.743  39.766  0.5643  0.0364  0.2442
 5957TIP3   OH239361   3.263   0.922   0.938  0.3136  0.3693 -0.1430
 5957TIP3    H139362   3.224   0.873   0.866 -1.1702 -0.4133  1.1155
 5957TIP3    H239363   3.216   1.006   0.938 -1.1197 -0.3730  1.0470
 5958TIP3   OH239364   4.365   2.213  40.213 -0.1857 -0.7535 -0.3623
 5958TIP3    H139365   4.454   2.181  40.230 -0.3827 -1.4677 -0.5953
 5958TIP3    H239366   4.373   2.265  40.133  0.7654  2.7220  1.7843
 5959TIP3   OH239367   2.629   3.270  13.965 -0.6272  0.3251 -0.4944
 5959TIP3    H139368   2.562   3.296  14.028  0.3142  0.1325  0.6318
 5959TIP3    H239369   2.707   3.253  14.019 -0.0245 -0.6691 -1.6326
 5960TIP3   OH239370   1.731   0.497  32.826 -0.3047 -0.5710  0.2018
 5960TIP3    H139371   1.730   0.557  32.901 -0.3750  0.9747 -0.9955
 5960TIP3    H239372   1.678   0.422  32.855 -1.3017  0.5006  1.2759
 5961TIP3   OH239373   2.080   1.436  31.358  0.2020 -0.4214 -0.0894
 5961TIP3    H139374   2.155   1.446  31.417 -0.1670 -0.7025  0.4420
 5961TIP3    H239375   2.119   1.423  31.272  0.7480  1.3017 -0.1496
 5962TIP3   OH239376   2.049   1.119  39.700 -0.5664  0.4469  0.0358
 5962TIP3    H139377   2.143   1.134  39.686 -0.5072  0.5780  0.5685
 5962TIP3    H239378   2.006   1.175  39.635 -0.2440 -2.7816 -3.2745
 5963TIP3   OH239379   0.441   1.690  38.286 -0.1473 -0.2975 -0.1926
 5963TIP3    H139380   0.492   1.658  38.211  2.5276 -0.3150  1.5101
 5963TIP3    H239381   0.374   1.624  38.299  1.3597 -1.9822 -0.6265
 5964TIP3   OH239382   3.731   1.122  13.211  0.1060 -0.1503 -0.0989
 5964TIP3    H139383   3.738   1.115  13.116  0.5956  0.6022 -0.1208
 5964TIP3    H239384   3.657   1.180  13.226  0.2182 -0.0226 -0.0308
 5965TIP3   OH239385   2.466   0.786   0.238 -0.2326  0.0321 -0.4513
 5965TIP3    H139386   2.387   0.812   0.191 -1.5501 -0.6522  1.2857
 5965TIP3    H239387   2.454   0.693   0.256  2.1038 -0.7152 -2.2017
 5966TIP3   OH239388   4.186   0.931  10.097  0.2803  0.4673 -0.0252
 5966TIP3    H139389   4.220   0.844  10.075  0.6228  0.0433  1.9538
 5966TIP3    H239390   4.142   0.960  10.017  0.3438 -1.4248 -0.8176
 5967TIP3   OH239391   2.192   1.196  36.617  0.0746  0.1928 -0.7617
 5967TIP3    H139392   2.219   1.106  36.632  0.8188  0.5772  0.3081
 5967TIP3    H239393   2.158   1.226  36.702  2.7912  1.8911 -0.1485
 5968TIP3   OH239394   2.855   4.297  38.412  0.4884 -0.4520 -0.0849
 5968TIP3    H139395   2.861   4.362  38.482  1.3181 -1.1803  0.5408
 5968TIP3    H239396   2.823   4.347  38.336  0.5878  0.5669  0.5175
 5969TIP3   OH239397   3.383   2.037  30.901 -0.3398  0.4700 -0.2377
 5969TIP3    H139398   3.315   2.099  30.875  0.0202  1.7523  1.6313
 5969TIP3    H239399   3.366   2.021  30.994  1.4961  0.3127  0.1100
 5970TIP3   OH239400   2.380   1.470  37.278  0.7008  0.0515 -0.9134
 5970TIP3    H139401   2.336   1.388  37.254 -1.3917  0.5343  1.0177
 5970TIP3    H239402   2.392   1.515  37.195 -1.2182 -0.7429 -1.6913
 5971TIP3   OH239403   0.748   1.895  13.596 -0.5868 -0.9832 -0.4693
 5971TIP3    H139404   0.700   1.843  13.661  0.8769 -0.5118  1.0756
 5971TIP3    H239405   0.790   1.831  13.539 -3.2950 -1.4071 -2.1409
 5972TIP3   OH239406   4.259   1.095  35.260  0.0570  0.9560 -0.4700
 5972TIP3    H139407   4.267   1.010  35.218  0.3784  0.4781  0.5202
 5972TIP3    H239408   4.311   1.087  35.340 -1.6113  1.3745  0.7117
 5973TIP3   OH239409   0.744   0.588  11.443  0.2206  0.0163 -0.9019
 5973TIP3    H139410   0.736   0.652  11.514 -0.6033 -1.0401 -0.0187
 5973TIP3    H239411   0.654   0.573  11.414  0.3617 -1.0457 -0.8131
 5974TIP3   OH239412   4.151   3.473   0.367  0.3411 -0.4735 -0.0216
 5974TIP3    H139413   4.066   3.490   0.327  0.3602 -0.1002  0.0974
 5974TIP3    H239414   4.174   3.554   0.411  1.0324 -0.3799 -0.5421
 5975TIP3   OH239415   2.001   2.884  34.961  0.1425 -0.3083 -0.3355
 5975TIP3    H139416   1.960   2.969  34.975  1.2687  0.2070  0.0027
 5975TIP3    H239417   2.089   2.894  34.999  0.5525 -1.3799 -0.9652
 5976TIP3   OH239418   3.600   3.412   0.277  0.2201  0.1580  0.7633
 5976TIP3    H139419   3.551   3.348   0.329 -0.7899 -2.0350 -2.5494
 5976TIP3    H239420   3.532   3.464   0.235  0.9519  1.0709  0.6942
 5977TIP3   OH239421   2.981   3.165  30.906 -0.4722  0.2434  0.0091
 5977TIP3    H139422   2.951   3.164  30.997 -1.1757  0.0360 -0.2146
 5977TIP3    H239423   2.955   3.250  30.873 -1.8595 -0.3547 -0.5086
 5978TIP3   OH239424   2.801   1.571  30.550  0.3599  0.3718  0.0886
 5978TIP3    H139425   2.796   1.611  30.636  0.4125  1.9424 -0.6129
 5978TIP3    H239426   2.854   1.492  30.563 -0.4691  0.0420  1.6602
 5979TIP3   OH239427   1.398   3.524  10.834 -0.2929  0.0773  0.1897
 5979TIP3    H139428   1.398   3.602  10.890  1.0249  1.0396 -1.0662
 5979TIP3    H239429   1.323   3.537  10.776  1.0263  1.4194 -1.2822
 5980TIP3   OH239430   3.628   3.270  39.857  0.2853 -0.3385  0.0881
 5980TIP3    H139431   3.710   3.235  39.825  2.0429  1.1185  2.6200
 5980TIP3    H239432   3.604   3.338  39.795  1.8397  0.2499  0.1012
 5981TIP3   OH239433   1.816   1.712  11.957 -0.0210 -0.2596 -0.1047
 5981TIP3    H139434   1.806   1.705  11.862 -0.1243 -0.3028 -0.0909
 5981TIP3    H239435   1.846   1.801  11.972  1.6940 -0.7639 -0.3262
 5982TIP3   OH239436   2.989   1.026   0.921 -0.0499  0.0870  0.1111
 5982TIP3    H139437   2.989   0.933   0.947 -1.3378 -1.0626 -3.3612
 5982TIP3    H239438   2.898   1.054   0.932 -0.2727  0.0408 -1.3736
 5983TIP3   OH239439   1.009   2.073   8.961 -0.1927  0.0828 -0.0763
 5983TIP3    H139440   1.010   2.024   8.879 -3.9109 -0.0103 -0.2354
 5983TIP3    H239441   1.009   2.005   9.029  0.1118  0.0697 -0.0878
 5984TIP3   OH239442   0.185   2.851  35.133 -0.1725 -0.2002 -0.1566
 5984TIP3    H139443   0.131   2.927  35.152 -1.3790 -0.6703 -1.5337
 5984TIP3    H239444   0.235   2.876  35.055  0.3809 -0.3702  0.1373
 5985TIP3   OH239445   2.683   2.684   8.389  0.4386 -0.6725  0.5605
 5985TIP3    H139446   2.762   2.664   8.338 -0.6799 -0.1338 -1.5001
 5985TIP3    H239447   2.662   2.774   8.367 -0.8690 -0.8736  0.8970
 5986TIP3   OH239448   3.108   0.766  34.994 -0.0171 -0.0133  0.0319
 5986TIP3    H139449   3.015   0.742  34.988 -0.2378  1.0523 -1.3739
 5986TIP3    H239450   3.131   0.752  35.086 -2.0047  1.2094  0.7666
 5987TIP3   OH239451   0.020   1.880  38.971  0.1221 -0.1120  0.0010
 5987TIP3    H139452  -0.039   1.817  38.929 -1.3556  0.5153  1.0331
 5987TIP3    H239453   0.023   1.852  39.062  2.4604 -0.8480 -0.2483
 5988TIP3   OH239454   0.309   3.236  22.020  0.0570 -0.1075 -0.1322
 5988TIP3    H139455   0.343   3.268  22.104 -0.2825  0.5288 -0.2349
 5988TIP3    H239456   0.308   3.141  22.030  0.1615 -0.0439  0.5346
 5989TIP3   OH239457   0.146   3.939  10.882 -0.1913  0.0546 -0.0465
 5989TIP3    H139458   0.186   3.999  10.818 -1.5133  0.4422 -0.5335
 5989TIP3    H239459   0.055   3.967  10.888 -0.0993  0.0480  2.0543
 5990TIP3   OH239460   1.970   0.451  41.292 -0.2777  0.4276 -0.2812
 5990TIP3    H139461   2.017   0.522  41.337  1.1816 -0.4277 -0.3996
 5990TIP3    H239462   1.895   0.432  41.349  0.9297  0.0995  1.2678
 5991TIP3   OH239463   4.198   0.015   5.157 -0.0110  0.0310 -0.3296
 5991TIP3    H139464   4.109   0.016   5.122 -0.5485 -2.9522  0.6829
 5991TIP3    H239465   4.187   0.034   5.250  0.4826  0.2212 -0.3063
 5992TIP3   OH239466   3.295   3.324  41.498  0.3051 -0.3994  0.2627
 5992TIP3    H139467   3.242   3.270  41.439 -0.4157  0.5774 -0.0194
 5992TIP3    H239468   3.293   3.278  41.581 -1.3181 -0.2301  0.3495
 5993TIP3   OH239469   1.637   3.699   8.655  0.5564 -0.1239 -0.2075
 5993TIP3    H139470   1.726   3.694   8.622  0.4625 -0.4467 -0.4202
 5993TIP3    H239471   1.647   3.703   8.750  0.7916 -0.4852 -0.2126
 5994TIP3   OH239472   0.695   1.841  36.805  0.3181  0.2363 -0.1648
 5994TIP3    H139473   0.697   1.878  36.894 -1.4086 -0.0478  0.0285
 5994TIP3    H239474   0.621   1.780  36.807  1.5183 -1.3266 -1.2162
 5995TIP3   OH239475   3.099   2.391   1.786 -0.0579  0.0171 -0.4361
 5995TIP3    H139476   3.189   2.419   1.798 -0.0983  0.9323 -2.0218
 5995TIP3    H239477   3.106   2.303   1.749  0.1430 -0.4233  0.6185
 5996TIP3   OH239478   3.113   0.432  40.307  0.1638 -0.1737  0.3632
 5996TIP3    H139479   3.199   0.405  40.274  0.4901 -0.5223  1.4752
 5996TIP3    H239480   3.089   0.365  40.370 -1.0052 -0.1582 -0.0477
 5997TIP3   OH239481   2.433   0.294  32.836  0.4810  0.0965 -0.3179
 5997TIP3    H139482   2.463   0.350  32.907  0.3431  1.0264 -0.9739
 5997TIP3    H239483   2.498   0.224  32.831  1.0167  0.5556  0.0923
 5998TIP3   OH239484   4.289   1.308  32.098 -0.2193  0.6680  0.0625
 5998TIP3    H139485   4.241   1.293  32.179 -0.5073  0.6260 -0.1172
 5998TIP3    H239486   4.271   1.399  32.076  0.6741  0.9922  0.5833
 5999TIP3   OH239487   0.090   4.128  33.540  0.1932  0.0083  0.4040
 5999TIP3    H139488   0.025   4.091  33.599 -0.1060  2.1160  1.4595
 5999TIP3    H239489   0.052   4.117  33.453 -0.6394 -0.5799  0.8323
 6000TIP3   OH239490   0.051   1.027  40.903  0.8914 -0.0385  0.3206
 6000TIP3    H139491   0.034   0.991  40.990  0.4679 -0.4256  0.0848
 6000TIP3    H239492   0.147   1.022  40.893  0.9106 -0.3155  0.6311
 6001TIP3   OH239493   2.192   0.793   6.707  0.2314  0.4948 -0.1991
 6001TIP3    H139494   2.132   0.838   6.767  1.5670  2.4731 -0.2285
 6001TIP3    H239495   2.274   0.843   6.714  2.1405 -2.4778  0.3530
 6002TIP3   OH239496   0.209   2.584  12.669  0.1614  0.4724 -0.7040
 6002TIP3    H139497   0.260   2.575  12.750 -0.2934  1.0784 -0.3422
 6002TIP3    H239498   0.183   2.494  12.647 -0.2689  0.3666  0.1941
 6003TIP3   OH239499   3.995   1.047   7.074 -0.5886 -0.5307  0.3367
 6003TIP3    H139500   4.045   0.966   7.069 -0.2877 -0.4061  1.0842
 6003TIP3    H239501   3.958   1.047   7.163  0.3429  0.6617  0.7522
 6004TIP3   OH239502   0.266   2.807  33.839  0.0550  0.3580  0.5665
 6004TIP3    H139503   0.351   2.847  33.819  0.4718 -0.8194 -0.1963
 6004TIP3    H239504   0.273   2.782  33.931  1.4460 -1.6538  0.0173
 6005TIP3   OH239505   0.696   1.949  16.536  0.0727 -0.4669 -0.1987
 6005TIP3    H139506   0.636   1.923  16.466 -0.0277  0.3537 -0.4220
 6005TIP3    H239507   0.686   2.043  16.544  0.4377 -0.4807  0.6022
 6006TIP3   OH239508   2.160   0.703  14.979 -0.4408  0.1359 -0.3618
 6006TIP3    H139509   2.101   0.628  14.971 -0.7088  0.5240 -3.1241
 6006TIP3    H239510   2.103   0.778  14.991 -0.4343  0.2808 -1.1477
 6007TIP3   OH239511   3.016   1.275  36.632 -0.6494 -0.1650  0.0257
 6007TIP3    H139512   2.953   1.338  36.597  2.0558  1.7761 -1.8714
 6007TIP3    H239513   3.083   1.268  36.563  1.8161 -1.0703  2.3382
 6008TIP3   OH239514   3.392   4.346   3.366 -0.0349 -0.5616 -0.1622
 6008TIP3    H139515   3.471   4.336   3.420 -0.9220  0.5479  1.4466
 6008TIP3    H239516   3.397   4.436   3.333 -0.7066 -0.4257  0.0947
 6009TIP3   OH239517   2.448   2.982  13.350  0.2177 -0.5301  0.6480
 6009TIP3    H139518   2.456   3.008  13.258 -1.1174 -0.2609  0.5858
 6009TIP3    H239519   2.386   2.909  13.349 -1.9767  1.2284  1.5750
 6010TIP3   OH239520   3.016   1.123  31.648 -0.7405 -0.4169  0.2388
 6010TIP3    H139521   3.036   1.206  31.606 -1.1863 -0.8474 -0.8401
 6010TIP3    H239522   2.926   1.133  31.681 -0.5512 -0.2404  0.7162
 6011TIP3   OH239523   0.903   3.729  29.716  0.0437  0.0645  0.0720
 6011TIP3    H139524   0.820   3.684  29.700 -0.3037  0.5984  0.3199
 6011TIP3    H239525   0.932   3.695  29.801 -0.1467  0.2046  0.1938
 6012TIP3   OH239526   3.287   0.772   4.335 -0.2883 -0.0176  0.4941
 6012TIP3    H139527   3.351   0.800   4.400 -1.6728  2.3714  0.9286
 6012TIP3    H239528   3.267   0.682   4.358  0.9372  0.0508  1.9640
 6013TIP3   OH239529   2.332   0.846   3.675 -0.3212 -0.2628  0.2035
 6013TIP3    H139530   2.248   0.863   3.632 -0.1833 -0.8294 -0.2941
 6013TIP3    H239531   2.316   0.770   3.730 -0.6181  0.7198  1.5286
 6014TIP3   OH239532   4.161   2.326  26.513  0.5434  0.0049  0.3055
 6014TIP3    H139533   4.229   2.391  26.496  0.2481  0.1840 -0.2228
 6014TIP3    H239534   4.081   2.378  26.526  0.7032 -0.1307  2.0632
 6015TIP3   OH239535   3.900   0.860  36.005  0.2704 -0.1305 -0.1654
 6015TIP3    H139536   3.900   0.955  36.022  1.3078 -0.2239  0.4188
 6015TIP3    H239537   3.918   0.853  35.912 -0.6579  0.2555 -0.3924
 6016TIP3   OH239538   0.049   1.536  30.872  0.0756  0.1912  0.3569
 6016TIP3    H139539   0.009   1.623  30.871  0.4565  0.3686 -0.5435
 6016TIP3    H239540   0.051   1.512  30.965 -2.5308 -0.0337  0.4282
 6017TIP3   OH239541   0.433   2.298   3.181  0.2319  0.4369  0.2770
 6017TIP3    H139542   0.430   2.319   3.274 -1.8107  0.9391  0.1540
 6017TIP3    H239543   0.483   2.369   3.141  0.9782  0.3048  0.9517
 6018TIP3   OH239544   2.562   3.724   7.805 -0.8786  0.3006 -0.3513
 6018TIP3    H139545   2.586   3.640   7.845  0.4381  1.3960  1.3145
 6018TIP3    H239546   2.573   3.710   7.711  1.4172 -0.8349  0.0023
 6019TIP3   OH239547   1.641   3.497   8.204  0.2701  0.0430  0.1455
 6019TIP3    H139548   1.627   3.531   8.292  2.2262  0.0306  0.5110
 6019TIP3    H239549   1.644   3.402   8.215 -0.9566 -0.0487 -0.1955
 6020TIP3   OH239550   1.422   2.790  39.988 -0.1717  0.8785 -0.6061
 6020TIP3    H139551   1.491   2.779  40.053  1.3669 -0.4140 -2.3615
 6020TIP3    H239552   1.386   2.877  40.006 -0.2493  0.3454  2.3038
 6021TIP3   OH239553   1.944   1.572  11.225  0.4207 -0.0848 -0.2151
 6021TIP3    H139554   1.972   1.536  11.309 -0.5647  1.0142  0.6327
 6021TIP3    H239555   2.020   1.621  11.193  1.6893 -2.5942 -1.2715
 6022TIP3   OH239556   0.178   1.792  22.383  0.2833 -0.1294  0.3328
 6022TIP3    H139557   0.248   1.838  22.428 -0.7795  2.2568 -0.3142
 6022TIP3    H239558   0.221   1.749  22.309  1.0428  1.5337 -0.2255
 6023TIP3   OH239559   4.073   2.065  28.410 -0.1722 -0.9187  0.5576
 6023TIP3    H139560   4.003   2.128  28.426  0.8847  0.6964 -0.7116
 6023TIP3    H239561   4.150   2.104  28.451  0.4453 -1.5267  0.0082
 6024TIP3   OH239562   1.111   1.411  31.915 -0.4674  0.0200  0.2112
 6024TIP3    H139563   1.074   1.342  31.861 -0.0434  0.3968 -0.5762
 6024TIP3    H239564   1.117   1.487  31.857  1.3548  0.0219  0.3311
 6025TIP3   OH239565   4.319   2.515   7.984  0.3175 -0.1768 -0.2851
 6025TIP3    H139566   4.282   2.508   8.073  0.4285 -1.3041 -0.3173
 6025TIP3    H239567   4.412   2.533   7.998  0.0120  1.4845 -0.1990
 6026TIP3   OH239568   2.842   3.019   2.902 -0.0725  0.1733 -0.3304
 6026TIP3    H139569   2.934   3.033   2.880  0.2857  0.8857  1.4023
 6026TIP3    H239570   2.844   2.961   2.978 -1.0101  0.7404  0.1483
 6027TIP3   OH239571   4.278   1.300  27.262  0.1139  0.3434  0.1568
 6027TIP3    H139572   4.305   1.210  27.283  1.2061  0.3246 -1.1817
 6027TIP3    H239573   4.224   1.290  27.183 -0.5228  0.7982  0.5230
 6028TIP3   OH239574   2.760   1.530   9.761 -0.0852 -0.0591  0.0055
 6028TIP3    H139575   2.780   1.543   9.668 -1.7121  2.1938 -0.1080
 6028TIP3    H239576   2.736   1.617   9.792 -3.2912 -1.3786  1.6184
 6029TIP3   OH239577   3.154   1.159   8.499 -0.5043 -0.2326 -0.2908
 6029TIP3    H139578   3.167   1.097   8.427 -0.4429  0.1317 -0.5956
 6029TIP3    H239579   3.146   1.104   8.577  0.9367 -0.5715 -0.3590
 6030TIP3   OH239580   3.970   3.283  38.088  0.0441  0.1288 -0.1385
 6030TIP3    H139581   4.045   3.224  38.079 -0.0837 -0.5787  2.5718
 6030TIP3    H239582   3.895   3.230  38.064  0.1666 -0.0396 -0.1535
 6031TIP3   OH239583   1.325   1.318   7.564 -0.2413  0.5710  0.4526
 6031TIP3    H139584   1.264   1.289   7.632 -0.6497  1.7500  0.6140
 6031TIP3    H239585   1.364   1.398   7.600  2.0408 -0.6010  0.7175
 6032TIP3   OH239586   3.172   3.572  41.530  0.1641 -0.0549  0.1319
 6032TIP3    H139587   3.127   3.555  41.613  0.6799  0.9760  0.6389
 6032TIP3    H239588   3.221   3.492  41.513 -0.3628 -0.4765  0.5464
 6033TIP3   OH239589   1.116   3.479   3.794  0.9952 -0.1730  1.3364
 6033TIP3    H139590   1.087   3.388   3.804  1.5322 -0.2371  2.4448
 6033TIP3    H239591   1.135   3.508   3.883  2.0460  0.6161  0.8767
 6034TIP3   OH239592   0.103   4.127   8.553 -0.0292  0.0858  0.5160
 6034TIP3    H139593   0.080   4.063   8.619  1.9749 -0.8237  0.3918
 6034TIP3    H239594   0.033   4.120   8.488 -1.2995  0.0328  1.8319
 6035TIP3   OH239595   1.981   0.752  29.254  0.0439 -0.5269 -0.2904
 6035TIP3    H139596   2.069   0.722  29.232 -0.0528 -0.6010 -0.5786
 6035TIP3    H239597   1.964   0.823  29.192  1.2796  1.9181  1.9616
 6036TIP3   OH239598   3.878   0.492   1.956  1.0518  0.3841 -0.0882
 6036TIP3    H139599   3.899   0.559   1.891  2.0830  0.7564  0.6093
 6036TIP3    H239600   3.796   0.454   1.926  1.1085  1.0957 -1.1771
 6037TIP3   OH239601   2.867   1.493  34.608  0.6242  0.2009 -0.2126
 6037TIP3    H139602   2.792   1.536  34.649  1.7830  0.6024  1.5657
 6037TIP3    H239603   2.901   1.558  34.546 -1.2077 -0.4544 -2.0157
 6038TIP3   OH239604   1.784   2.547  10.810  0.1437 -0.7516 -0.7907
 6038TIP3    H139605   1.717   2.600  10.854  1.1702  0.2147 -0.3415
 6038TIP3    H239606   1.802   2.595  10.729  0.4940 -0.8601 -0.7776
 6039TIP3   OH239607   3.514   1.606   3.605  0.2246 -0.2133  0.6068
 6039TIP3    H139608   3.474   1.656   3.676 -2.0843  0.2114 -0.8680
 6039TIP3    H239609   3.445   1.545   3.577  0.8344  0.0415 -1.6102
 6040TIP3   OH239610   0.125   4.218  41.165 -0.1799 -0.2220 -0.2647
 6040TIP3    H139611   0.161   4.299  41.128 -0.4543 -1.1825 -2.8339
 6040TIP3    H239612   0.033   4.218  41.136 -0.1248 -1.5414 -0.4826
 6041TIP3   OH239613   2.203   3.630   4.237 -0.0677 -0.0591  0.3277
 6041TIP3    H139614   2.149   3.576   4.294  0.5032  0.4516  1.3808
 6041TIP3    H239615   2.243   3.694   4.296 -1.1072  1.8377 -0.9383
 6042TIP3   OH239616   0.554   3.009  14.660 -0.5482 -0.1111  0.1344
 6042TIP3    H139617   0.471   3.003  14.613 -0.6693  1.8956  0.0300
 6042TIP3    H239618   0.605   3.074  14.613  1.1261 -1.3065  0.1973
 6043TIP3   OH239619   1.892   1.810  41.648 -0.2625 -0.2364 -0.0314
 6043TIP3    H139620   1.907   1.904  41.660 -0.9511 -0.1906  0.4842
 6043TIP3    H239621   1.967   1.768  41.690  0.1333  0.0826 -0.4088
 6044TIP3   OH239622   0.230   1.304  30.542  0.5231 -0.1946 -0.1536
 6044TIP3    H139623   0.295   1.294  30.611  0.4017  1.9579  0.3362
 6044TIP3    H239624   0.147   1.317  30.588  0.4726  1.4601 -0.6390
 6045TIP3   OH239625   1.608   2.864   1.917 -0.3832  0.1016 -0.3023
 6045TIP3    H139626   1.559   2.825   1.989  0.5688 -1.4761 -0.4520
 6045TIP3    H239627   1.668   2.925   1.959  1.8475 -2.4967  0.6376
 6046TIP3   OH239628   1.602   0.012  11.528 -0.6135 -1.0421  0.4170
 6046TIP3    H139629   1.603  -0.079  11.500 -0.1325 -0.4706 -1.5891
 6046TIP3    H239630   1.513   0.042  11.510 -0.5337 -0.8896  0.2718
 6047TIP3   OH239631   2.664   2.326  30.092  1.0361  0.1798  0.3449
 6047TIP3    H139632   2.590   2.336  30.032  0.0399  0.6093  1.6026
 6047TIP3    H239633   2.741   2.330  30.035  0.2204  2.3277 -0.7457
 6048TIP3   OH239634   1.467   2.334  38.682 -0.0067 -0.0277 -0.1268
 6048TIP3    H139635   1.520   2.264  38.721 -0.6202 -0.5051 -0.1429
 6048TIP3    H239636   1.377   2.304  38.692 -0.2932  0.8762  0.0886
 6049TIP3   OH239637   4.388   1.653  35.696 -0.6255  0.4658 -0.7351
 6049TIP3    H139638   4.402   1.747  35.686 -0.8558  0.3887 -1.9774
 6049TIP3    H239639   4.470   1.619  35.731 -0.9641  1.2889  0.9512
 6050TIP3   OH239640   1.553   1.090   7.525  0.8579 -0.0264  0.3458
 6050TIP3    H139641   1.549   1.017   7.463 -0.5934  0.3278 -0.0081
 6050TIP3    H239642   1.461   1.113   7.542  1.2527  2.6599 -0.6949
 6051TIP3   OH239643   3.719   2.773  10.166 -0.2900  0.2549 -0.1113
 6051TIP3    H139644   3.746   2.774  10.258 -2.6028  1.8060  0.6469
 6051TIP3    H239645   3.750   2.856  10.131 -4.1265  2.4487  0.9822
 6052TIP3   OH239646   2.026   4.113   7.598  0.5310 -0.0978 -0.0148
 6052TIP3    H139647   2.025   4.023   7.567 -0.9678  0.7182 -2.5695
 6052TIP3    H239648   1.940   4.126   7.638  0.3783  0.4481 -0.5040
 6053TIP3   OH239649   1.457   0.986   7.833  0.3834  0.8168 -0.1264
 6053TIP3    H139650   1.540   0.968   7.789 -0.2337 -1.3215 -0.5514
 6053TIP3    H239651   1.391   0.970   7.766 -0.4074  1.8496  0.3934
 6054TIP3   OH239652   3.641   2.203   3.934  0.5163 -0.1215  1.0561
 6054TIP3    H139653   3.592   2.253   3.998  0.1307  0.3482  0.3992
 6054TIP3    H239654   3.660   2.265   3.864 -1.3486 -1.2467 -0.5276
 6055TIP3   OH239655   4.121   0.730  29.413  0.1785  0.7078 -0.4303
 6055TIP3    H139656   4.068   0.651  29.421 -0.7821  1.1913 -1.6850
 6055TIP3    H239657   4.134   0.741  29.319  0.3602  1.9876 -0.2790
 6056TIP3   OH239658   1.817   0.670   6.195  0.2294  1.0099  0.2924
 6056TIP3    H139659   1.774   0.752   6.221 -4.6203 -1.5517  1.5776
 6056TIP3    H239660   1.830   0.623   6.278  1.4949 -0.1621 -0.5333
 6057TIP3   OH239661   1.354   2.969  16.701 -0.1767  0.0893  0.3719
 6057TIP3    H139662   1.353   2.873  16.710 -0.0856  0.0709  0.1810
 6057TIP3    H239663   1.292   2.999  16.767  0.4626 -0.0527  1.0584
 6058TIP3   OH239664   0.813   3.684   7.422 -0.4189  0.0253 -0.1646
 6058TIP3    H139665   0.743   3.726   7.472 -0.0099  1.7600 -0.9835
 6058TIP3    H239666   0.883   3.749   7.418  0.2435 -0.7276 -1.5114
 6059TIP3   OH239667   2.236   0.791   4.672  0.2381 -0.4068 -0.3089
 6059TIP3    H139668   2.194   0.874   4.652 -0.4178 -0.2869  1.3660
 6059TIP3    H239669   2.207   0.732   4.602 -0.9492  0.2531 -0.4000
 6060TIP3   OH239670   2.283   0.940  36.677  0.4149  0.1006  0.5043
 6060TIP3    H139671   2.223   0.878  36.636 -1.5608 -0.2219  3.5239
 6060TIP3    H239672   2.300   0.902  36.764  1.0033  2.6097  1.5757
 6061TIP3   OH239673   4.131   3.054  10.103  0.3352  0.3311  0.8259
 6061TIP3    H139674   4.166   3.102  10.028  1.3522 -1.6781 -0.0527
 6061TIP3    H239675   4.198   3.063  10.171  0.3317  0.4894  0.8091
 6062TIP3   OH239676   4.034   2.722  12.623 -0.8053  0.3109 -0.4060
 6062TIP3    H139677   3.982   2.780  12.568 -1.6467 -0.3418 -0.3314
 6062TIP3    H239678   3.975   2.697  12.694 -0.4495 -0.5691 -0.4013
 6063TIP3   OH239679   2.220   2.574  29.325 -0.1512 -0.8483 -0.3502
 6063TIP3    H139680   2.145   2.614  29.281 -0.3466  0.1364  0.8052
 6063TIP3    H239681   2.261   2.647  29.371  2.8449 -0.8965 -2.6796
 6064TIP3   OH239682   0.854   0.925  10.976 -0.3064  0.2838 -0.1641
 6064TIP3    H139683   0.791   0.981  11.020 -1.4287  0.0584 -1.4121
 6064TIP3    H239684   0.846   0.840  11.020 -0.5585  0.3750 -0.0316
 6065TIP3   OH239685   0.010   1.492  28.203 -0.2014  0.2243 -0.0497
 6065TIP3    H139686  -0.085   1.503  28.198 -0.4954 -1.0710  1.5935
 6065TIP3    H239687   0.022   1.397  28.209  1.3459  0.2498 -2.0082
 6066TIP3   OH239688   2.328   3.851  27.161 -0.0040 -0.6061  0.3482
 6066TIP3    H139689   2.393   3.884  27.099 -1.3193 -0.4751 -1.0170
 6066TIP3    H239690   2.373   3.852  27.246  1.3663  0.6014 -0.3471
 6067TIP3   OH239691   2.767   3.452  11.706 -0.7407  0.2781 -0.0545
 6067TIP3    H139692   2.693   3.497  11.745 -0.8109  1.1423 -1.1214
 6067TIP3    H239693   2.769   3.367  11.749 -0.6150  1.2723  2.0051
 6068TIP3   OH239694   3.436   2.119  33.975  0.2899 -0.5949  0.2703
 6068TIP3    H139695   3.418   2.190  34.037  0.4066 -1.2975  1.1377
 6068TIP3    H239696   3.458   2.044  34.031  0.5793 -1.2017 -0.6377
 6069TIP3   OH239697   1.096   1.063   8.192 -0.4658  0.2047  0.2420
 6069TIP3    H139698   1.017   1.079   8.140  0.4283 -0.6504 -1.4603
 6069TIP3    H239699   1.168   1.082   8.132  0.6120 -1.2615  1.0149
 6070TIP3   OH239700   0.416   1.786  37.526 -0.1700 -0.3824  0.4357
 6070TIP3    H139701   0.361   1.719  37.566 -0.9884 -0.1207 -0.2496
 6070TIP3    H239702   0.489   1.796  37.588  0.3172 -2.3424  0.2631
 6071TIP3   OH239703   0.825   3.771  26.780  0.2334 -1.0114 -0.0076
 6071TIP3    H139704   0.808   3.830  26.853  1.0288 -1.3185  0.4394
 6071TIP3    H239705   0.739   3.753  26.743  0.0584  1.4800 -0.9932
 6072TIP3   OH239706   3.619   3.529  11.419 -0.0211 -0.3069  0.0098
 6072TIP3    H139707   3.659   3.444  11.405  2.0533  0.5932  0.1966
 6072TIP3    H239708   3.573   3.520  11.503 -2.1947 -2.0130 -1.2670
 6073TIP3   OH239709   0.117   3.776  13.273  0.4538  0.7203 -0.0692
 6073TIP3    H139710   0.092   3.812  13.358  1.2508  0.4216  0.3092
 6073TIP3    H239711   0.213   3.773  13.276  0.6814  3.0775 -1.9653
 6074TIP3   OH239712   0.620   3.637   0.801 -0.2018 -0.3282 -0.1387
 6074TIP3    H139713   0.587   3.570   0.862 -1.6727 -0.9726 -1.5586
 6074TIP3    H239714   0.578   3.718   0.831  0.1895 -0.3661  0.5311
 6075TIP3   OH239715   3.284   3.089  26.884  0.1320  0.0322 -0.1295
 6075TIP3    H139716   3.199   3.121  26.913 -1.7420 -2.2682 -2.4751
 6075TIP3    H239717   3.299   3.133  26.800  0.1993 -1.0209 -0.6983
 6076TIP3   OH239718   1.583   3.855  37.472  0.4249 -0.2865  0.0227
 6076TIP3    H139719   1.511   3.846  37.409 -0.7615 -1.3914  1.4505
 6076TIP3    H239720   1.649   3.793  37.442  0.1174 -0.3894 -0.4500
 6077TIP3   OH239721   1.736   1.078  13.619  0.0085 -0.2168 -0.1037
 6077TIP3    H139722   1.690   1.017  13.677  0.0569  0.5055  0.7272
 6077TIP3    H239723   1.679   1.087  13.543 -1.3011  0.7125  0.9313
 6078TIP3   OH239724   3.575   3.947  35.269 -0.2943  0.0911  0.0057
 6078TIP3    H139725   3.652   3.965  35.215 -0.5422  0.1496 -0.3315
 6078TIP3    H239726   3.501   3.956  35.209 -0.6699  1.3637  0.6306
 6079TIP3   OH239727   0.542   1.002  39.958 -0.1381 -0.0324  0.2010
 6079TIP3    H139728   0.530   1.097  39.952  1.2312  0.4936  3.7296
 6079TIP3    H239729   0.632   0.987  39.931  0.4788  0.0946  2.0465
 6080TIP3   OH239730   1.122   3.428  35.028  0.4632  0.5521  0.6693
 6080TIP3    H139731   1.206   3.385  35.046  0.8548  0.3484 -1.3740
 6080TIP3    H239732   1.068   3.408  35.104  1.4948 -1.3195  0.9782
 6081TIP3   OH239733   4.070   2.569   4.349 -0.4692 -0.1460  0.0835
 6081TIP3    H139734   4.143   2.507   4.350  0.9664  1.4172  2.1691
 6081TIP3    H239735   4.096   2.636   4.286 -0.6386 -0.1534  0.0042
 6082TIP3   OH239736   1.969   2.315  38.773 -0.4238 -0.2068  0.0543
 6082TIP3    H139737   1.885   2.355  38.753 -1.0957 -0.5338  2.0618
 6082TIP3    H239738   2.024   2.336  38.697 -2.2545  0.1025 -1.2511
 6083TIP3   OH239739   0.536   1.959  40.945  0.4725 -0.3754  0.4836
 6083TIP3    H139740   0.599   1.904  40.991  1.4004 -1.2200 -1.6795
 6083TIP3    H239741   0.587   2.005  40.879 -0.7652  0.9907  0.4191
 6084TIP3   OH239742   0.804   3.602  28.171 -0.2770 -0.1192  0.0028
 6084TIP3    H139743   0.857   3.600  28.091 -0.5184  0.8043 -0.1856
 6084TIP3    H239744   0.837   3.528  28.223  0.2954 -0.3562 -0.6791
 6085TIP3   OH239745   1.695   0.748  37.425  0.1446  0.3110  0.1736
 6085TIP3    H139746   1.604   0.720  37.434 -0.5683  2.3911 -0.0497
 6085TIP3    H239747   1.701   0.828  37.478  1.1081  1.6778 -1.8704
 6086TIP3   OH239748   0.248   3.387   1.591  0.1215 -0.3978 -0.4531
 6086TIP3    H139749   0.207   3.334   1.524 -0.8074 -0.4329  0.1255
 6086TIP3    H239750   0.260   3.327   1.665 -0.4596  0.0600  0.0192
 6087TIP3   OH239751   3.398   1.595   2.372 -0.0236  0.7295  0.3182
 6087TIP3    H139752   3.386   1.666   2.435 -0.5868  1.0571 -0.1438
 6087TIP3    H239753   3.435   1.523   2.423  0.0460  1.1715  0.9052
 6088TIP3   OH239754   2.767   0.678  31.225  0.6964 -0.1496  0.0933
 6088TIP3    H139755   2.754   0.614  31.296  0.8558  0.8095  1.0102
 6088TIP3    H239756   2.700   0.655  31.161 -0.0827 -0.4601  0.9807
 6089TIP3   OH239757   2.142   0.688  35.472  0.5795  0.3348 -0.2349
 6089TIP3    H139758   2.149   0.595  35.452  0.9782  0.9245 -3.3632
 6089TIP3    H239759   2.108   0.691  35.561 -1.0471 -2.8003 -0.6150
 6090TIP3   OH239760   2.103   4.106  39.070 -0.1133 -0.0948 -0.2558
 6090TIP3    H139761   2.145   4.181  39.111 -2.2231  0.7743  0.4546
 6090TIP3    H239762   2.107   4.125  38.976  3.4561 -1.4091 -0.5303
 6091TIP3   OH239763   0.418   3.727   6.611 -0.5840 -0.4345  0.0466
 6091TIP3    H139764   0.497   3.743   6.662  2.0462 -0.3172 -3.6579
 6091TIP3    H239765   0.391   3.638   6.634  1.6432 -1.0921  0.2553
 6092TIP3   OH239766   4.263   2.056  35.128 -0.0354 -0.1830  0.1920
 6092TIP3    H139767   4.179   2.079  35.088  0.7830  0.7917 -1.0369
 6092TIP3    H239768   4.324   2.051  35.055  1.0658 -0.5593  1.1029
 6093TIP3   OH239769   4.256   2.326   5.531  0.1429 -1.0806 -0.2287
 6093TIP3    H139770   4.231   2.235   5.515  0.4257 -0.9882 -1.3138
 6093TIP3    H239771   4.236   2.341   5.623 -0.6657 -1.9927 -0.2391
 6094TIP3   OH239772   2.710   0.219  34.065 -0.0424  0.8318 -0.0041
 6094TIP3    H139773   2.669   0.160  34.128 -0.0512  0.1118 -0.6650
 6094TIP3    H239774   2.717   0.167  33.984  1.2997  1.2426 -0.1833
 6095TIP3   OH239775   2.845   0.535  35.635  0.6028  0.8075 -0.1075
 6095TIP3    H139776   2.766   0.586  35.648  0.8757  1.3255 -0.4475
 6095TIP3    H239777   2.885   0.572  35.556  1.2240  0.6108  0.1089
 6096TIP3   OH239778   0.771   1.348  28.386  0.5038  0.1554  0.4981
 6096TIP3    H139779   0.763   1.253  28.374  0.1061 -0.0142  1.8392
 6096TIP3    H239780   0.706   1.368  28.454  0.6997  1.3685  0.3467
 6097TIP3   OH239781   1.026   2.372   4.193  0.6882 -0.3006 -0.4238
 6097TIP3    H139782   1.000   2.280   4.201  0.5619 -0.3932 -1.7837
 6097TIP3    H239783   0.977   2.416   4.262  1.0230 -1.3009  0.4832
 6098TIP3   OH239784   0.946   0.219  26.932 -0.4658 -0.4194 -0.7826
 6098TIP3    H139785   0.974   0.193  27.020 -0.4712 -0.4876 -0.8018
 6098TIP3    H239786   0.958   0.140  26.879  0.5215 -0.0840 -1.0721
 6099TIP3   OH239787   3.220   3.729  38.585 -0.0523 -0.2291  0.0676
 6099TIP3    H139788   3.203   3.823  38.594 -1.8700 -0.7047  2.6852
 6099TIP3    H239789   3.134   3.689  38.579  0.6017 -1.8691  0.9207
 6100TIP3   OH239790   3.989   2.194  40.778 -0.9532 -0.1014 -0.5080
 6100TIP3    H139791   4.031   2.266  40.826 -0.3067 -0.0055 -1.1948
 6100TIP3    H239792   3.910   2.176  40.827  0.3115 -0.8847  1.3494
 6101TIP3   OH239793   1.997   1.077  27.911 -0.0967 -0.0182 -0.2689
 6101TIP3    H139794   2.022   1.016  27.980 -1.5098  1.4604  1.6672
 6101TIP3    H239795   2.080   1.114  27.881  0.5507 -0.7490  0.5703
 6102TIP3   OH239796   1.579   2.081  36.116  0.3820  0.1330  0.0466
 6102TIP3    H139797   1.644   2.044  36.058  1.7698  1.1312  0.9079
 6102TIP3    H239798   1.527   2.139  36.060  0.0368 -0.8559 -0.6917
 6103TIP3   OH239799   1.137   2.985  37.395 -0.5600  0.2052 -0.1944
 6103TIP3    H139800   1.088   2.946  37.323  1.7026 -0.6453 -1.3998
 6103TIP3    H239801   1.071   3.030  37.449 -2.8568 -2.4389 -0.5991
 6104TIP3   OH239802   1.202   0.366  12.377  0.4310 -0.6375 -0.2717
 6104TIP3    H139803   1.154   0.295  12.418  0.2862  0.0566  0.7827
 6104TIP3    H239804   1.276   0.382  12.436  0.5495 -0.0167 -0.5842
 6105TIP3   OH239805   3.025   2.494  40.256 -0.2733 -0.3045  0.0320
 6105TIP3    H139806   2.962   2.566  40.263  0.4977  0.3483  0.4940
 6105TIP3    H239807   2.972   2.415  40.270 -0.8733  0.2705  1.2078
 6106TIP3   OH239808   0.258   3.470   2.720 -0.1519  0.5084 -0.2176
 6106TIP3    H139809   0.197   3.543   2.713 -1.4799 -0.5286  0.2119
 6106TIP3    H239810   0.315   3.493   2.793 -1.3053  0.6092  0.6750
 6107TIP3   OH239811   0.336   1.849  13.303 -0.1347  0.0184 -0.4934
 6107TIP3    H139812   0.350   1.796  13.381 -1.5093 -0.3245 -0.4426
 6107TIP3    H239813   0.306   1.786  13.236 -0.8361  0.5765 -0.7169
 6108TIP3   OH239814   1.128   1.419  39.274  0.4974 -0.0672 -0.1204
 6108TIP3    H139815   1.064   1.404  39.344  1.0371 -0.0427  0.3907
 6108TIP3    H239816   1.108   1.352  39.208 -0.7469  0.6355 -0.4764
 6109TIP3   OH239817   2.662   0.314  31.263 -0.1369 -0.1015 -0.2734
 6109TIP3    H139818   2.670   0.367  31.342  1.0224  2.2085 -1.8355
 6109TIP3    H239819   2.600   0.362  31.208  0.2890 -0.7949 -1.3979
 6110TIP3   OH239820   1.641   0.690  36.409  0.5685  0.6608 -0.2979
 6110TIP3    H139821   1.648   0.711  36.502 -2.3412 -3.8801  1.2691
 6110TIP3    H239822   1.706   0.622  36.394  0.0457  0.3364 -1.1759
 6111TIP3   OH239823   2.974   3.513   7.184 -0.0662 -0.2602 -0.3048
 6111TIP3    H139824   3.016   3.467   7.111 -0.8586 -1.0211 -0.2991
 6111TIP3    H239825   2.962   3.445   7.251  0.5323  0.4001  0.4852
 6112TIP3   OH239826   1.326   3.403   4.061 -0.0062 -0.0955 -0.0047
 6112TIP3    H139827   1.402   3.441   4.105  0.4352  0.0954 -0.8966
 6112TIP3    H239828   1.362   3.364   3.981 -0.8719  0.1809 -0.5501
 6113TIP3   OH239829   3.920   4.123   7.402 -0.4126 -0.4000  0.0246
 6113TIP3    H139830   3.830   4.099   7.382 -0.4402 -0.7252  0.5303
 6113TIP3    H239831   3.916   4.161   7.489  0.4064 -3.5368  1.5540
 6114TIP3   OH239832   4.078   2.630  33.219  0.1219  0.0475 -0.0692
 6114TIP3    H139833   4.074   2.566  33.148  1.6867 -1.3351  1.0244
 6114TIP3    H239834   4.168   2.662  33.218  0.1168  0.1539  1.1391
 6115TIP3   OH239835   3.214   2.829   0.628 -0.2871 -0.4258  0.1613
 6115TIP3    H139836   3.288   2.863   0.677 -0.8127  0.7555  0.1701
 6115TIP3    H239837   3.172   2.766   0.687  1.3420 -1.9800 -0.2677
 6116TIP3   OH239838   0.826   2.032   6.795 -0.2875  0.2188 -0.3675
 6116TIP3    H139839   0.879   1.965   6.838 -2.8559 -0.7833  1.4944
 6116TIP3    H239840   0.770   1.983   6.735 -2.0440  0.6214  0.8525
 6117TIP3   OH239841   1.642   3.923  10.988 -0.1877  0.4181 -0.4185
 6117TIP3    H139842   1.717   3.952  11.039 -0.4488  1.5936 -0.6817
 6117TIP3    H239843   1.577   3.897  11.054 -0.7452  2.4773 -0.0902
 6118TIP3   OH239844   0.564   4.055   8.256  0.0923 -0.3313  0.1982
 6118TIP3    H139845   0.568   4.137   8.206  0.8262 -0.3231  0.2633
 6118TIP3    H239846   0.597   4.079   8.343  1.4107 -0.9315 -0.1094
 6119TIP3   OH239847   3.881   3.680  26.125  0.6174  0.0640  0.2789
 6119TIP3    H139848   3.829   3.604  26.099  1.7451 -0.1366 -1.5990
 6119TIP3    H239849   3.864   3.745  26.057  2.7100  0.0174 -0.3542
 6120TIP3   OH239850   4.177   0.384  34.221  0.0789 -0.2664 -1.1995
 6120TIP3    H139851   4.144   0.468  34.190  0.9386  0.2971 -0.6336
 6120TIP3    H239852   4.114   0.355  34.286  2.0551  2.2536  2.1364
 6121TIP3   OH239853   0.143   4.234  11.407  0.3001 -0.0223  0.0430
 6121TIP3    H139854   0.225   4.187  11.421  0.5442  0.3110 -0.2588
 6121TIP3    H239855   0.127   4.226  11.313  0.1628  0.2058  0.0470
 6122TIP3   OH239856   3.236   2.901  34.458  0.3541  0.2713  0.0007
 6122TIP3    H139857   3.154   2.885  34.411  0.8444 -1.1857 -0.4125
 6122TIP3    H239858   3.281   2.817  34.457  2.1058  1.1670 -0.2493
 6123TIP3   OH239859   3.601   3.594   7.788  0.0150 -0.4866  0.6842
 6123TIP3    H139860   3.650   3.675   7.772  0.9365 -1.1644 -0.0298
 6123TIP3    H239861   3.517   3.608   7.744  0.1028  0.1294  0.6960
 6124TIP3   OH239862   3.788   0.924  33.654 -0.4083  0.2486 -0.1231
 6124TIP3    H139863   3.693   0.929  33.658 -0.3420  1.0628  0.6220
 6124TIP3    H239864   3.806   0.886  33.568 -1.4130 -0.4745 -0.0300
 6125TIP3   OH239865   3.502   2.690  12.321  0.2528 -0.0416 -0.2621
 6125TIP3    H139866   3.553   2.734  12.253  0.2893  0.9685  0.4032
 6125TIP3    H239867   3.542   2.603  12.328 -0.3917 -0.5329 -2.2175
 6126TIP3   OH239868   0.351   1.131  38.237 -0.3688 -0.0221 -0.1403
 6126TIP3    H139869   0.395   1.198  38.185 -1.4626 -0.2047 -1.3520
 6126TIP3    H239870   0.419   1.097  38.295  1.3943 -0.9718 -2.6070
 6127TIP3   OH239871   2.284   1.209   0.483 -0.5986  0.1049  0.4142
 6127TIP3    H139872   2.243   1.129   0.517 -3.0158  0.8283 -0.6321
 6127TIP3    H239873   2.286   1.197   0.388  1.8439  0.0734  0.3922
 6128TIP3   OH239874   2.277   3.558  18.027 -0.2850 -0.0977  0.2462
 6128TIP3    H139875   2.221   3.630  18.054 -0.9789 -0.9577  1.1346
 6128TIP3    H239876   2.258   3.547  17.934 -2.2656 -0.9189  0.6927
 6129TIP3   OH239877   1.860   1.262  33.605 -0.3569  0.5783  0.1946
 6129TIP3    H139878   1.765   1.274  33.600 -0.3014  1.1484  0.4896
 6129TIP3    H239879   1.872   1.167  33.604 -0.8953  0.5149 -0.4602
 6130TIP3   OH239880   1.692   3.732  12.808  0.3038  0.1692  0.0612
 6130TIP3    H139881   1.629   3.662  12.826  0.0633 -0.0669 -1.6028
 6130TIP3    H239882   1.760   3.720  12.875 -0.1776 -1.0922  0.3552
 6131TIP3   OH239883   0.113   0.421  24.457 -0.5127 -0.1303 -0.0997
 6131TIP3    H139884   0.204   0.418  24.428 -0.8258  1.6265 -1.4563
 6131TIP3    H239885   0.118   0.425  24.552  0.8220 -0.3062 -0.1431
 6132TIP3   OH239886   3.710   1.609  29.481 -0.6815 -0.4817  0.6991
 6132TIP3    H139887   3.790   1.567  29.448 -2.5572 -2.6039 -1.4823
 6132TIP3    H239888   3.639   1.554  29.450 -3.0014 -0.0128  4.5089
 6133TIP3   OH239889   1.394   3.187  35.537 -0.5608  0.3754 -0.5336
 6133TIP3    H139890   1.392   3.108  35.591 -1.6782 -0.3583 -1.5870
 6133TIP3    H239891   1.338   3.249  35.583  1.0826  0.9368  0.7983
 6134TIP3   OH239892   0.377   0.174  28.430 -0.2906  0.6067 -0.1367
 6134TIP3    H139893   0.423   0.245  28.386 -1.7827  1.8601  0.2630
 6134TIP3    H239894   0.327   0.131  28.361 -1.5198  1.6857  0.0490
 6135TIP3   OH239895   0.837   3.898  15.624  0.1849 -0.2529 -0.2918
 6135TIP3    H139896   0.922   3.905  15.668 -0.3441  2.0337  0.5115
 6135TIP3    H239897   0.787   3.836  15.678  0.5124  0.3199  0.6977
 6136TIP3   OH239898   3.744   1.012  12.434 -0.4919  0.5190  0.4968
 6136TIP3    H139899   3.716   0.927  12.401  0.2591  0.2317  0.5694
 6136TIP3    H239900   3.709   1.075  12.371 -0.4924  0.1044  0.0763
 6137TIP3   OH239901   1.621   2.234   6.268 -0.2385 -0.1504 -0.0423
 6137TIP3    H139902   1.634   2.140   6.255  0.2322 -0.1662  0.4932
 6137TIP3    H239903   1.526   2.245   6.269 -0.2966 -0.4272 -1.3804
 6138TIP3   OH239904   0.842   0.044  38.872 -0.2800  0.4737 -0.3811
 6138TIP3    H139905   0.883   0.128  38.893 -0.3665  0.4931 -0.2888
 6138TIP3    H239906   0.764   0.067  38.822 -0.4979  0.4710 -0.0501
 6139TIP3   OH239907   0.975   0.558  31.606 -0.6805 -0.2142 -1.0341
 6139TIP3    H139908   1.044   0.577  31.670 -1.1016 -1.3220 -0.2264
 6139TIP3    H239909   0.894   0.584  31.650 -1.1998 -2.9365 -0.1985
 6140TIP3   OH239910   1.057   0.180  13.788  0.1781  1.0406  0.1939
 6140TIP3    H139911   0.981   0.170  13.730  0.2212  1.7794 -0.0006
 6140TIP3    H239912   1.050   0.107  13.849 -0.4073  0.8038 -0.1470
 6141TIP3   OH239913   1.388   1.530  35.788 -0.2774  0.1938  0.8622
 6141TIP3    H139914   1.472   1.488  35.768 -1.2100 -0.8007 -1.3059
 6141TIP3    H239915   1.389   1.542  35.883  2.7454  1.1891  0.8005
 6142TIP3   OH239916   0.217   0.094  13.134  0.8721 -0.0096 -0.1883
 6142TIP3    H139917   0.247   0.184  13.119 -2.0608  1.3838  1.4857
 6142TIP3    H239918   0.224   0.082  13.228  1.3776 -1.6737 -0.4010
 6143TIP3   OH239919   4.362   2.852   4.646 -0.8029 -0.0814  0.5132
 6143TIP3    H139920   4.424   2.814   4.708  0.2149 -1.2153 -1.0976
 6143TIP3    H239921   4.346   2.940   4.678  1.6795  0.2611  0.9973
 6144TIP3   OH239922   3.063   3.192  32.132  0.4703  0.2319  0.3730
 6144TIP3    H139923   3.025   3.148  32.208  0.7570  0.5479  0.7049
 6144TIP3    H239924   2.992   3.246  32.097 -0.1476 -1.1296 -0.5535
 6145TIP3   OH239925   0.280   1.612   6.897  0.3325  0.1073  0.2538
 6145TIP3    H139926   0.215   1.556   6.855  1.9467 -0.6883 -1.3206
 6145TIP3    H239927   0.286   1.579   6.987 -1.1008 -0.0604  0.3126
 6146TIP3   OH239928   1.304   3.478  15.210 -0.0002  0.1755 -0.1713
 6146TIP3    H139929   1.353   3.416  15.263  0.1378  1.3608  1.1448
 6146TIP3    H239930   1.343   3.471  15.123 -1.9075 -3.7039 -0.9503
 6147TIP3   OH239931   1.265   3.599  13.124 -0.3536 -1.0591 -0.5762
 6147TIP3    H139932   1.301   3.687  13.110 -1.8175 -0.3949 -0.3653
 6147TIP3    H239933   1.340   3.546  13.150  0.5548  0.1369 -0.6792
 6148TIP3   OH239934   1.041   1.148  26.726  0.2157 -0.1457 -0.6054
 6148TIP3    H139935   0.995   1.180  26.648 -1.0867 -2.0121 -0.6686
 6148TIP3    H239936   1.054   1.055  26.709  1.0065 -0.3483  0.9171
 6149TIP3   OH239937   1.077   0.724  10.500 -0.0550  0.3339 -0.7071
 6149TIP3    H139938   1.043   0.787  10.563 -0.6344  0.8595 -1.5314
 6149TIP3    H239939   1.167   0.707  10.529 -0.6328 -0.2613  0.8778
 6150TIP3   OH239940   0.258   0.983   5.747 -0.1561 -0.2612 -0.7558
 6150TIP3    H139941   0.176   0.961   5.704 -1.5355  1.7723  0.6619
 6150TIP3    H239942   0.234   1.047   5.814  2.3013 -1.0280  1.0173
 6151TIP3   OH239943   0.439   0.189   8.629  0.2605  0.0594 -0.5558
 6151TIP3    H139944   0.460   0.100   8.602 -1.3867 -0.2397 -0.8923
 6151TIP3    H239945   0.439   0.185   8.725  4.9594  0.8668 -0.2701
 6152TIP3   OH239946   0.147   2.964   8.109 -0.2364 -0.3785 -0.1313
 6152TIP3    H139947   0.169   3.054   8.135 -0.6978  0.3698 -2.1013
 6152TIP3    H239948   0.215   2.940   8.046 -0.7046 -0.9999 -0.4116
 6153TIP3   OH239949   0.614   3.586  35.459  0.5632 -0.2531 -0.2088
 6153TIP3    H139950   0.648   3.622  35.377 -2.0433  0.8696 -0.9080
 6153TIP3    H239951   0.564   3.508  35.433 -1.4932  0.9078  0.0151
 6154TIP3   OH239952   2.396   3.342  40.743  0.8082  0.3152  0.4700
 6154TIP3    H139953   2.490   3.361  40.739  0.8210  0.1420 -0.4343
 6154TIP3    H239954   2.375   3.341  40.836  1.8341 -0.2775  0.7064
 6155TIP3   OH239955   2.119   3.938   3.642 -0.0506 -0.0709 -0.0944
 6155TIP3    H139956   2.180   4.010   3.626  0.8725 -0.7505  0.2997
 6155TIP3    H239957   2.166   3.860   3.615  0.1786 -0.8734  2.3639
 6156TIP3   OH239958   3.216   3.148  32.479 -0.1019 -0.1967  0.2926
 6156TIP3    H139959   3.244   3.094  32.553  2.0300  1.3262  0.7036
 6156TIP3    H239960   3.121   3.133  32.473  0.2599 -3.4559  0.7070
 6157TIP3   OH239961   1.955   2.098   5.640 -0.1911  0.3749  0.4941
 6157TIP3    H139962   1.897   2.080   5.566 -1.1689  0.6937  1.1572
 6157TIP3    H239963   1.896   2.116   5.713  0.7423 -0.8335  1.5986
 6158TIP3   OH239964   1.908   1.124   1.173  0.2644 -1.1029  0.3886
 6158TIP3    H139965   1.833   1.068   1.196 -1.3406 -0.0809 -1.9684
 6158TIP3    H239966   1.937   1.090   1.089  0.8453  0.0620  0.1062
 6159TIP3   OH239967   1.659   1.924  27.777 -0.2797 -0.6811 -0.1351
 6159TIP3    H139968   1.754   1.927  27.770 -0.0475 -1.6735  1.8011
 6159TIP3    H239969   1.630   2.013  27.757  1.2375  0.1321  1.0448
 6160TIP3   OH239970   1.129   3.560  36.815 -0.2701 -0.0425 -0.3347
 6160TIP3    H139971   1.096   3.476  36.847 -2.2811  1.0603  0.7002
 6160TIP3    H239972   1.215   3.570  36.857 -0.7071 -0.8665  0.8128
 6161TIP3   OH239973   1.731   0.204  32.744 -0.1834 -0.6379  0.2592
 6161TIP3    H139974   1.717   0.266  32.672 -1.6866  0.2242  1.2539
 6161TIP3    H239975   1.690   0.123  32.713 -0.2332 -0.4711 -0.1191
 6162TIP3   OH239976   0.425   3.529   2.942 -0.5239  0.7305  0.3628
 6162TIP3    H139977   0.440   3.618   2.976 -0.0592  1.5519 -1.7906
 6162TIP3    H239978   0.512   3.498   2.919 -0.9867  1.5087 -2.9066
 6163TIP3   OH239979   1.287   3.048   5.342 -0.5174  0.2210  0.1308
 6163TIP3    H139980   1.364   2.992   5.351 -1.1331 -1.0139 -1.6689
 6163TIP3    H239981   1.304   3.121   5.402  2.8372  0.8775 -1.3668
 6164TIP3   OH239982   3.806   1.415  37.646  0.3294  0.4380 -0.4284
 6164TIP3    H139983   3.735   1.353  37.662  0.8056 -0.3366 -1.2241
 6164TIP3    H239984   3.863   1.406  37.723  0.6053 -0.4122 -0.7283
 6165TIP3   OH239985   2.194   3.145   9.746  0.0546 -0.0150 -0.0661
 6165TIP3    H139986   2.244   3.118   9.823 -1.3925  0.7676  1.2101
 6165TIP3    H239987   2.103   3.137   9.773 -0.4984  0.3272 -1.7022
 6166TIP3   OH239988   2.728   4.136  28.929 -0.0766 -0.0873  0.1231
 6166TIP3    H139989   2.653   4.113  28.984 -1.3761  1.2486 -0.9743
 6166TIP3    H239990   2.733   4.065  28.865 -0.3489 -0.2417  0.2680
 6167TIP3   OH239991   1.812   2.239  16.105  0.3340 -0.4597 -0.1635
 6167TIP3    H139992   1.830   2.210  16.015 -0.2436 -0.2164 -0.3615
 6167TIP3    H239993   1.846   2.169  16.160 -0.7514 -1.3774 -0.6270
 6168TIP3   OH239994   1.325   3.498  11.526 -0.4227  0.3939  0.1290
 6168TIP3    H139995   1.252   3.446  11.559 -0.3661 -0.1654 -0.6176
 6168TIP3    H239996   1.398   3.479  11.586 -0.7582  0.6332  0.6256
 6169TIP3   OH239997   1.083   0.019  41.608 -1.0498 -0.7751 -0.0786
 6169TIP3    H139998   1.014  -0.039  41.577  0.1404 -2.3848  0.1685
 6169TIP3    H239999   1.164  -0.026  41.586  0.1002  2.0544 -2.4438
 6170TIP3   OH240000   1.122   3.399  31.857 -0.2227 -0.0229 -0.5082
 6170TIP3    H140001   1.080   3.484  31.847  2.7879  1.6660  0.1292
 6170TIP3    H240002   1.098   3.370  31.945 -0.1681  0.8439 -0.2008
 6171TIP3   OH240003   0.622   4.385  31.902 -0.1196  0.4301 -0.1171
 6171TIP3    H140004   0.651   4.308  31.854  2.1549  0.4883  1.0420
 6171TIP3    H240005   0.616   4.356  31.993 -1.5450  1.0452  0.0135
 6172TIP3   OH240006   3.036   1.185   2.867  0.2034 -0.0301  0.2244
 6172TIP3    H140007   2.999   1.267   2.900 -1.2846 -0.4425 -0.3256
 6172TIP3    H240008   2.979   1.117   2.903  0.8424 -0.7545 -0.1120
 6173TIP3   OH240009   3.302   3.655  31.182 -0.2897  1.0018 -0.1180
 6173TIP3    H140010   3.309   3.747  31.208 -0.2507  0.7586  0.7379
 6173TIP3    H240011   3.285   3.607  31.263 -0.0879  0.2230 -0.5218
 6174TIP3   OH240012   3.392   0.594  29.109  0.2906  0.6623 -0.4319
 6174TIP3    H140013   3.373   0.502  29.127  0.0823  0.6120 -0.8831
 6174TIP3    H240014   3.375   0.639  29.192  0.7806  0.2408 -0.0971
 6175TIP3   OH240015   1.805   3.531  38.852 -0.3669 -0.7067 -0.0210
 6175TIP3    H140016   1.898   3.551  38.855 -1.1377  3.7976  0.0460
 6175TIP3    H240017   1.779   3.550  38.762 -1.3177 -1.4613  0.0734
 6176TIP3   OH240018   2.161   0.665   4.432  0.1902 -0.5183 -0.4282
 6176TIP3    H140019   2.106   0.587   4.424 -2.0301  0.8086  0.9129
 6176TIP3    H240020   2.160   0.704   4.345 -2.0727  0.0949 -0.1868
 6177TIP3   OH240021   1.366   2.846   7.338 -0.1785  0.2283  0.3109
 6177TIP3    H140022   1.279   2.878   7.362 -0.3277  0.1949 -0.1797
 6177TIP3    H240023   1.355   2.751   7.332 -0.1179  0.2284  0.2016
 6178TIP3   OH240024   3.861   2.354   1.884 -0.3905  0.0428 -0.2824
 6178TIP3    H140025   3.900   2.442   1.878  0.5905 -0.3827 -0.3586
 6178TIP3    H240026   3.798   2.351   1.811  0.0977  0.4319 -0.7294
 6179TIP3   OH240027   4.086   2.259   3.939  0.6045 -0.1971 -0.1533
 6179TIP3    H140028   4.061   2.308   3.861  3.3767  0.2699 -0.8275
 6179TIP3    H240029   4.011   2.201   3.955 -1.1223  1.4809 -1.5987
 6180TIP3   OH240030   1.266   3.842  29.147  0.2923 -0.5036 -0.1401
 6180TIP3    H140031   1.296   3.753  29.131  0.3070 -0.6388  0.6319
 6180TIP3    H240032   1.321   3.875  29.217  0.4921  0.2293 -0.6274
 6181TIP3   OH240033   3.662   3.279  30.746  0.0684  0.1875 -0.3487
 6181TIP3    H140034   3.618   3.308  30.825  0.1308  0.0005 -0.2443
 6181TIP3    H240035   3.743   3.239  30.777 -0.2540 -0.5662 -0.4497
 6182TIP3   OH240036   2.348   3.778   0.411  1.1333 -0.3733 -0.5096
 6182TIP3    H140037   2.435   3.793   0.448  0.2888 -1.0246  1.9221
 6182TIP3    H240038   2.310   3.709   0.465 -1.7212  1.4146 -0.0361
 6183TIP3   OH240039   0.123   0.011   0.770 -0.3960 -0.1852  0.4142
 6183TIP3    H140040   0.038  -0.006   0.812 -0.9710  1.7164  0.1150
 6183TIP3    H240041   0.126  -0.050   0.697 -1.8618  0.2007 -0.0157
 6184TIP3   OH240042   1.938   0.863   8.662  0.4484  0.4645 -0.5232
 6184TIP3    H140043   2.028   0.873   8.632  0.7209 -1.4565 -0.4498
 6184TIP3    H240044   1.886   0.865   8.582  0.6287  0.8343 -0.6323
 6185TIP3   OH240045   0.620   2.610  11.481 -0.6969 -0.5507  0.1929
 6185TIP3    H140046   0.538   2.581  11.522 -0.0997 -2.2340  0.2478
 6185TIP3    H240047   0.608   2.588  11.388 -0.6770  0.0961  0.0331
 6186TIP3   OH240048   2.547   3.437   9.636  0.1063  0.2342  0.4185
 6186TIP3    H140049   2.540   3.517   9.584 -2.5528 -2.0048 -3.2183
 6186TIP3    H240050   2.458   3.422   9.668  0.4321 -1.4746  0.6229
 6187TIP3   OH240051   4.061   2.590   3.764 -0.3417 -0.4758  0.0101
 6187TIP3    H140052   3.993   2.581   3.830 -0.7889 -0.6092 -0.4629
 6187TIP3    H240053   4.014   2.605   3.682  0.2305  0.6309 -0.1349
 6188TIP3   OH240054   0.204   4.216  39.172  0.2697 -0.0920 -0.6290
 6188TIP3    H140055   0.111   4.194  39.181  0.0996  0.2123 -1.5222
 6188TIP3    H240056   0.250   4.135  39.192 -0.1152  0.0810  1.1198
 6189TIP3   OH240057   2.492   0.069   6.163 -0.3753  0.1011 -0.2118
 6189TIP3    H140058   2.405   0.059   6.201 -0.0990 -1.0305  0.1768
 6189TIP3    H240059   2.547   0.097   6.236 -0.6883  2.4631 -0.8028
 6190TIP3   OH240060   1.586   0.080  14.330  0.1166  0.0252  0.1131
 6190TIP3    H140061   1.628   0.125  14.404 -0.5438  0.1791  0.4012
 6190TIP3    H240062   1.594   0.142  14.257  0.4719  0.0116  0.1372
 6191TIP3   OH240063   1.001   2.237   0.022 -0.2099  0.0088  0.0860
 6191TIP3    H140064   0.938   2.244   0.094  2.4867  0.3341  2.6394
 6191TIP3    H240065   0.988   2.149  -0.013 -0.8426 -0.6306  1.8163
 6192TIP3   OH240066   3.315   0.330  28.304 -0.3238 -0.7101 -0.0467
 6192TIP3    H140067   3.281   0.255  28.353  1.5145 -1.8587 -0.4147
 6192TIP3    H240068   3.286   0.315  28.214 -0.3208 -0.7507 -0.0405
 6193TIP3   OH240069   0.440   2.205  30.529 -0.0187 -0.3462 -0.4864
 6193TIP3    H140070   0.364   2.204  30.588 -0.2496  0.8534 -0.7363
 6193TIP3    H240071   0.482   2.120  30.542 -0.0245 -0.0980  1.4705
 6194TIP3   OH240072   4.228   0.403  32.596  0.2288  0.5977  0.0001
 6194TIP3    H140073   4.289   0.358  32.654 -1.2300  0.0480  1.1864
 6194TIP3    H240074   4.254   0.377  32.508  1.4476  0.0703  0.4908
 6195TIP3   OH240075   1.798   3.682  33.386  0.2612 -0.1510 -0.5239
 6195TIP3    H140076   1.830   3.682  33.476 -0.8993 -1.3933 -0.0868
 6195TIP3    H240077   1.768   3.772  33.372  0.6659  0.1158  0.2445
 6196TIP3   OH240078   3.767   0.215   9.384 -0.2964  0.0500 -0.6481
 6196TIP3    H140079   3.822   0.281   9.341  0.4146  0.5088  0.8909
 6196TIP3    H240080   3.690   0.264   9.413  0.3873  0.3204  0.7983
 6197TIP3   OH240081   1.200   0.325   2.459  0.4767 -0.0448 -0.2863
 6197TIP3    H140082   1.237   0.253   2.408 -1.0753 -1.9107  1.0732
 6197TIP3    H240083   1.163   0.384   2.393  2.6968  0.1421 -1.4844
 6198TIP3   OH240084   2.433   1.003  31.043  0.3813 -0.0703  0.0596
 6198TIP3    H140085   2.496   1.017  31.114 -0.0270  1.4503  0.1599
 6198TIP3    H240086   2.351   1.040  31.076 -0.3068 -1.0767 -0.4825
 6199TIP3   OH240087   3.926   4.282  13.065 -0.0821  0.6955 -0.3561
 6199TIP3    H140088   3.843   4.291  13.020 -0.0305  1.1810 -0.3672
 6199TIP3    H240089   3.908   4.223  13.138 -0.4343  0.7956 -0.3601
 6200TIP3   OH240090   3.100   4.094   3.318 -0.7081 -0.2227  0.0468
 6200TIP3    H140091   3.190   4.074   3.346 -0.9310  0.0622  1.0309
 6200TIP3    H240092   3.104   4.185   3.290 -0.4848 -0.5063 -0.8579
 6201TIP3   OH240093   0.610   1.070  27.655 -0.0483 -0.8723 -0.2351
 6201TIP3    H140094   0.539   1.007  27.669  1.7094 -3.0892 -0.6742
 6201TIP3    H240095   0.630   1.063  27.562 -0.2736  0.9364 -0.4551
 6202TIP3   OH240096   0.694   1.352  37.638 -0.4532  0.5440  0.3155
 6202TIP3    H140097   0.731   1.288  37.577 -1.1342  0.5530 -0.1253
 6202TIP3    H240098   0.736   1.333  37.722  2.5772  2.2339 -0.6581
 6203TIP3   OH240099   3.293   4.046  10.789  0.4940 -0.1764 -0.5856
 6203TIP3    H140100   3.286   4.140  10.774 -0.3021 -0.3082 -1.1361
 6203TIP3    H240101   3.354   4.037  10.862 -2.0020  0.9698  1.7949
 6204TIP3   OH240102   0.191   1.612  25.837  0.1453 -0.0979 -0.7347
 6204TIP3    H140103   0.230   1.529  25.808  1.2588  0.2331 -0.2618
 6204TIP3    H240104   0.208   1.614  25.931  0.9678  1.0687 -0.8845
 6205TIP3   OH240105   2.922   0.505   1.532 -0.9131 -0.3200  0.4066
 6205TIP3    H140106   2.963   0.591   1.533  0.0597 -0.7629  0.6898
 6205TIP3    H240107   2.950   0.465   1.450 -1.6095 -0.2593  0.1316
 6206TIP3   OH240108   1.150   1.758  32.340 -0.4182 -0.7536 -0.1724
 6206TIP3    H140109   1.151   1.696  32.413  0.2694 -0.4430  0.0930
 6206TIP3    H240110   1.208   1.719  32.274  0.9921  0.1501  0.4836
 6207TIP3   OH240111   2.768   0.750  19.119  0.3025  0.0066  0.3688
 6207TIP3    H140112   2.746   0.778  19.208  0.8004 -0.5937  0.6847
 6207TIP3    H240113   2.720   0.668  19.107  0.6514 -0.1851  0.2750
 6208TIP3   OH240114   1.173   1.659  26.828  0.1151  0.0941  0.2361
 6208TIP3    H140115   1.253   1.625  26.870 -0.8759 -1.3894  1.0038
 6208TIP3    H240116   1.154   1.596  26.759  0.0250  0.8713 -0.4539
 6209TIP3   OH240117   2.957   1.458   3.256  0.1942  0.1775  0.0222
 6209TIP3    H140118   2.951   1.554   3.264 -0.2716  0.2934 -1.4652
 6209TIP3    H240119   2.875   1.426   3.295  0.9270  0.2802  1.7158
 6210TIP3   OH240120   1.505   4.148  10.050 -0.2420  0.4424 -0.0364
 6210TIP3    H140121   1.522   4.177  10.139 -2.2575  0.2820  0.4438
 6210TIP3    H240122   1.590   4.156  10.006  0.6258  1.2350  1.6710
 6211TIP3   OH240123   2.080   3.086   3.782  0.8284  0.4787  0.0821
 6211TIP3    H140124   2.121   3.159   3.736 -2.4686  2.5524  0.0719
 6211TIP3    H240125   2.077   3.114   3.874  0.6419 -0.2237  0.2967
 6212TIP3   OH240126   1.650   3.462  28.638  0.2378 -0.1164 -0.3838
 6212TIP3    H140127   1.743   3.445  28.620  0.3010  0.8291 -1.0259
 6212TIP3    H240128   1.645   3.557  28.648 -0.1341 -0.3692  2.8208
 6213TIP3   OH240129   0.188   1.055  38.017  0.3130  0.5933  0.6410
 6213TIP3    H140130   0.224   1.092  38.098 -0.6931  0.6844  1.0738
 6213TIP3    H240131   0.177   0.962  38.037 -0.2243  0.6702  0.7339
 6214TIP3   OH240132   0.180   3.841   0.840 -0.6282  0.2374 -0.2687
 6214TIP3    H140133   0.236   3.875   0.770  1.0343 -0.0081  0.8981
 6214TIP3    H240134   0.162   3.917   0.895  0.8721 -0.1723  0.8563
 6215TIP3   OH240135   1.477   1.668  34.798  0.3173  0.2768  0.0227
 6215TIP3    H140136   1.384   1.682  34.783  0.1637  0.4885  1.0868
 6215TIP3    H240137   1.495   1.582  34.760 -0.6706 -0.4975  1.2447
 6216TIP3   OH240138   1.876   1.296  35.377  0.5503 -0.4246 -0.1698
 6216TIP3    H140139   1.896   1.212  35.419  3.3949  0.3228  0.1961
 6216TIP3    H240140   1.822   1.343  35.440  3.7313  0.1960  2.3554
 6217TIP3   OH240141   0.184   2.136  32.790  0.0277  0.2572  0.0704
 6217TIP3    H140142   0.217   2.064  32.735 -0.5267 -0.0919  0.1882
 6217TIP3    H240143   0.210   2.112  32.879 -1.7633 -0.7675  0.3681
 6218TIP3   OH240144   2.105   1.203  36.360 -0.2219  0.0152  0.4105
 6218TIP3    H140145   2.170   1.147  36.317 -0.6228 -0.5987  0.5812
 6218TIP3    H240146   2.121   1.190  36.454 -0.7731 -0.3758  0.4569
 6219TIP3   OH240147   1.411   2.087  12.914  0.6653  0.3851  0.0115
 6219TIP3    H140148   1.432   2.000  12.880  1.7241  0.3943  0.5935
 6219TIP3    H240149   1.419   2.145  12.839 -0.7117 -0.1064 -0.5297
 6220TIP3   OH240150   0.035   2.554   2.966 -0.0844 -0.3002  0.8228
 6220TIP3    H140151  -0.026   2.487   2.933  2.0490 -1.4482 -1.0774
 6220TIP3    H240152   0.102   2.504   3.012  2.4644  0.1626 -2.0374
 6221TIP3   OH240153   2.680   3.251  13.696 -0.0936  0.0168  0.3080
 6221TIP3    H140154   2.749   3.307  13.660  0.1530 -0.5750 -0.1662
 6221TIP3    H240155   2.674   3.276  13.788  0.3586  0.4689  0.2200
 6222TIP3   OH240156   3.606   2.047  27.612 -0.4857  0.4879  0.0565
 6222TIP3    H140157   3.606   2.013  27.701 -1.6800  0.2694 -0.0041
 6222TIP3    H240158   3.601   1.969  27.557 -1.3951  0.6640 -0.1351
 6223TIP3   OH240159   2.943   0.720  38.184  0.8762 -0.8401  0.2618
 6223TIP3    H140160   2.944   0.682  38.096  0.7787 -0.4927  0.1122
 6223TIP3    H240161   3.016   0.781  38.185 -1.1551  1.8068 -0.7460
 6224TIP3   OH240162   2.413   4.112  13.609 -0.3837  0.1721  0.4827
 6224TIP3    H140163   2.318   4.100  13.599 -0.4933  0.6965  0.8584
 6224TIP3    H240164   2.440   4.155  13.529 -0.5514  0.5013  0.6025
 6225TIP3   OH240165   2.004   2.548  11.692  0.2284 -0.0604 -0.5513
 6225TIP3    H140166   1.929   2.496  11.665  1.0156 -0.9628 -1.0557
 6225TIP3    H240167   1.966   2.628  11.729 -1.0300 -1.1303  0.5830
 6226TIP3   OH240168   3.412   4.405  35.378 -0.3282  0.2035 -0.2515
 6226TIP3    H140169   3.418   4.403  35.282  0.7431  1.1246 -0.2129
 6226TIP3    H240170   3.497   4.373  35.408 -0.4297  0.5326  0.4001
 6227TIP3   OH240171   2.465   2.122  36.008  1.1659 -0.4426 -0.0571
 6227TIP3    H140172   2.528   2.082  36.067 -0.1989 -1.5398  0.7142
 6227TIP3    H240173   2.501   2.209  35.989  2.2759 -0.5680  1.3370
 6228TIP3   OH240174   0.418   3.350  22.781  0.3615  0.4638  0.0439
 6228TIP3    H140175   0.476   3.389  22.846 -0.3353 -1.2324  1.7578
 6228TIP3    H240176   0.348   3.414  22.770  1.0735  1.2742  0.0601
 6229TIP3   OH240177   0.719   1.284  26.683 -0.5333 -1.0533 -0.7721
 6229TIP3    H140178   0.719   1.362  26.739 -3.8954 -1.0472 -0.5839
 6229TIP3    H240179   0.794   1.296  26.625  0.6690  0.9297  1.0565
 6230TIP3   OH240180   2.793   3.021   4.057 -0.2660 -0.6774 -0.0932
 6230TIP3    H140181   2.846   2.965   4.000  1.3764 -0.1982  0.9072
 6230TIP3    H240182   2.814   3.110   4.029 -2.3684 -0.4689 -1.2343
 6231TIP3   OH240183   3.216   2.175  29.178  0.1159 -0.2402  0.0349
 6231TIP3    H140184   3.250   2.225  29.253  0.5931 -0.7525  0.1655
 6231TIP3    H240185   3.181   2.242  29.119 -0.5477  0.1521  0.8490
 6232TIP3   OH240186   0.951   3.434   9.643  0.4005  0.4005  0.1720
 6232TIP3    H140187   0.881   3.483   9.686 -2.2222 -1.2535 -1.9042
 6232TIP3    H240188   0.929   3.342   9.656  1.3521 -0.1640 -1.7229
 6233TIP3   OH240189   0.297   1.037  26.075  0.0570  0.4913  0.3596
 6233TIP3    H140190   0.369   1.089  26.112  0.3939 -0.1153  0.5665
 6233TIP3    H240191   0.222   1.057  26.130  0.6611 -0.7801  1.7292
 6234TIP3   OH240192   0.085   3.730  32.279 -0.5785 -0.3707  1.0447
 6234TIP3    H140193   0.085   3.745  32.185 -0.7738 -2.4597  0.6668
 6234TIP3    H240194   0.173   3.757  32.308 -0.1496 -0.7121  0.0919
 6235TIP3   OH240195   0.836   1.791  27.225  0.0402 -0.3429 -0.6596
 6235TIP3    H140196   0.894   1.736  27.173 -1.9192 -1.2883 -1.9480
 6235TIP3    H240197   0.893   1.862  27.257  1.9139 -1.2932 -1.6951
 6236TIP3   OH240198   3.636   0.507  36.712  0.0044  0.2671 -0.4671
 6236TIP3    H140199   3.662   0.576  36.651 -0.3389  1.6479  0.8966
 6236TIP3    H240200   3.553   0.474  36.677  0.9039 -0.5314 -1.9491
 6237TIP3   OH240201   1.732   3.918  35.415  0.0114 -0.3076 -0.1934
 6237TIP3    H140202   1.727   3.862  35.492 -2.4151 -2.1176 -1.5519
 6237TIP3    H240203   1.656   3.975  35.422 -1.2439 -1.6622 -2.0165
 6238TIP3   OH240204   0.701   1.086  28.360 -0.3023  0.1775  0.4214
 6238TIP3    H140205   0.761   1.012  28.352 -0.7455 -0.0338 -1.4000
 6238TIP3    H240206   0.634   1.071  28.293 -0.6471  1.9890  0.2893
 6239TIP3   OH240207   4.040   4.106   8.758 -0.2066 -0.5019 -0.7217
 6239TIP3    H140208   4.090   4.036   8.800 -0.4319 -0.4920 -0.4392
 6239TIP3    H240209   3.989   4.145   8.828 -0.5544 -0.4612 -0.9936
 6240TIP3   OH240210   2.146   0.210  28.296 -0.1513 -0.0897 -1.0571
 6240TIP3    H140211   2.209   0.281  28.298 -0.7356  0.4332 -0.8521
 6240TIP3    H240212   2.068   0.246  28.339  0.6319 -1.9686  2.2533
 6241TIP3   OH240213   0.720   0.408   4.950  0.0794  0.1737  0.0929
 6241TIP3    H140214   0.744   0.344   5.016  1.3193 -0.5956 -1.0556
 6241TIP3    H240215   0.742   0.366   4.866 -1.2153  1.2029 -0.8145
 6242TIP3   OH240216   1.790   1.242   2.632 -0.5175 -0.1831 -0.3404
 6242TIP3    H140217   1.726   1.177   2.604  0.4072 -1.4784  0.4024
 6242TIP3    H240218   1.870   1.191   2.648  0.1743  1.1046  0.5079
 6243TIP3   OH240219   2.192   0.663   0.581 -0.4513  0.2700 -0.8931
 6243TIP3    H140220   2.163   0.617   0.503  1.7762 -0.5609 -1.2982
 6243TIP3    H240221   2.286   0.649   0.585 -0.3993  0.6756  1.7088
 6244TIP3   OH240222   1.322   2.529   4.954  0.7635  0.5874  0.4489
 6244TIP3    H140223   1.243   2.564   4.913  0.4630 -0.8881 -0.2993
 6244TIP3    H240224   1.332   2.579   5.035 -2.4865 -0.9037  1.9582
 6245TIP3   OH240225   1.605   2.450  37.435 -0.4322  0.1053 -0.3366
 6245TIP3    H140226   1.575   2.533  37.471  0.1175  0.1711 -0.0132
 6245TIP3    H240227   1.539   2.386  37.462 -0.5647  0.3395 -0.1093
 6246TIP3   OH240228   3.470   0.806   1.761  0.3565  0.0214 -0.6023
 6246TIP3    H140229   3.430   0.892   1.757  0.3702  0.0339 -0.4567
 6246TIP3    H240230   3.422   0.754   1.696 -1.0706 -0.4561  0.7830
 6247TIP3   OH240231   3.065   0.874  13.422 -0.3953 -0.1143 -0.2770
 6247TIP3    H140232   3.093   0.783  13.422 -1.7698 -0.6360  2.5295
 6247TIP3    H240233   2.981   0.874  13.468 -0.0758  2.6684  0.5143
 6248TIP3   OH240234   4.288   4.392  38.923 -0.3230 -0.0596 -0.1067
 6248TIP3    H140235   4.377   4.373  38.894 -0.2570 -1.8071  1.0962
 6248TIP3    H240236   4.236   4.389  38.843  0.5634  0.0156 -0.6928
 6249TIP3   OH240237   3.508   0.016   1.016 -0.6161 -0.2687  0.3673
 6249TIP3    H140238   3.482  -0.063   1.062  0.1718  0.8445  2.9109
 6249TIP3    H240239   3.562   0.064   1.079 -1.7094  2.6628 -0.7319
 6250TIP3   OH240240   4.033   1.391   4.344  0.3788  0.2565 -0.0501
 6250TIP3    H140241   3.964   1.361   4.403  1.4187 -1.1448  0.5277
 6250TIP3    H240242   4.000   1.370   4.257  0.0808 -0.4931  0.2292
 6251TIP3   OH240243   0.541   0.134   1.167 -0.1766  0.0044 -0.0645
 6251TIP3    H140244   0.497   0.213   1.136  1.2427  0.2610 -1.5800
 6251TIP3    H240245   0.532   0.072   1.095  0.2151 -0.6108  0.4074
 6252TIP3   OH240246   0.050   0.734  30.396  0.8469  0.2318  0.3067
 6252TIP3    H140247   0.010   0.819  30.378  2.3146  0.6186 -1.3895
 6252TIP3    H240248   0.129   0.733  30.342  1.0343 -2.0934  0.5409
 6253TIP3   OH240249   2.096   3.994  30.863 -0.1629 -0.0355 -0.0645
 6253TIP3    H140250   2.143   3.987  30.947 -0.2886 -1.6713 -0.0927
 6253TIP3    H240251   2.159   4.036  30.804 -0.2935  1.7261  0.9782
 6254TIP3   OH240252   1.643   4.039  11.799  0.0243  0.3724 -0.3705
 6254TIP3    H140253   1.733   4.011  11.783  0.0452  0.8987 -1.2353
 6254TIP3    H240254   1.590   3.982  11.744 -0.1533  0.2564 -0.0819
 6255TIP3   OH240255   3.805   2.030  40.955  0.0018  0.4586  0.1231
 6255TIP3    H140256   3.750   2.093  41.001  0.1847  2.3146 -2.0414
 6255TIP3    H240257   3.876   2.011  41.017 -0.3643  1.9332  1.0576
 6256TIP3   OH240258   1.481   3.354   4.575  0.2497  0.4852  0.2561
 6256TIP3    H140259   1.455   3.349   4.667  1.8944 -1.8281  0.6858
 6256TIP3    H240260   1.399   3.356   4.527 -0.6931 -0.8288  1.7011
 6257TIP3   OH240261   1.554   3.085  15.365 -0.3135  0.3202 -0.0210
 6257TIP3    H140262   1.610   3.059  15.437  0.3939 -0.1958 -0.7406
 6257TIP3    H240263   1.481   3.023  15.367 -1.0676  1.1885  1.1105
 6258TIP3   OH240264   0.712   1.034   4.180 -0.6700  0.4134 -0.5117
 6258TIP3    H140265   0.654   1.079   4.119 -0.9673  0.6126 -0.0834
 6258TIP3    H240266   0.785   1.004   4.126 -0.5945  1.1847 -0.8426
 6259TIP3   OH240267   2.637   2.573  39.055  0.0619  0.4669  0.3961
 6259TIP3    H140268   2.583   2.534  38.986 -1.9972  4.1292 -0.3723
 6259TIP3    H240269   2.727   2.558  39.026 -0.6408 -1.3356 -1.0688
 6260TIP3   OH240270   0.953   3.044   3.986  0.0829 -0.2843  0.0550
 6260TIP3    H140271   0.994   3.045   4.073  1.9959  0.0815 -0.7819
 6260TIP3    H240272   0.876   2.988   3.996  0.9950 -1.3324  1.6728
 6261TIP3   OH240273   1.139   0.254  18.125  0.1238 -0.4143 -0.1071
 6261TIP3    H140274   1.090   0.285  18.049 -0.5007 -0.8588  0.1047
 6261TIP3    H240275   1.105   0.166  18.141  1.6010 -1.0826 -0.4872
 6262TIP3   OH240276   0.426   1.153   2.573 -0.1708 -0.4042  0.5847
 6262TIP3    H140277   0.386   1.232   2.537  2.6285  0.3894 -1.1544
 6262TIP3    H240278   0.478   1.185   2.648  0.3093 -0.7149  0.3868
 6263TIP3   OH240279   0.711   2.775  30.454 -0.4405  0.5545 -0.2225
 6263TIP3    H140280   0.750   2.773  30.541 -1.1630 -0.3572  0.1015
 6263TIP3    H240281   0.717   2.685  30.422 -0.8069  0.7319 -0.8197
 6264TIP3   OH240282   1.530   1.878  38.688 -0.5659 -0.1832 -0.2975
 6264TIP3    H140283   1.445   1.882  38.644 -1.1254  0.0295  0.7727
 6264TIP3    H240284   1.510   1.845  38.776  0.7039 -2.0052 -0.6250
 6265TIP3   OH240285   0.578   3.105  29.841 -0.3894  0.7953  0.4021
 6265TIP3    H140286   0.606   3.156  29.917 -1.0370 -0.9188  1.8396
 6265TIP3    H240287   0.623   3.021  29.851  0.6137  0.9697 -1.8837
 6266TIP3   OH240288   3.777   0.104  12.090 -0.7037 -0.2829  0.2864
 6266TIP3    H140289   3.700   0.137  12.138 -0.1280  1.0864  0.3075
 6266TIP3    H240290   3.845   0.097  12.157 -0.0202  1.2200 -0.2202
 6267TIP3   OH240291   0.646   4.265   3.644 -0.2870  0.4933  0.7828
 6267TIP3    H140292   0.696   4.224   3.715  0.4846  2.2769  1.3049
 6267TIP3    H240293   0.590   4.329   3.688 -1.4403  0.0793 -0.0249
 6268TIP3   OH240294   4.195   1.358  36.575 -0.1799 -0.4709 -0.1793
 6268TIP3    H140295   4.118   1.341  36.631 -0.1888  1.6445  0.5442
 6268TIP3    H240296   4.226   1.271  36.551 -2.5168 -1.4104 -0.1058
 6269TIP3   OH240297   1.300   3.876  14.612 -0.1459 -0.3978  0.1513
 6269TIP3    H140298   1.322   3.793  14.653  0.4876 -1.2722 -1.8166
 6269TIP3    H240299   1.225   3.857  14.556  0.0379  0.3356 -0.3700
 6270TIP3   OH240300   2.057   0.085  29.740  0.3408 -0.0824 -0.1311
 6270TIP3    H140301   2.112   0.035  29.680  1.7788 -0.0532  1.1165
 6270TIP3    H240302   2.064   0.175  29.710  2.2002  0.1466  0.8702
 6271TIP3   OH240303   1.995   4.201  36.824  0.5422  0.2880  0.1312
 6271TIP3    H140304   2.039   4.142  36.884  0.4787  0.6604  0.5553
 6271TIP3    H240305   1.967   4.275  36.879 -0.4918  0.1216 -0.1460
 6272TIP3   OH240306   2.522   1.812  39.578 -0.6097 -0.3953  0.0241
 6272TIP3    H140307   2.502   1.799  39.485  0.5478  0.1908 -0.3261
 6272TIP3    H240308   2.544   1.724  39.610  0.8068 -0.3327 -0.7267
 6273TIP3   OH240309   1.645   2.424  12.836 -0.1991 -0.3536  0.3866
 6273TIP3    H140310   1.616   2.512  12.812 -1.2585 -0.3529  1.5980
 6273TIP3    H240311   1.576   2.366  12.803 -0.1946 -0.6068  0.8136
 6274TIP3   OH240312   3.023   3.910  30.306  0.7348  0.1772  0.5314
 6274TIP3    H140313   3.004   3.867  30.223 -0.6928 -0.0804  0.9554
 6274TIP3    H240314   2.945   3.892  30.360  1.1059  1.3611  1.4971
 6275TIP3   OH240315   2.760   3.675   2.175  0.4423 -0.4712  0.1005
 6275TIP3    H140316   2.685   3.631   2.137 -0.8605  1.5658  0.1382
 6275TIP3    H240317   2.740   3.768   2.167  2.7512  0.1441  0.5739
 6276TIP3   OH240318   0.783   0.796  13.244  0.2628 -0.0551 -0.0254
 6276TIP3    H140319   0.832   0.786  13.325 -0.1049 -1.3712  0.0571
 6276TIP3    H240320   0.796   0.888  13.219  0.4238  0.3611  1.4840
 6277TIP3   OH240321   0.513   0.991   5.926 -0.3053 -0.0249  0.0490
 6277TIP3    H140322   0.503   0.922   5.991  0.1447 -0.2364 -0.1007
 6277TIP3    H240323   0.459   0.962   5.852 -0.4820  0.0082  0.1658
 6278TIP3   OH240324   3.703   0.803   6.928  0.5652  0.0249  0.5087
 6278TIP3    H140325   3.695   0.708   6.916  2.2357 -0.2792  1.4813
 6278TIP3    H240326   3.627   0.839   6.882  0.3610 -1.7209 -0.6384
 6279TIP3   OH240327   2.869   2.962   8.505 -0.0860 -0.2665  0.1000
 6279TIP3    H140328   2.800   2.943   8.442  1.0527  1.7801 -1.9352
 6279TIP3    H240329   2.823   2.979   8.587 -1.8147 -0.8356 -0.7200
 6280TIP3   OH240330   4.170   3.672   3.184  0.7615  0.0639 -0.4659
 6280TIP3    H140331   4.200   3.599   3.131  0.7080 -0.3598  0.0765
 6280TIP3    H240332   4.196   3.750   3.135  0.9814 -0.3151 -0.9579
 6281TIP3   OH240333   1.854   3.129  40.605  0.5717  0.0740  0.4945
 6281TIP3    H140334   1.871   3.220  40.578  1.0739 -0.0742  0.2953
 6281TIP3    H240335   1.761   3.116  40.588  0.1536  1.0078  1.8672
 6282TIP3   OH240336   1.358   3.638   8.038 -0.1489  0.1758 -0.0213
 6282TIP3    H140337   1.420   3.596   8.096 -1.9255 -1.5086  0.7976
 6282TIP3    H240338   1.283   3.659   8.094 -0.7465  1.1535 -1.1478
 6283TIP3   OH240339   3.114   2.362   5.310 -0.3843  0.5075  0.9477
 6283TIP3    H140340   3.076   2.304   5.376  0.5185  1.3588  2.2516
 6283TIP3    H240341   3.042   2.422   5.287 -0.8292 -0.0652  0.8148
 6284TIP3   OH240342   2.826   0.013   0.723  0.5939 -0.2651 -0.2542
 6284TIP3    H140343   2.765  -0.040   0.672  0.5699 -1.0265  0.5455
 6284TIP3    H240344   2.907   0.012   0.671  0.4691 -0.7523 -0.4469
 6285TIP3   OH240345   3.781   0.714  28.073  0.2748 -0.0650  0.7315
 6285TIP3    H140346   3.841   0.763  28.016 -0.6671 -1.4025 -1.5277
 6285TIP3    H240347   3.699   0.762  28.069  0.1054 -0.3565  0.7225
 6286TIP3   OH240348   2.793   3.704   9.250 -0.0584  0.0343  0.3105
 6286TIP3    H140349   2.762   3.791   9.276  2.1148  1.0277 -0.1549
 6286TIP3    H240350   2.793   3.654   9.332 -0.4896  0.7413  0.7580
 6287TIP3   OH240351   0.641   2.162   9.413 -0.0970 -0.5783 -0.0768
 6287TIP3    H140352   0.650   2.089   9.475 -0.7870 -0.3069  0.3673
 6287TIP3    H240353   0.571   2.216   9.451  0.0491  0.0367 -0.6694
 6288TIP3   OH240354   0.305   2.369  29.540  0.0579 -0.0021 -0.3399
 6288TIP3    H140355   0.246   2.440  29.566  0.7326 -0.4348  2.7156
 6288TIP3    H240356   0.387   2.412  29.519  0.6822  0.1777  2.1913
 6289TIP3   OH240357   2.995   0.506  32.964  0.2209 -0.2190 -0.2189
 6289TIP3    H140358   3.061   0.486  33.030 -0.8675  2.3715  1.8148
 6289TIP3    H240359   3.041   0.493  32.880  1.7906 -3.1120  0.9478
 6290TIP3   OH240360   3.877   3.202   4.207 -0.0111  0.5424  0.3827
 6290TIP3    H140361   3.889   3.109   4.229 -1.4213  0.4298  0.7930
 6290TIP3    H240362   3.897   3.248   4.289  2.6860  0.8090 -0.3482
 6291TIP3   OH240363   0.011   1.461  39.510  0.4446  0.1473 -0.2475
 6291TIP3    H140364  -0.018   1.431  39.596 -1.0346 -0.8520 -1.0598
 6291TIP3    H240365   0.099   1.424  39.501  0.0149 -1.0371  0.2158
 6292TIP3   OH240366   1.040   3.614   9.844 -0.8145 -0.0006 -0.1171
 6292TIP3    H140367   1.032   3.527   9.804 -1.8601  0.0968 -0.1555
 6292TIP3    H240368   0.977   3.668   9.796 -0.7367  0.5816  0.4291
 6293TIP3   OH240369   3.791   2.308  31.084  0.3106 -0.3373 -0.0312
 6293TIP3    H140370   3.744   2.343  31.009  0.2585  1.4344  0.7887
 6293TIP3    H240371   3.725   2.261  31.134  0.2491 -1.1240 -0.8225
 6294TIP3   OH240372   0.964   2.667  16.107 -0.1606 -0.3318 -0.1297
 6294TIP3    H140373   1.014   2.737  16.066  0.5186 -2.6711 -3.8315
 6294TIP3    H240374   0.943   2.607  16.035 -3.6786 -2.2419  2.1757
 6295TIP3   OH240375   2.603   3.389  39.524  0.5188  0.4397 -0.2807
 6295TIP3    H140376   2.630   3.315  39.578  0.3967  0.5850 -0.0222
 6295TIP3    H240377   2.508   3.390  39.529  0.3610 -0.6970 -2.0109
 6296TIP3   OH240378   4.154   2.741   5.967 -0.2453 -0.4598 -0.1706
 6296TIP3    H140379   4.192   2.695   5.892  0.2269 -0.5155  0.1010
 6296TIP3    H240380   4.088   2.799   5.928 -0.2265 -0.7161 -0.5970
 6297TIP3   OH240381   3.174   2.442  34.078 -0.8972  0.2913 -0.4741
 6297TIP3    H140382   3.266   2.419  34.070 -1.0728 -0.7191  0.2445
 6297TIP3    H240383   3.130   2.390  34.010 -1.0688 -0.1157 -0.0588
 6298TIP3   OH240384   1.703   2.238  30.826 -0.9264 -0.6473 -0.2454
 6298TIP3    H140385   1.643   2.247  30.752 -3.8503 -1.0371  1.9097
 6298TIP3    H240386   1.722   2.144  30.830 -3.4840 -1.2087  1.3172
 6299TIP3   OH240387   3.855   3.656  36.197 -0.4520  0.3789 -0.6201
 6299TIP3    H140388   3.950   3.646  36.204 -0.7729 -2.6969  1.2179
 6299TIP3    H240389   3.842   3.697  36.111  2.4715  0.2078 -1.2717
 6300TIP3   OH240390   1.384   3.875  36.476  0.2056  0.0441  0.0244
 6300TIP3    H140391   1.403   3.781  36.471  2.7013  0.4252  0.9659
 6300TIP3    H240392   1.329   3.884  36.555 -0.7983 -0.6858 -0.5669
 6301TIP3   OH240393   2.186   1.833   6.100 -0.2438  0.5265  0.2091
 6301TIP3    H140394   2.211   1.925   6.108  2.4061 -0.2935  3.0854
 6301TIP3    H240395   2.145   1.811   6.184 -0.2753 -1.0777 -0.1871
 6302TIP3   OH240396   2.176   3.266   8.104  0.2679 -0.4574  0.1240
 6302TIP3    H140397   2.201   3.357   8.089  0.4062 -0.2182  1.6049
 6302TIP3    H240398   2.129   3.268   8.187 -0.2797 -1.6547 -0.1368
 6303TIP3   OH240399   0.524   2.481  41.638  0.5621  0.6290 -0.3878
 6303TIP3    H140400   0.521   2.470  41.543  0.1340  1.8852 -0.5412
 6303TIP3    H240401   0.527   2.576  41.651 -0.6800  0.5317  0.8778
 6304TIP3   OH240402   0.320   4.405  32.273  0.1893 -0.0675 -0.2151
 6304TIP3    H140403   0.274   4.356  32.204 -0.7080  1.0246 -0.4349
 6304TIP3    H240404   0.259   4.406  32.346  0.3549  0.3942 -0.0811
 6305TIP3   OH240405   3.873   2.974   8.271  0.2374 -0.2344 -0.1278
 6305TIP3    H140406   3.827   3.057   8.276 -1.6461 -1.1082 -1.7060
 6305TIP3    H240407   3.957   2.996   8.231  1.3220  1.3646  2.6992
 6306TIP3   OH240408   0.037   3.640   8.222 -0.6848 -0.0844  0.3463
 6306TIP3    H140409  -0.002   3.556   8.199  0.4127 -0.7787  0.9277
 6306TIP3    H240410  -0.022   3.677   8.288 -1.8049  0.1693 -0.7659
 6307TIP3   OH240411   1.159   1.193  29.600  0.0346 -0.3962  0.1035
 6307TIP3    H140412   1.097   1.200  29.528 -0.5079  1.8150  0.6831
 6307TIP3    H240413   1.191   1.103  29.597  0.6984 -0.1556 -3.4098
 6308TIP3   OH240414   1.109   0.425  35.357 -0.3773  0.4247  0.3308
 6308TIP3    H140415   1.131   0.406  35.265 -0.4739  2.6671 -0.2139
 6308TIP3    H240416   1.016   0.407  35.364 -0.5813  1.1742 -0.3080
 6309TIP3   OH240417   0.398   0.137   3.728 -0.0502 -0.2878 -0.1953
 6309TIP3    H140418   0.479   0.187   3.727 -0.7400  0.9328 -2.0306
 6309TIP3    H240419   0.330   0.203   3.742 -0.8741 -0.9473 -0.9858
 6310TIP3   OH240420   2.912   0.494   4.134  0.7544  0.4140 -0.6072
 6310TIP3    H140421   2.925   0.510   4.227  2.3733 -1.5923 -0.4289
 6310TIP3    H240422   2.825   0.530   4.115  0.4201  0.9212  1.6342
 6311TIP3   OH240423   3.141   2.660  27.078 -0.6981 -0.3378 -0.7619
 6311TIP3    H140424   3.107   2.678  26.990 -0.0008 -1.7372 -1.3425
 6311TIP3    H240425   3.071   2.612  27.122 -1.9043  2.1167  0.2383
 6312TIP3   OH240426   1.700   2.780   5.834  0.6357  0.4323  0.0413
 6312TIP3    H140427   1.719   2.741   5.919  2.0217  2.1875  0.6045
 6312TIP3    H240428   1.770   2.843   5.820 -0.2675  1.1164 -1.8281
 6313TIP3   OH240429   2.669   0.218  40.638 -0.3796 -0.4524  0.4645
 6313TIP3    H140430   2.741   0.205  40.576  0.6888  0.1309  1.5476
 6313TIP3    H240431   2.639   0.130  40.659 -1.5649 -0.6565 -1.7398
 6314TIP3   OH240432   4.398   3.522  27.318  0.0695 -0.2517  0.2341
 6314TIP3    H140433   4.337   3.450  27.305  0.7082 -0.3217 -3.0541
 6314TIP3    H240434   4.348   3.601  27.297  0.9690 -0.3085 -2.4732
 6315TIP3   OH240435   4.261   2.288  27.783 -0.0345 -0.3590  0.0818
 6315TIP3    H140436   4.340   2.301  27.835 -0.6793 -1.3320  1.3632
 6315TIP3    H240437   4.276   2.205  27.737 -0.6641 -1.0500  1.0767
 6316TIP3   OH240438   0.394   2.196  32.510  0.2194 -0.1074  0.1951
 6316TIP3    H140439   0.399   2.290  32.524 -1.9754 -0.0509  1.0556
 6316TIP3    H240440   0.312   2.184  32.462  1.1786 -1.4821 -1.2009
 6317TIP3   OH240441   4.140   0.442  26.611  0.5386 -0.6360 -0.5190
 6317TIP3    H140442   4.115   0.436  26.703  1.4838  0.3076 -0.1863
 6317TIP3    H240443   4.129   0.353  26.577 -0.4045 -0.8649  0.3320
 6318TIP3   OH240444   0.003   4.029   1.846  0.0861  0.5497  0.4154
 6318TIP3    H140445  -0.011   3.983   1.764  1.9509  1.2336 -0.3470
 6318TIP3    H240446   0.054   4.107   1.822  1.0328  0.5686  2.2559
 6319TIP3   OH240447   2.427   0.727  31.445 -0.0207  0.1788 -0.7805
 6319TIP3    H140448   2.403   0.740  31.537 -0.4257 -1.1587 -0.6841
 6319TIP3    H240449   2.343   0.717  31.400  0.1616  1.1222 -1.3576
 6320TIP3   OH240450   3.570   3.225   4.914  0.1908  0.4572 -0.1857
 6320TIP3    H140451   3.632   3.273   4.859 -0.5038  0.6478 -0.8138
 6320TIP3    H240452   3.487   3.230   4.867 -0.1434 -0.4211  0.2817
 6321TIP3   OH240453   2.597   2.822  38.863  0.2365  0.3962 -0.3323
 6321TIP3    H140454   2.680   2.869  38.862  0.7886 -0.5512 -0.2103
 6321TIP3    H240455   2.618   2.737  38.902 -0.8963  0.3326  0.1791
 6322TIP3   OH240456   1.208   1.510  37.861 -0.5964  0.9045 -0.8384
 6322TIP3    H140457   1.164   1.456  37.926  1.0016 -0.5635 -0.8926
 6322TIP3    H240458   1.260   1.448  37.810  1.7821  2.5386 -0.5454
 6323TIP3   OH240459   1.261   4.245  35.325 -0.5595 -0.2085  0.0199
 6323TIP3    H140460   1.332   4.222  35.384 -0.1297  0.6210 -0.1667
 6323TIP3    H240461   1.181   4.228  35.375 -0.2910 -2.1332 -0.1258
 6324TIP3   OH240462   1.233   2.728  12.943  0.3239  0.0989  0.0639
 6324TIP3    H140463   1.228   2.769  13.030  1.8828  0.1551  0.1525
 6324TIP3    H240464   1.278   2.792  12.889 -0.3510 -0.0747 -0.7132
 6325TIP3   OH240465   2.393   1.527  36.155  0.6608 -0.0270 -0.5967
 6325TIP3    H140466   2.311   1.502  36.111  0.7462  1.0673 -1.4041
 6325TIP3    H240467   2.392   1.622  36.157  1.8659  0.0027 -0.5089
 6326TIP3   OH240468   3.786   3.695  37.640 -0.1910 -0.0137 -0.3345
 6326TIP3    H140469   3.850   3.632  37.608 -0.2381 -0.2590  0.0468
 6326TIP3    H240470   3.837   3.755  37.695 -0.4684 -0.8690  0.8780
 6327TIP3   OH240471   1.112   0.068  28.253 -0.0083 -0.1253 -0.1309
 6327TIP3    H140472   1.175   0.062  28.181  0.9946 -1.6116  0.8131
 6327TIP3    H240473   1.027   0.056  28.211  0.5848 -1.4050 -1.0315
 6328TIP3   OH240474   3.247   1.121   1.328  0.3650  0.2967  0.2231
 6328TIP3    H140475   3.200   1.186   1.275  0.0030  0.7276  1.0499
 6328TIP3    H240476   3.181   1.085   1.386  0.5468 -0.8949 -0.2822
 6329TIP3   OH240477   2.931   0.116  33.569 -0.4869 -0.2149 -0.6321
 6329TIP3    H140478   3.022   0.133  33.595 -1.0722 -0.1927  1.5814
 6329TIP3    H240479   2.937   0.041  33.510  0.9785 -0.0916 -0.6911
 6330TIP3   OH240480   1.115   2.030  38.936 -0.6035  0.0928 -0.2454
 6330TIP3    H140481   1.114   1.951  38.883  0.3992 -1.5118  1.9544
 6330TIP3    H240482   1.022   2.051  38.948 -0.9418 -1.4035 -0.0030
 6331TIP3   OH240483   2.533   2.651   4.036 -0.2043  0.1834 -0.0280
 6331TIP3    H140484   2.580   2.650   4.119  0.1094 -0.8222 -0.2045
 6331TIP3    H240485   2.580   2.588   3.981 -1.8159 -0.9868 -0.1566
 6332TIP3   OH240486   3.287   3.449  35.901 -0.2149  0.0940 -0.2479
 6332TIP3    H140487   3.212   3.416  35.951 -0.1162  1.2296  0.6989
 6332TIP3    H240488   3.355   3.465  35.967  0.3625  0.4446 -0.9036
 6333TIP3   OH240489   0.495   4.293  31.034 -0.1545 -0.0215 -0.2796
 6333TIP3    H140490   0.412   4.279  30.988  0.2554  0.0768 -1.0685
 6333TIP3    H240491   0.532   4.205  31.044 -0.2869 -0.0525 -0.0392
 6334TIP3   OH240492   2.598   3.594   7.570 -0.0913  0.0099 -0.3881
 6334TIP3    H140493   2.659   3.522   7.585 -0.8347 -0.5897 -0.1473
 6334TIP3    H240494   2.519   3.551   7.537 -0.3607  0.7726 -0.7450
 6335TIP3   OH240495   1.199   1.095   5.159  0.1603 -0.2197 -0.8338
 6335TIP3    H140496   1.161   1.131   5.239 -0.3302  1.6889 -1.8599
 6335TIP3    H240497   1.284   1.139   5.152  1.5375 -2.5758  0.1277
 6336TIP3   OH240498   4.395   2.680  25.945  0.2870  0.4436 -0.0840
 6336TIP3    H140499   4.395   2.636  26.030  4.6898 -1.0321 -0.6035
 6336TIP3    H240500   4.444   2.761  25.959  0.0359  0.7749 -1.0000
 6337TIP3   OH240501   2.191   3.995  29.726  0.8497 -0.3028 -0.2213
 6337TIP3    H140502   2.234   4.037  29.652 -0.5457 -0.0480 -0.9228
 6337TIP3    H240503   2.159   4.067  29.780  1.4545 -0.4881  0.4077
 6338TIP3   OH240504   3.722   3.969   6.833  0.0869 -0.2995  0.1053
 6338TIP3    H140505   3.809   3.976   6.794  0.2869 -0.7610  0.4611
 6338TIP3    H240506   3.675   4.046   6.801  0.5212 -0.2165 -0.3490
 6339TIP3   OH240507   2.935   4.259  13.281 -0.1702 -0.0176  0.6517
 6339TIP3    H140508   2.942   4.191  13.214  1.4354 -0.5895  1.3456
 6339TIP3    H240509   2.968   4.338  13.238 -0.4125 -0.0661  0.3710
 6340TIP3   OH240510   0.789   2.151  35.832 -0.1982  0.7238 -0.4996
 6340TIP3    H140511   0.772   2.245  35.825  3.0081  1.7096  2.4416
 6340TIP3    H240512   0.853   2.134  35.763  1.5262  1.4803  0.8453
 6341TIP3   OH240513   3.164   2.283  11.765 -0.1705 -0.1464  0.2222
 6341TIP3    H140514   3.069   2.292  11.766 -0.0488  1.6427  0.3337
 6341TIP3    H240515   3.189   2.296  11.674 -0.0658 -1.4241  0.0514
 6342TIP3   OH240516   1.705   1.976  12.899  0.8217 -0.3097 -0.3427
 6342TIP3    H140517   1.639   1.906  12.898  1.5429 -0.9988 -1.1316
 6342TIP3    H240518   1.681   2.032  12.825 -1.0646  1.5889  1.5594
 6343TIP3   OH240519   1.248   0.871   5.753  0.2741  0.3925 -0.2201
 6343TIP3    H140520   1.275   0.811   5.823  1.4776 -1.7501 -2.3796
 6343TIP3    H240521   1.201   0.941   5.799 -0.6383 -1.8231  2.5495
 6344TIP3   OH240522   0.659   0.743  10.744  0.0731  0.5462  0.0461
 6344TIP3    H140523   0.632   0.786  10.825 -1.4000 -0.5279  0.1605
 6344TIP3    H240524   0.715   0.670  10.772  2.1862  1.9877 -0.1268
 6345TIP3   OH240525   1.060   4.180   0.617 -0.3079 -0.4188 -0.0272
 6345TIP3    H140526   1.092   4.270   0.624  1.0967 -0.9807  1.4946
 6345TIP3    H240527   0.965   4.188   0.607 -0.3126  1.1987  1.0416
 6346TIP3   OH240528   3.399   1.828   2.543 -0.1850  0.0046  0.1351
 6346TIP3    H140529   3.448   1.880   2.607  0.3819 -1.3795  0.8587
 6346TIP3    H240530   3.394   1.885   2.465  2.4928  0.2537  0.0615
 6347TIP3   OH240531   2.222   3.570   6.189  0.1687  0.1592  0.3446
 6347TIP3    H140532   2.225   3.475   6.188 -2.3700 -0.0139 -1.3735
 6347TIP3    H240533   2.270   3.597   6.110  2.1309  0.4584  1.5734
 6348TIP3   OH240534   2.434   0.550  11.682 -0.2635 -0.0441  0.0628
 6348TIP3    H140535   2.364   0.486  11.677  0.6953 -1.0840 -0.4600
 6348TIP3    H240536   2.390   0.635  11.674 -1.2720 -0.7155 -2.7796
 6349TIP3   OH240537   2.831   0.821   7.127 -0.1264 -0.1758  0.0316
 6349TIP3    H140538   2.917   0.827   7.084 -0.0354 -0.5816  0.1588
 6349TIP3    H240539   2.781   0.759   7.074 -0.3891  0.1571 -0.1155
 6350TIP3   OH240540   3.158   3.206  13.401  0.6601  0.5888  0.3707
 6350TIP3    H140541   3.167   3.222  13.307  2.4335 -0.5953  0.2991
 6350TIP3    H240542   3.194   3.285  13.442 -0.7792  1.4250  0.1026
 6351TIP3   OH240543   2.601   3.774  36.537  0.0107 -0.7908  0.6207
 6351TIP3    H140544   2.693   3.803  36.535  0.2767 -1.6009  0.7301
 6351TIP3    H240545   2.576   3.770  36.445 -0.2280  0.3501  0.6141
 6352TIP3   OH240546   3.833   1.340  24.973  0.1466 -0.0572 -0.2761
 6352TIP3    H140547   3.833   1.254  25.016  1.6491 -0.4827 -1.0620
 6352TIP3    H240548   3.788   1.325  24.890 -1.9990  0.5723  0.7048
 6353TIP3   OH240549   2.967   1.787  38.732  0.2675  0.2816  0.6742
 6353TIP3    H140550   3.017   1.716  38.773  1.6706  1.9339  2.0037
 6353TIP3    H240551   2.989   1.783  38.639  1.1158 -0.4067  0.8998
 6354TIP3   OH240552   3.122   1.001  30.584 -0.0462 -0.1873  0.1107
 6354TIP3    H140553   3.128   1.080  30.530 -2.2498  0.8559  1.1996
 6354TIP3    H240554   3.100   1.035  30.672  2.5799 -1.8427  1.5289
 6355TIP3   OH240555   3.511   1.983  24.146 -0.3657 -0.3086  0.2913
 6355TIP3    H140556   3.483   1.908  24.093 -0.2218  1.2438 -2.1025
 6355TIP3    H240557   3.607   1.980  24.143 -0.3031 -0.9319  1.6479
 6356TIP3   OH240558   3.673   2.472  24.005  0.0020 -0.0653 -0.1018
 6356TIP3    H140559   3.707   2.483  23.916 -0.3701  0.1094 -0.2207
 6356TIP3    H240560   3.621   2.391  24.000 -0.6997  0.3849 -0.2503
 6357TIP3   OH240561   1.245   3.131  31.871 -0.7960  0.5446  0.4809
 6357TIP3    H140562   1.226   3.221  31.845  1.3868  1.6559  2.3886
 6357TIP3    H240563   1.241   3.131  31.966  1.3720 -0.7894  0.6514
 6358TIP3   OH240564   3.271   3.043   3.086  0.1709  0.1208  0.5436
 6358TIP3    H140565   3.278   2.984   3.010  0.0375 -0.0906  0.6957
 6358TIP3    H240566   3.350   3.098   3.080 -0.3969  0.8722 -0.3949
 6359TIP3   OH240567   1.190   1.863  28.607  0.6216 -0.2569  0.2345
 6359TIP3    H140568   1.109   1.899  28.571  0.5295 -0.0128  0.6843
 6359TIP3    H240569   1.243   1.841  28.529 -0.6564 -2.3173 -0.1438
 6360TIP3   OH240570   1.443   2.536   0.325  0.2628 -0.3955  0.2125
 6360TIP3    H140571   1.410   2.598   0.260 -0.4241 -0.2174  0.7310
 6360TIP3    H240572   1.495   2.589   0.385 -0.5950 -0.2514  0.8459
 6361TIP3   OH240573   2.180   2.990  12.406 -0.0080  0.6979 -0.3585
 6361TIP3    H140574   2.249   2.948  12.458  0.7998  0.1104 -1.8601
 6361TIP3    H240575   2.226   3.053  12.351 -0.6494  0.2676 -1.4181
 6362TIP3   OH240576   4.394   3.655   1.605  0.6036 -0.0543  0.2809
 6362TIP3    H140577   4.368   3.741   1.635 -0.9373  0.0945 -1.2684
 6362TIP3    H240578   4.476   3.669   1.558 -0.0837  0.7667 -0.7283
 6363TIP3   OH240579   3.369   2.182   6.326  0.2175 -0.6287  0.2442
 6363TIP3    H140580   3.348   2.165   6.418 -2.7682 -1.6949 -0.4977
 6363TIP3    H240581   3.378   2.095   6.287 -1.2554 -0.3139 -0.9281
 6364TIP3   OH240582   1.495   3.137   6.418 -0.2487  0.3179  0.3752
 6364TIP3    H140583   1.400   3.147   6.419 -0.3184 -0.0551  2.3257
 6364TIP3    H240584   1.517   3.116   6.327 -2.3155 -2.0731  0.3268
 6365TIP3   OH240585   1.924   2.450   5.619  0.3368  0.2601  0.0350
 6365TIP3    H140586   1.850   2.487   5.569  1.2794  1.9512 -0.1881
 6365TIP3    H240587   1.984   2.418   5.552 -0.0584 -0.8973  0.2122
 6366TIP3   OH240588   2.806   2.454  35.011 -0.1473  0.2226  0.2901
 6366TIP3    H140589   2.848   2.470  35.096 -0.0032  0.4078  0.1843
 6366TIP3    H240590   2.789   2.360  35.011  2.1989 -0.2815 -0.5179
 6367TIP3   OH240591   2.425   0.489  41.463  0.0579  0.3524 -0.1545
 6367TIP3    H140592   2.365   0.444  41.522  0.5719 -1.3986 -0.8757
 6367TIP3    H240593   2.386   0.574  41.448 -1.6660 -0.3219  0.2732
 6368TIP3   OH240594   0.954   2.189   9.241 -0.1579  0.4800  0.3521
 6368TIP3    H140595   0.878   2.235   9.205  0.7926  1.8184 -0.0343
 6368TIP3    H240596   0.927   2.097   9.246 -1.7112  0.8885  0.0210
 6369TIP3   OH240597   4.146   2.044   0.483 -0.0670  0.1805  0.6317
 6369TIP3    H140598   4.159   2.135   0.456 -0.9466  0.3752  0.8392
 6369TIP3    H240599   4.114   2.000   0.405 -0.3848  0.2253  0.7351
 6370TIP3   OH240600   3.334   3.923   3.859 -0.5681  0.0954  0.2314
 6370TIP3    H140601   3.291   3.888   3.937  0.4337  0.6909  1.0754
 6370TIP3    H240602   3.369   4.007   3.886 -0.6150  0.5347 -1.0102
 6371TIP3   OH240603   0.471   3.638  12.788 -0.1971 -0.6299 -0.4084
 6371TIP3    H140604   0.499   3.547  12.781  0.7653 -0.3099 -1.0189
 6371TIP3    H240605   0.474   3.671  12.698  0.0244  0.1533 -0.1257
 6372TIP3   OH240606   0.056   1.044  28.826 -0.3718 -0.1407  0.4963
 6372TIP3    H140607   0.138   1.066  28.871 -0.9917  0.5084  1.3532
 6372TIP3    H240608   0.030   1.126  28.784 -0.3145 -0.4834 -0.2043
 6373TIP3   OH240609   2.606   2.804  27.806 -0.6849  1.2269 -0.0128
 6373TIP3    H140610   2.545   2.772  27.740  0.8401  0.4638 -1.1211
 6373TIP3    H240611   2.610   2.735  27.872  1.3946 -0.2892 -1.6002
 6374TIP3   OH240612   3.826   2.290   4.560 -0.2812  0.3836  0.6481
 6374TIP3    H140613   3.824   2.205   4.517 -0.8484  0.3517  0.7315
 6374TIP3    H240614   3.862   2.349   4.494 -0.9676  0.2978  0.1975
 6375TIP3   OH240615   2.857   3.542   0.187  0.7830  0.4117 -0.6014
 6375TIP3    H140616   2.853   3.446   0.178 -3.1701  0.2591  1.0791
 6375TIP3    H240617   2.875   3.556   0.280  0.7966  1.3030 -0.7335
 6376TIP3   OH240618   2.258   2.400   1.794 -0.0211 -0.0944 -0.4547
 6376TIP3    H140619   2.274   2.358   1.879  0.8303  1.0900 -0.0051
 6376TIP3    H240620   2.276   2.331   1.730 -0.2224 -0.8749  0.3017
 6377TIP3   OH240621   2.461   3.658  37.900  0.6854  0.4309 -0.1402
 6377TIP3    H140622   2.416   3.577  37.921  1.4424 -0.1326 -0.6426
 6377TIP3    H240623   2.392   3.718  37.871 -0.1044  0.5260  1.7825
 6378TIP3   OH240624   0.615   2.203  26.742  0.4480  0.0243  0.1704
 6378TIP3    H140625   0.568   2.138  26.691 -2.5104  1.8329  0.3394
 6378TIP3    H240626   0.617   2.168  26.831  0.6397 -0.6787 -0.1093
 6379TIP3   OH240627   2.456   1.831   4.748 -0.3484 -0.0413 -0.0745
 6379TIP3    H140628   2.439   1.762   4.684 -1.7787  0.2490 -0.0516
 6379TIP3    H240629   2.521   1.794   4.807  0.3747 -0.6165 -1.2014
 6380TIP3   OH240630   1.868   1.002   3.534 -0.3485  0.7405 -0.0330
 6380TIP3    H140631   1.834   0.994   3.445 -0.9397  1.1845  0.1432
 6380TIP3    H240632   1.918   1.084   3.533 -2.0205  1.8146  0.5411
 6381TIP3   OH240633   2.033   1.701   7.696  0.4264  0.2649  0.0655
 6381TIP3    H140634   2.055   1.657   7.778 -2.7832 -0.7278  0.5362
 6381TIP3    H240635   2.011   1.790   7.722 -0.9784 -0.1583  0.3978
 6382TIP3   OH240636   1.570   0.679  31.233  0.6376 -0.1802  0.2989
 6382TIP3    H140637   1.489   0.687  31.183  1.6061  0.1626 -1.3042
 6382TIP3    H240638   1.542   0.667  31.323 -1.1807  1.5570  0.0232
 6383TIP3   OH240639   2.743   2.048  32.041  0.1521 -0.2066  0.0765
 6383TIP3    H140640   2.769   2.015  31.955 -3.7389 -0.8963 -1.0352
 6383TIP3    H240641   2.711   2.136  32.025 -2.7645 -1.1289  0.2086
 6384TIP3   OH240642   1.140   0.754   7.787  0.5607  0.0418  0.3739
 6384TIP3    H140643   1.072   0.822   7.784 -0.2299 -0.6533  1.4399
 6384TIP3    H240644   1.162   0.746   7.880  0.5824 -1.1933  0.2845
 6385TIP3   OH240645   1.345   0.725  39.841 -0.1193 -0.1157  0.1389
 6385TIP3    H140646   1.391   0.767  39.913  1.1132 -0.8318 -0.1978
 6385TIP3    H240647   1.362   0.781  39.765 -2.9223  1.6602  0.6563
 6386TIP3   OH240648   0.317   2.433  41.050  0.0402 -0.4143 -0.1232
 6386TIP3    H140649   0.229   2.425  41.014  0.0983  1.0763 -0.6733
 6386TIP3    H240650   0.342   2.524  41.031  2.4585 -1.3227 -1.7427
 6387TIP3   OH240651   1.106   2.442  27.646 -0.6376  0.1693 -0.1347
 6387TIP3    H140652   1.122   2.534  27.625 -0.3933  0.3809  0.9102
 6387TIP3    H240653   1.012   2.438  27.664 -0.3591  0.6251  1.6216
 6388TIP3   OH240654   2.439   3.502  10.266  0.4684  0.6818  0.1046
 6388TIP3    H140655   2.361   3.515  10.213  0.6579 -1.1834 -0.7192
 6388TIP3    H240656   2.412   3.438  10.333  1.9092 -2.3114 -1.9345
 6389TIP3   OH240657   3.567   3.225  39.168  0.1723  0.0166  0.1185
 6389TIP3    H140658   3.500   3.266  39.113  1.5878  3.4323  0.6742
 6389TIP3    H240659   3.592   3.146  39.121 -0.6802  1.3031 -2.7099
 6390TIP3   OH240660   1.964   3.458   0.460 -0.4298  0.6121 -0.1982
 6390TIP3    H140661   1.912   3.470   0.381 -1.9339 -0.5073  0.5663
 6390TIP3    H240662   1.976   3.364   0.467  0.1481  0.7351  0.6159
 6391TIP3   OH240663   2.471   4.033   0.185 -0.5257 -0.6088 -0.0509
 6391TIP3    H140664   2.501   4.097   0.249 -0.4109 -0.8986  0.1897
 6391TIP3    H240665   2.543   3.970   0.178 -0.4850 -0.5096 -0.5637
 6392TIP3   OH240666   3.627   1.772  34.836  0.8072  0.7835 -0.4554
 6392TIP3    H140667   3.585   1.753  34.920 -1.2148 -1.7643 -1.9234
 6392TIP3    H240668   3.583   1.852  34.806 -0.0560  0.4725 -0.0693
 6393TIP3   OH240669   3.377   3.267   1.874 -0.6019 -0.4705 -0.6332
 6393TIP3    H140670   3.431   3.239   1.947 -1.2977 -1.0687 -0.3413
 6393TIP3    H240671   3.371   3.362   1.883  0.6525 -0.3572 -0.8561
 6394TIP3   OH240672   3.429   0.754  41.353 -0.6109 -0.1655 -0.5240
 6394TIP3    H140673   3.364   0.756  41.423  0.8829 -1.3486  0.9955
 6394TIP3    H240674   3.449   0.846  41.334 -0.4989  0.1910  1.1854
 6395TIP3   OH240675   1.542   0.595   1.951 -0.1845  0.2706 -0.5525
 6395TIP3    H140676   1.622   0.589   1.900 -0.1123 -1.7201 -0.2920
 6395TIP3    H240677   1.553   0.673   2.005  0.9248  0.8479 -1.5851
 6396TIP3   OH240678   2.131   0.608  16.721  0.0860  0.2160 -0.1035
 6396TIP3    H140679   2.112   0.515  16.717 -0.0364  0.1607  1.2508
 6396TIP3    H240680   2.175   0.627  16.639 -1.2815 -0.6968 -1.1035
 6397TIP3   OH240681   4.291   2.479  35.198 -0.1164  0.0151  0.3872
 6397TIP3    H140682   4.209   2.443  35.166 -0.2543  0.2778  0.4471
 6397TIP3    H240683   4.351   2.404  35.199 -0.9831 -0.7494  2.6000
 6398TIP3   OH240684   0.061   3.260  37.231  0.4221  0.0350 -0.2889
 6398TIP3    H140685   0.123   3.203  37.185  0.2852 -2.0183  1.8404
 6398TIP3    H240686   0.117   3.319  37.282  0.5814  2.5869 -3.1344
 6399TIP3   OH240687   0.264   0.600   6.000 -0.5256  0.4993  0.0659
 6399TIP3    H140688   0.193   0.664   6.002 -0.4062  0.6239  0.3289
 6399TIP3    H240689   0.335   0.642   6.049 -0.2148  0.4459 -0.3302
 6400TIP3   OH240690   4.284   2.988  41.364 -0.2254  0.2869 -0.0704
 6400TIP3    H140691   4.373   3.021  41.373  0.1000 -0.3402 -0.8629
 6400TIP3    H240692   4.239   3.052  41.310 -0.2910  0.6492  0.4039
 6401TIP3   OH240693   3.916   3.856   6.427 -0.4552 -0.2397  0.1497
 6401TIP3    H140694   3.921   3.890   6.516 -0.4169 -0.1229  0.1033
 6401TIP3    H240695   3.826   3.873   6.400 -0.4514 -0.2238  0.1471
 6402TIP3   OH240696   0.291   3.596  38.591 -0.3814  0.2756  0.4590
 6402TIP3    H140697   0.279   3.507  38.624 -2.3325  1.0054  1.8908
 6402TIP3    H240698   0.379   3.621  38.620  0.2645 -1.2131 -0.1229
 6403TIP3   OH240699   2.145   4.397  12.500  0.0303 -0.1888 -0.0354
 6403TIP3    H140700   2.194   4.346  12.565  0.2445 -0.1464 -0.1623
 6403TIP3    H240701   2.197   4.477  12.489  0.4013 -0.5277 -0.8204
 6404TIP3   OH240702   1.593   4.295  18.676 -0.4573 -0.2799  0.1051
 6404TIP3    H140703   1.566   4.375  18.722 -0.5719 -0.7427  0.8717
 6404TIP3    H240704   1.670   4.265  18.724  1.9468  1.3641 -2.4495
 6405TIP3   OH240705   2.399   4.265  39.383  0.4944 -0.5137  0.1688
 6405TIP3    H140706   2.405   4.308  39.468 -1.0813  0.4112 -0.1536
 6405TIP3    H240707   2.400   4.171  39.404  1.4269 -0.3243  1.0726
 6406TIP3   OH240708   4.139   3.208  32.066 -0.0571 -0.0909 -0.4617
 6406TIP3    H140709   4.118   3.287  32.115 -2.0314 -0.7181 -0.2050
 6406TIP3    H240710   4.231   3.190  32.088  0.1411  1.5756  0.2096
 6407TIP3   OH240711   0.349   1.613   1.415  0.5599  0.1129  0.7169
 6407TIP3    H140712   0.392   1.560   1.348 -0.7075  1.4914 -1.2954
 6407TIP3    H240713   0.418   1.669   1.449  1.2833 -0.7928  0.8038
 6408TIP3   OH240714   2.189   1.414  33.683 -0.6549 -0.3401 -0.1409
 6408TIP3    H140715   2.196   1.349  33.753 -1.3817 -1.6574 -1.2405
 6408TIP3    H240716   2.262   1.395  33.624  0.0876  0.9020  0.3463
 6409TIP3   OH240717   2.034   0.258  13.098 -0.1946 -0.1887 -0.4826
 6409TIP3    H140718   2.116   0.307  13.108  0.3146 -1.1876  0.5673
 6409TIP3    H240719   2.045   0.182  13.156 -1.3967 -0.9568 -1.2247
 6410TIP3   OH240720   0.366   0.675  12.607  0.5393 -0.7516 -0.0163
 6410TIP3    H140721   0.426   0.693  12.535 -0.2055  0.2587 -0.4045
 6410TIP3    H240722   0.341   0.583  12.595 -0.7733 -0.1920 -1.9777
 6411TIP3   OH240723   3.900   1.761  32.537  0.4856  0.2761 -0.4574
 6411TIP3    H140724   3.969   1.696  32.552  0.4557  0.1952 -0.6704
 6411TIP3    H240725   3.819   1.711  32.536  0.6161  0.0216 -2.5799
 6412TIP3   OH240726   3.778   3.758  30.803  0.5757 -0.7630  0.0310
 6412TIP3    H140727   3.817   3.694  30.862  1.4828 -1.2037 -1.0011
 6412TIP3    H240728   3.748   3.706  30.728 -1.4827 -0.3546  0.5144
 6413TIP3   OH240729   1.464   0.909  31.454 -0.0465 -0.7639 -0.0741
 6413TIP3    H140730   1.537   0.962  31.425  0.3861 -0.8790  0.7653
 6413TIP3    H240731   1.504   0.828  31.487 -0.2058  0.2511  2.9924
 6414TIP3   OH240732   3.359   3.433  40.012  0.9096  0.6493  0.2186
 6414TIP3    H140733   3.318   3.449  39.928  2.1128 -0.7948 -0.6780
 6414TIP3    H240734   3.427   3.501  40.018 -0.2206  1.7735  0.8053
 6415TIP3   OH240735   0.267   3.029  13.332  0.2300  0.5617  0.3378
 6415TIP3    H140736   0.257   2.943  13.374  0.4502  1.0294  1.3957
 6415TIP3    H240737   0.178   3.057  13.312 -0.0524  1.0299  2.0272
 6416TIP3   OH240738   1.080   2.528  35.457  0.3481 -0.2309 -0.3070
 6416TIP3    H140739   1.080   2.623  35.465 -2.1526 -0.3289  2.5581
 6416TIP3    H240740   1.121   2.496  35.537  3.1070 -1.6974 -2.1336
 6417TIP3   OH240741   1.270   0.541  15.204 -0.5990  0.6097  0.2854
 6417TIP3    H140742   1.246   0.546  15.111 -0.7604 -0.5461  0.2541
 6417TIP3    H240743   1.241   0.455  15.232  0.5165  0.4872  1.1179
 6418TIP3   OH240744   1.871   4.179  13.044  0.1587  0.2817 -0.6291
 6418TIP3    H140745   1.797   4.120  13.025 -1.0579  1.7882 -0.7748
 6418TIP3    H240746   1.846   4.262  13.003  0.8359  1.5192  1.3591
 6419TIP3   OH240747   2.047   3.136  38.131 -0.0366  0.1178 -0.9589
 6419TIP3    H140748   2.103   3.080  38.078  2.9113  2.4373 -0.5977
 6419TIP3    H240749   2.070   3.115  38.221  0.4170  1.1564 -0.8062
 6420TIP3   OH240750   4.100   3.488  39.737  0.5876  0.0638 -0.5304
 6420TIP3    H140751   4.091   3.561  39.676 -0.7403  0.9238  0.6188
 6420TIP3    H240752   4.193   3.486  39.759  0.9520  0.2126 -1.9836
 6421TIP3   OH240753   2.567   0.367  36.150  0.6073 -0.1651  0.0326
 6421TIP3    H140754   2.488   0.317  36.170 -0.6436  1.9106  0.7105
 6421TIP3    H240755   2.534   0.455  36.131  2.7852  0.8062  0.5112
 6422TIP3   OH240756   0.011   2.338  26.278 -0.3166  0.1753  0.2100
 6422TIP3    H140757  -0.008   2.296  26.194  3.3361  0.3010 -0.8163
 6422TIP3    H240758   0.079   2.284  26.318 -0.0217  1.6478  1.8106
 6423TIP3   OH240759   4.306   1.702   2.132  0.4285  0.7322  0.3403
 6423TIP3    H140760   4.238   1.658   2.081  0.4644  1.2980 -0.2112
 6423TIP3    H240761   4.273   1.792   2.143  0.6690  0.7590  0.8473
 6424TIP3   OH240762   3.747   0.463  36.182  0.1411  0.2792 -0.3787
 6424TIP3    H140763   3.699   0.530  36.134 -1.8862  0.0348  1.1809
 6424TIP3    H240764   3.736   0.383  36.130  0.1401  0.5412 -0.7872
 6425TIP3   OH240765   2.015   3.091  41.413 -0.2800 -0.4742 -0.0461
 6425TIP3    H140766   2.070   3.078  41.336  0.2461  0.9328  0.0570
 6425TIP3    H240767   1.995   3.184  41.413 -2.4535 -0.8931  0.0965
 6426TIP3   OH240768   1.824   0.516  34.573 -0.5279 -0.6427  0.4488
 6426TIP3    H140769   1.787   0.600  34.603  0.0728 -0.7029  1.3910
 6426TIP3    H240770   1.880   0.540  34.498 -1.7230 -0.4388 -0.4148
 6427TIP3   OH240771   2.748   0.635   7.346 -0.3240  0.4399 -0.1594
 6427TIP3    H140772   2.679   0.700   7.331 -0.3256  0.7049  0.9399
 6427TIP3    H240773   2.719   0.558   7.297 -2.9243 -0.5003  2.5516
 6428TIP3   OH240774   1.024   1.487  29.671 -0.2206  0.3993  0.2870
 6428TIP3    H140775   1.054   1.487  29.580 -1.0836  1.9562 -0.0360
 6428TIP3    H240776   0.942   1.437  29.670  0.1860 -0.2774  0.3729
 6429TIP3   OH240777   1.542   0.553   9.201 -0.2172  0.8411  0.1596
 6429TIP3    H140778   1.554   0.534   9.108 -1.0569  4.0948 -0.7667
 6429TIP3    H240779   1.620   0.604   9.225  0.7949 -1.3204  1.7604
 6430TIP3   OH240780   3.937   3.503  24.247 -0.1431  0.0118  0.0415
 6430TIP3    H140781   3.911   3.446  24.319 -0.3746 -0.3526 -0.3192
 6430TIP3    H240782   3.870   3.572  24.245  1.0574  1.2697  1.5373
 6431TIP3   OH240783   0.273   0.516   4.968 -0.5850  0.7065  0.2247
 6431TIP3    H140784   0.342   0.450   4.960 -2.5613 -1.6958  1.6317
 6431TIP3    H240785   0.291   0.559   5.051  1.6420  3.2998 -1.4068
 6432TIP3   OH240786   2.742   2.710  32.742  0.3909 -0.1090 -0.1012
 6432TIP3    H140787   2.685   2.643  32.703  0.4174 -1.3724  1.9065
 6432TIP3    H240788   2.681   2.774  32.779  0.3553  0.2791 -0.8022
 6433TIP3   OH240789   0.831   4.271   6.260  0.7406  0.0182 -0.2553
 6433TIP3    H140790   0.894   4.199   6.271 -0.1693 -0.5531  1.5826
 6433TIP3    H240791   0.870   4.326   6.192  3.0832 -0.4903  0.5815
 6434TIP3   OH240792   3.496   3.547   8.260  0.3144  0.3537  0.1450
 6434TIP3    H140793   3.455   3.618   8.210 -0.4159 -1.0986 -1.4252
 6434TIP3    H240794   3.428   3.517   8.320 -0.4199 -0.8540 -1.2031
 6435TIP3   OH240795   1.831   4.161   8.067  0.0288 -0.1880 -0.3923
 6435TIP3    H140796   1.830   4.098   7.995  0.3942  0.5634 -1.0574
 6435TIP3    H240797   1.923   4.179   8.082 -0.0899  2.0526 -1.8727
 6436TIP3   OH240798   0.594   1.714   8.303  0.0238  0.0549 -0.1245
 6436TIP3    H140799   0.675   1.700   8.254  0.5054 -0.2422  0.7356
 6436TIP3    H240800   0.594   1.645   8.370  0.2242  1.4169  1.3446
 6437TIP3   OH240801   1.628   4.089  28.385  0.2370  0.3316 -0.6265
 6437TIP3    H140802   1.652   4.075  28.476 -2.3322  1.0136  0.2544
 6437TIP3    H240803   1.627   4.184  28.374 -3.1100  0.4811 -0.1333
 6438TIP3   OH240804   3.377   1.933   4.526  0.7151 -0.6394  0.4797
 6438TIP3    H140805   3.430   2.009   4.550 -0.4556  0.3722  0.0049
 6438TIP3    H240806   3.319   1.920   4.601 -0.2362  0.0292 -0.1093
 6439TIP3   OH240807   1.712   3.705   1.314 -0.3344  0.4427  0.0572
 6439TIP3    H140808   1.695   3.685   1.406 -0.3507  0.8481  0.1434
 6439TIP3    H240809   1.779   3.642   1.288  0.3786  0.9565  0.6190
 6440TIP3   OH240810   1.413   0.569  12.435 -0.3474  0.0022 -0.3083
 6440TIP3    H140811   1.404   0.663  12.446 -0.6550  0.0498 -0.9508
 6440TIP3    H240812   1.418   0.534  12.524  1.7860  0.8097 -0.0404
 6441TIP3   OH240813   0.207   2.029   3.249 -0.1562 -0.2162  0.0676
 6441TIP3    H140814   0.229   1.990   3.165 -0.3723  0.4455 -0.3011
 6441TIP3    H240815   0.284   2.014   3.304  0.7931  1.0572 -0.8486
 6442TIP3   OH240816   3.091   2.746  27.967 -0.1540  0.0584  0.1579
 6442TIP3    H140817   2.996   2.738  27.957 -0.1179  0.4671 -0.5285
 6442TIP3    H240818   3.108   2.840  27.966  0.3975 -0.0361 -1.1295
 6443TIP3   OH240819   2.425   2.099  27.898  0.2628 -0.0915  0.4112
 6443TIP3    H140820   2.345   2.073  27.944 -0.1451  0.9698  0.3258
 6443TIP3    H240821   2.473   2.017  27.885  1.3669 -0.3054  4.4514
 6444TIP3   OH240822   4.357   2.158  31.373 -0.5752 -0.3392  0.0681
 6444TIP3    H140823   4.414   2.106  31.429 -1.1584 -0.1639  0.8392
 6444TIP3    H240824   4.300   2.206  31.433  0.6647  2.0679 -0.5542
 6445TIP3   OH240825   0.369   3.515  24.926  0.1436  0.3091  0.2530
 6445TIP3    H140826   0.296   3.577  24.931  0.3517  0.8447 -2.1351
 6445TIP3    H240827   0.395   3.515  24.834  1.2394 -2.1234  0.4668
 6446TIP3   OH240828   2.054   1.835   2.390  0.2831 -0.6628  0.4884
 6446TIP3    H140829   1.985   1.802   2.447  0.2403  0.4747  1.1196
 6446TIP3    H240830   2.121   1.868   2.451  0.0927  0.8627 -0.0828
 6447TIP3   OH240831   2.634   3.377   4.244  0.6354 -0.0994 -0.6493
 6447TIP3    H140832   2.669   3.315   4.308  1.8706  2.2344  1.1156
 6447TIP3    H240833   2.543   3.390   4.271  1.1245  0.8103  0.6661
 6448TIP3   OH240834   3.844   3.637   8.864  0.2730 -0.2468 -0.3380
 6448TIP3    H140835   3.811   3.724   8.845  0.3972 -0.5399 -2.0736
 6448TIP3    H240836   3.829   3.625   8.958 -1.8756  0.7371 -0.5058
 6449TIP3   OH240837   4.120   4.223  30.816 -0.6312  0.2658  0.0688
 6449TIP3    H140838   4.188   4.157  30.803 -1.5610 -0.5595 -0.7843
 6449TIP3    H240839   4.164   4.306  30.803  0.3530 -0.2251  0.1811
 6450TIP3   OH240840   2.875   2.695  40.800 -0.3488  0.9927  0.4941
 6450TIP3    H140841   2.903   2.772  40.848  0.3518 -0.1775  2.0425
 6450TIP3    H240842   2.787   2.677  40.832 -0.7552  1.4566 -0.3079
 6451TIP3   OH240843   1.160   0.095  37.592  0.3166  0.0403  0.9649
 6451TIP3    H140844   1.103   0.167  37.565  0.4731  0.2660  1.2306
 6451TIP3    H240845   1.101   0.022  37.608  0.3517 -0.7319 -1.8792
 6452TIP3   OH240846   1.045   3.834   0.999 -0.3397  0.1845  0.5971
 6452TIP3    H140847   1.019   3.846   0.907  1.4886  1.0650  0.1510
 6452TIP3    H240848   0.992   3.761   1.030 -2.2562  0.9688 -0.6352
 6453TIP3   OH240849   2.382   3.538   6.439 -0.1981 -0.0521  0.3331
 6453TIP3    H140850   2.361   3.480   6.512  2.4467 -0.9830  0.4763
 6453TIP3    H240851   2.318   3.517   6.372 -0.7538 -1.4485  1.2540
 6454TIP3   OH240852   3.018   2.787   9.819 -0.0419 -0.0554 -0.5641
 6454TIP3    H140853   3.069   2.791   9.900 -1.8605  0.0193  0.6300
 6454TIP3    H240854   2.935   2.747   9.845 -1.3053  1.4703 -2.0473
 6455TIP3   OH240855   3.306   0.970  29.830  0.0096  0.0155 -0.3886
 6455TIP3    H140856   3.285   1.041  29.770  1.0502  0.3577 -0.3718
 6455TIP3    H240857   3.225   0.954  29.878 -0.0515  1.7308  0.1586
 6456TIP3   OH240858   0.725   0.420  37.931 -0.0426 -0.2634 -0.0300
 6456TIP3    H140859   0.790   0.370  37.981  0.9244  1.7738  0.8628
 6456TIP3    H240860   0.714   0.501  37.981  0.4120  1.5548 -2.6973
 6457TIP3   OH240861   4.078   1.227  37.791  0.4629 -0.1208 -0.2043
 6457TIP3    H140862   4.158   1.204  37.838  0.5164 -2.0514 -1.1378
 6457TIP3    H240863   4.100   1.307  37.743  1.1073  0.6031  1.2336
 6458TIP3   OH240864   1.208   3.244   9.516 -0.0510  0.3198  0.4647
 6458TIP3    H140865   1.210   3.336   9.490  1.9675  1.0517  2.7779
 6458TIP3    H240866   1.158   3.244   9.597 -0.1213 -0.6489  0.4269
 6459TIP3   OH240867   2.396   3.454  39.268 -0.2447  0.2787  0.1027
 6459TIP3    H140868   2.302   3.439  39.268 -0.1446 -0.4054  1.2213
 6459TIP3    H240869   2.417   3.479  39.358  0.7709 -0.4852  0.0977
 6460TIP3   OH240870   0.241   3.920  33.624  0.1560  0.6154  0.2819
 6460TIP3    H140871   0.230   4.010  33.596  0.3941  1.0881  1.6358
 6460TIP3    H240872   0.291   3.925  33.705 -0.6561 -0.6479  0.9106
 6461TIP3   OH240873   1.440   1.223  13.204  0.0801  0.2186  0.4768
 6461TIP3    H140874   1.395   1.154  13.156  0.2959 -0.6430  1.4949
 6461TIP3    H240875   1.460   1.289  13.137 -0.3276 -0.5845 -0.4632
 6462TIP3   OH240876   1.008   3.035   9.682 -0.0428 -0.5940  0.1019
 6462TIP3    H140877   1.062   2.982   9.624 -1.1676 -0.4675 -1.1367
 6462TIP3    H240878   0.958   2.972   9.734 -1.0262 -0.7767 -1.0283
 6463TIP3   OH240879   3.752   1.380   1.491 -0.0162  0.3239 -0.0064
 6463TIP3    H140880   3.713   1.448   1.545  0.9524  0.9196 -0.0290
 6463TIP3    H240881   3.845   1.379   1.517  0.0704 -0.6879 -0.3127
 6464TIP3   OH240882   3.635   1.287  34.875  0.6921  0.0162 -0.2533
 6464TIP3    H140883   3.717   1.306  34.829  1.2070  0.0116  0.6427
 6464TIP3    H240884   3.610   1.370  34.915 -0.1330  0.1968 -1.0982
 6465TIP3   OH240885   0.698   1.020  34.966 -0.5244  0.4649  0.5199
 6465TIP3    H140886   0.701   1.116  34.972 -0.2379  0.4449  0.7147
 6465TIP3    H240887   0.702   0.990  35.057  0.3657  0.2479  0.4239
 6466TIP3   OH240888   1.705   3.101  31.085 -0.3111  0.1341 -0.2271
 6466TIP3    H140889   1.698   3.031  31.021  1.4901  0.9306 -1.3869
 6466TIP3    H240890   1.789   3.144  31.065  0.2838  0.5013  2.5780
 6467TIP3   OH240891   2.554   3.080   5.811 -0.3505  0.2558  0.1056
 6467TIP3    H140892   2.550   3.146   5.742  0.5485  1.0315  0.7873
 6467TIP3    H240893   2.634   3.100   5.860 -0.9269 -0.3306  1.3303
 6468TIP3   OH240894   1.600   1.310  35.540  0.1576 -0.1403  0.0262
 6468TIP3    H140895   1.538   1.239  35.520 -0.9919  0.8006  0.1533
 6468TIP3    H240896   1.617   1.300  35.634  1.8230 -1.6286 -0.3781
 6469TIP3   OH240897   3.498   2.126   7.104 -0.2014  0.2030  0.1585
 6469TIP3    H140898   3.541   2.199   7.060  1.8506 -0.8041  0.3334
 6469TIP3    H240899   3.521   2.137   7.196 -0.2834 -0.3740  0.2533
 6470TIP3   OH240900   0.024   2.589  21.756  0.6501 -0.4359  0.0988
 6470TIP3    H140901   0.102   2.536  21.739 -0.4711 -1.8594 -0.9172
 6470TIP3    H240902   0.003   2.629  21.672 -0.1880 -0.7842  0.1237
 6471TIP3   OH240903   1.275   3.441   1.667  0.3960  0.3562 -0.0551
 6471TIP3    H140904   1.243   3.366   1.618 -1.2249  0.6035  0.5684
 6471TIP3    H240905   1.198   3.495   1.683  0.5931 -0.1368  3.4667
 6472TIP3   OH240906   0.398   0.044  34.098 -0.0185  0.1214  0.3425
 6472TIP3    H140907   0.423  -0.037  34.054 -0.4209 -1.1476  2.3109
 6472TIP3    H240908   0.367   0.016  34.184  0.1289  2.4064  1.2186
 6473TIP3   OH240909   4.226   2.106  39.187 -0.3566 -0.2569 -0.3219
 6473TIP3    H140910   4.147   2.083  39.138 -2.0941  1.3797  1.5373
 6473TIP3    H240911   4.274   2.024  39.195 -2.0325 -1.3852 -1.2105
 6474TIP3   OH240912   0.716   0.669   7.357 -0.3121 -0.1425  0.6467
 6474TIP3    H140913   0.692   0.612   7.284  0.9654 -0.4823  0.4636
 6474TIP3    H240914   0.717   0.611   7.433 -1.7687  0.2361  0.9941
 6475TIP3   OH240915   1.414   1.929  17.293  0.3502  0.7518  0.5540
 6475TIP3    H140916   1.376   1.841  17.301  0.3374  0.6435 -0.5386
 6475TIP3    H240917   1.343   1.989  17.315  0.4289  0.5033  1.5665
 6476TIP3   OH240918   1.569   1.209  33.584 -0.0372 -0.4882  0.2881
 6476TIP3    H140919   1.481   1.217  33.620  0.2313 -1.6115  1.2512
 6476TIP3    H240920   1.586   1.115  33.582  0.3728 -0.4160 -1.8395
 6477TIP3   OH240921   2.390   2.917  34.289 -0.1353 -0.1008  0.3480
 6477TIP3    H140922   2.318   2.980  34.294 -1.4767 -1.3030 -1.8393
 6477TIP3    H240923   2.443   2.948  34.216 -1.4692 -1.9984 -1.5472
 6478TIP3   OH240924   1.851   2.487  16.652 -0.0406 -0.4352 -0.2988
 6478TIP3    H140925   1.809   2.573  16.662  1.0635  0.0318  0.6163
 6478TIP3    H240926   1.798   2.442  16.586 -2.7181 -0.3819  1.6471
 6479TIP3   OH240927   2.298   2.211  39.686 -0.0497 -0.1033  0.1068
 6479TIP3    H140928   2.331   2.128  39.719  0.5943 -0.0144 -0.2921
 6479TIP3    H240929   2.371   2.272  39.698 -0.4872  0.3882  0.3214
 6480TIP3   OH240930   1.594   1.113  10.002 -0.3673  0.2068 -0.4707
 6480TIP3    H140931   1.688   1.097   9.998 -0.5730 -1.2277 -0.0995
 6480TIP3    H240932   1.555   1.039   9.955 -1.3403  0.4982 -0.1511
 6481TIP3   OH240933   0.891   2.428   4.466  0.3404  0.5561 -0.3731
 6481TIP3    H140934   0.973   2.435   4.515 -0.4883  0.9533  0.9890
 6481TIP3    H240935   0.830   2.388   4.527 -0.5211  0.3443 -1.3504
 6482TIP3   OH240936   0.015   2.028   0.959 -0.6725 -0.2568 -0.5393
 6482TIP3    H140937   0.082   2.090   0.928 -0.5143 -0.0462  0.2040
 6482TIP3    H240938  -0.068   2.065   0.930 -0.5118 -0.1713 -0.8891
 6483TIP3   OH240939   1.136   2.683  32.896  0.5816 -0.0143  0.0148
 6483TIP3    H140940   1.106   2.643  32.814  0.7952 -0.9932  0.3963
 6483TIP3    H240941   1.128   2.612  32.961  0.4927  0.7213  0.8202
 6484TIP3   OH240942   2.562   3.383  29.169 -0.4460 -0.3972 -0.3156
 6484TIP3    H140943   2.504   3.453  29.139 -1.8397 -1.7162 -0.8338
 6484TIP3    H240944   2.643   3.428  29.195 -1.3213  1.3920 -0.5373
 6485TIP3   OH240945   0.902   0.102   6.821 -0.1070 -0.1016  0.2435
 6485TIP3    H140946   0.910   0.088   6.726  2.3397  0.4712  0.3061
 6485TIP3    H240947   0.967   0.043   6.859  0.1353  0.8983  1.4398
 6486TIP3   OH240948   0.310   0.804  30.522  0.4450  0.1425 -0.2347
 6486TIP3    H140949   0.226   0.795  30.567  0.0491 -0.3855 -1.0602
 6486TIP3    H240950   0.338   0.894  30.541 -0.8733  0.7210 -0.8940
 6487TIP3   OH240951   3.808   0.383   1.274 -0.3624 -0.0800  0.2236
 6487TIP3    H140952   3.899   0.388   1.247 -0.4785  1.4582  0.0200
 6487TIP3    H240953   3.796   0.458   1.332 -1.5529 -0.1157  0.0545
 6488TIP3   OH240954   0.630   3.065  29.155  0.1309  0.6600  0.1096
 6488TIP3    H140955   0.621   3.039  29.063  1.5745  1.0914 -0.1834
 6488TIP3    H240956   0.705   3.015  29.187 -0.8012 -0.0493  1.2958
 6489TIP3   OH240957   3.314   2.274   6.599 -0.3244  0.9549 -0.0439
 6489TIP3    H140958   3.272   2.234   6.675  0.3947 -0.2847 -0.2668
 6489TIP3    H240959   3.245   2.325   6.556 -1.5873 -0.8916 -0.3125
 6490TIP3   OH240960   0.102   1.349   1.265 -0.0435 -0.2907  0.0293
 6490TIP3    H140961   0.153   1.275   1.233  0.7031 -0.1902  0.9181
 6490TIP3    H240962   0.099   1.410   1.191  0.9747 -0.3874 -0.1109
 6491TIP3   OH240963   1.997   3.947  31.997 -0.0828 -0.1887 -0.2588
 6491TIP3    H140964   1.951   3.863  31.995 -0.9305  0.2781 -1.2075
 6491TIP3    H240965   1.985   3.980  32.086  1.1860 -1.5532  0.4670
 6492TIP3   OH240966   4.123   1.007  13.044  0.1549 -0.1493  0.2002
 6492TIP3    H140967   4.141   1.042  13.131  0.1344 -1.1703  0.6342
 6492TIP3    H240968   4.118   0.912  13.057 -1.0458 -0.2308 -0.7099
 6493TIP3   OH240969   3.803   3.324   9.808  0.0036  0.3588 -0.5781
 6493TIP3    H140970   3.860   3.247   9.817  1.9769  1.7268 -0.8012
 6493TIP3    H240971   3.852   3.385   9.754 -0.6360  2.5638  1.1602
 6494TIP3   OH240972   3.180   2.038  40.852 -0.0079  0.1779 -0.8019
 6494TIP3    H140973   3.212   2.075  40.934 -2.7870  0.9229  0.0601
 6494TIP3    H240974   3.210   2.099  40.784  0.6312  0.6447 -0.1044
 6495TIP3   OH240975   3.305   2.264   5.131 -0.0270  0.6836  0.0933
 6495TIP3    H140976   3.246   2.313   5.188  0.0243  2.7804 -1.5418
 6495TIP3    H240977   3.373   2.231   5.189 -1.3356  0.5273  1.5972
 6496TIP3   OH240978   3.458   4.320  26.753  0.1563 -0.2663 -0.3604
 6496TIP3    H140979   3.381   4.317  26.809 -1.8770  0.0424 -2.9034
 6496TIP3    H240980   3.496   4.406  26.768 -1.0138  0.2568 -0.2650
 6497TIP3   OH240981   0.898   0.397   8.997  0.0090 -0.3147 -0.1301
 6497TIP3    H140982   0.833   0.338   9.035 -0.1672  0.6764  1.1892
 6497TIP3    H240983   0.926   0.452   9.070  0.7328  0.7212 -1.1474
 6498TIP3   OH240984   2.070   3.805   8.002  0.1858 -0.3339 -0.2421
 6498TIP3    H140985   2.003   3.775   7.940  1.7371 -0.2327 -2.0445
 6498TIP3    H240986   2.096   3.891   7.969  0.3989  0.1452  1.1266
 6499TIP3   OH240987   3.944   2.477  33.501 -0.0812  0.3571  0.0968
 6499TIP3    H140988   4.004   2.497  33.429  0.7004  0.9645  0.8926
 6499TIP3    H240989   3.867   2.532  33.484 -0.3224 -0.2183 -0.7766
 6500TIP3   OH240990   4.341   1.723   9.033  0.4667 -0.5051 -1.3175
 6500TIP3    H140991   4.332   1.807   9.078 -1.5778 -1.0979 -0.5108
 6500TIP3    H240992   4.386   1.666   9.095  0.9503 -0.3066 -1.4796
 6501TIP3   OH240993   2.132   0.586   0.861  0.1562  0.2424 -0.0286
 6501TIP3    H140994   2.089   0.502   0.847  1.8159 -0.4401 -1.2413
 6501TIP3    H240995   2.167   0.611   0.775  0.3969  1.7805  0.4771
 6502TIP3   OH240996   2.566   1.669  19.016  0.3229 -0.0169  0.0161
 6502TIP3    H140997   2.648   1.688  18.970 -1.4535  1.4542 -2.8291
 6502TIP3    H240998   2.591   1.607  19.085  3.7669  0.3050 -0.7514
 6503TIP3   OH240999   2.915   0.973  37.874  0.1104 -0.4072  0.4764
 6503TIP3    H141000   3.002   0.950  37.905 -0.0648  0.9306  2.1786
 6503TIP3    H241001   2.895   1.055  37.920 -1.1709  0.4768 -1.5403
 6504TIP3   OH241002   0.859   0.097  33.751 -0.4452 -0.1043 -0.0956
 6504TIP3    H141003   0.863   0.002  33.761 -0.5589 -0.1229 -0.2245
 6504TIP3    H241004   0.782   0.123  33.801  0.1006  0.0265  0.6986
 6505TIP3   OH241005   3.268   1.796  35.052  0.4939 -0.6185  0.4343
 6505TIP3    H141006   3.256   1.881  35.095  0.2803 -0.3843 -0.0909
 6505TIP3    H241007   3.255   1.813  34.959  1.5916 -0.9917  0.1877
 6506TIP3   OH241008   0.670   1.455  11.863 -0.0683  0.2588  0.2545
 6506TIP3    H141009   0.673   1.379  11.804  1.0284 -0.1086  0.7461
 6506TIP3    H241010   0.643   1.418  11.947  0.2967  0.4281  0.4504
 6507TIP3   OH241011   1.959   2.543   9.187 -0.0401 -0.4110 -0.4314
 6507TIP3    H141012   2.048   2.509   9.195  0.1353  0.3420  1.0634
 6507TIP3    H241013   1.914   2.513   9.266 -1.3976 -1.5161 -1.5686
 6508TIP3   OH241014   1.665   1.417  17.240  0.1577  0.1362  0.0242
 6508TIP3    H141015   1.644   1.477  17.168  0.3021  1.5772  1.1386
 6508TIP3    H241016   1.759   1.431  17.255 -0.3403  1.8112  2.1405
 6509TIP3   OH241017   1.237   1.694  18.664 -0.1541 -0.4246  0.6082
 6509TIP3    H141018   1.155   1.687  18.616  0.5520 -1.3808 -0.5164
 6509TIP3    H241019   1.219   1.651  18.748 -0.9011 -0.2860  0.5214
 6510TIP3   OH241020   2.430   0.167   5.637 -0.3332  0.2436  0.0819
 6510TIP3    H141021   2.381   0.225   5.695  0.2013  0.9357 -0.1400
 6510TIP3    H241022   2.498   0.130   5.693 -1.1801 -0.8397  0.4285
 6511TIP3   OH241023   0.062   2.622   9.963  0.0957  0.2298  0.5961
 6511TIP3    H141024   0.059   2.552   9.897  0.2292  0.7379  0.0473
 6511TIP3    H241025   0.071   2.575  10.047 -0.1227 -0.4207  0.2633
 6512TIP3   OH241026   0.656   2.120  40.595 -0.3114 -0.5027  0.6624
 6512TIP3    H141027   0.596   2.194  40.586 -0.7560 -1.1083 -2.1801
 6512TIP3    H241028   0.740   2.154  40.566 -0.7076 -1.2647 -1.5397
 6513TIP3   OH241029   2.104   0.164   2.707 -0.0069 -0.0952 -0.1105
 6513TIP3    H141030   2.157   0.119   2.641  0.5507 -0.3772  0.5160
 6513TIP3    H241031   2.134   0.255   2.704 -0.4791  0.0479 -0.7270
 6514TIP3   OH241032   2.903   4.001  13.634 -0.4552 -0.0011 -0.2117
 6514TIP3    H141033   2.836   4.049  13.587 -0.2334  0.4857 -0.0422
 6514TIP3    H241034   2.961   4.069  13.669 -0.4911 -0.3559  0.5678
 6515TIP3   OH241035   0.179   1.062  10.682  0.6672  0.1842  0.0394
 6515TIP3    H141036   0.106   1.002  10.668  1.9839 -1.0982 -1.8414
 6515TIP3    H241037   0.251   1.006  10.712  1.3918  1.1287  0.1150
 6516TIP3   OH241038   1.480   0.319  27.238 -0.6509 -0.3630  0.0651
 6516TIP3    H141039   1.458   0.251  27.302  2.3745 -1.1145  0.4454
 6516TIP3    H241040   1.501   0.396  27.290 -0.5897 -0.2208 -0.1662
 6517TIP3   OH241041   2.722   4.171  19.326 -0.0027  1.2232 -0.5923
 6517TIP3    H141042   2.736   4.214  19.241 -1.9455  0.7225 -1.2160
 6517TIP3    H241043   2.665   4.097  19.306 -0.4786  1.0696  1.1555
 6518TIP3   OH241044   2.461   1.575  35.770  0.0577  0.2945 -0.4095
 6518TIP3    H141045   2.429   1.653  35.725  0.2150  0.4223 -0.2973
 6518TIP3    H241046   2.390   1.512  35.760  0.4354  0.0280 -1.5677
 6519TIP3   OH241047   2.320   2.401  32.432 -0.8305 -0.6642 -0.3819
 6519TIP3    H141048   2.238   2.409  32.482 -0.3794 -0.9992  0.4427
 6519TIP3    H241049   2.388   2.405  32.499 -0.2150 -1.4267 -0.9518
 6520TIP3   OH241050   2.514   2.511  31.290  0.1449 -0.5584 -0.3363
 6520TIP3    H141051   2.527   2.419  31.313  0.9675 -0.7213 -1.4144
 6520TIP3    H241052   2.530   2.515  31.196  0.9397  0.8446 -0.1586
 6521TIP3   OH241053   1.480   4.071   1.713  0.4456 -0.4350 -0.1959
 6521TIP3    H141054   1.509   4.071   1.622  2.0225 -0.7097  0.2792
 6521TIP3    H241055   1.506   3.985   1.746 -0.0288 -0.2998  0.5427
 6522TIP3   OH241056   1.184   4.295  28.858 -0.3070 -0.0402 -0.1996
 6522TIP3    H141057   1.147   4.219  28.902 -0.0917 -0.9342 -1.4768
 6522TIP3    H241058   1.156   4.286  28.767  0.0963  1.1789 -0.4733
 6523TIP3   OH241059   0.060   1.629  34.789 -0.4191  0.0158  0.0240
 6523TIP3    H141060  -0.008   1.695  34.772 -0.2868 -0.2743 -1.8796
 6523TIP3    H241061   0.137   1.681  34.813 -0.3528  0.5860 -1.3313
 6524TIP3   OH241062   3.189   4.072  30.140 -0.1902  0.1149 -0.4000
 6524TIP3    H141063   3.261   4.018  30.107  1.3173  1.1377  1.0573
 6524TIP3    H241064   3.159   4.027  30.219  0.6920  1.0673  0.4999
 6525TIP3   OH241065   1.330   0.483  33.194  0.4820 -0.4527 -0.2210
 6525TIP3    H141066   1.259   0.514  33.138  0.6065 -1.5383 -1.0102
 6525TIP3    H241067   1.286   0.435  33.264  0.2489  1.8660  1.3378
 6526TIP3   OH241068   4.388   2.057   5.233 -0.5100  0.0842  0.1463
 6526TIP3    H141069   4.358   2.065   5.324 -1.8234 -1.4599 -0.1001
 6526TIP3    H241070   4.335   2.119   5.184  1.7526  2.6375  0.6467
 6527TIP3   OH241071   4.104   0.039   7.527  0.6877 -0.1178  0.6671
 6527TIP3    H141072   4.106   0.116   7.584 -0.7105  0.2251  0.2740
 6527TIP3    H241073   4.089   0.074   7.439  1.6618 -0.7303  0.2382
 6528TIP3   OH241074   2.871   0.993  12.585 -0.1028 -0.1530  0.1794
 6528TIP3    H141075   2.841   1.057  12.520 -0.1304  0.0137  0.3529
 6528TIP3    H241076   2.795   0.980  12.642  0.6910  1.7922  1.8384
 6529TIP3   OH241077   2.257   0.564   8.717 -0.0226 -0.0743  0.1183
 6529TIP3    H141078   2.182   0.555   8.775 -0.5103  1.7410 -0.1636
 6529TIP3    H241079   2.332   0.575   8.775  0.4392 -3.8658  0.4583
 6530TIP3   OH241080   2.056   2.947   6.634 -0.0407 -0.1687 -0.0408
 6530TIP3    H141081   2.146   2.930   6.661 -0.2809  0.1384  1.0293
 6530TIP3    H241082   2.014   2.982   6.713 -1.4635 -1.5868 -0.1162
 6531TIP3   OH241083   1.851   3.733  31.861 -0.0696 -0.2954 -0.0700
 6531TIP3    H141084   1.773   3.736  31.806 -1.3474 -1.1796  1.5660
 6531TIP3    H241085   1.874   3.640  31.865  1.4782  0.0212 -1.0396
 6532TIP3   OH241086   2.950   2.823  28.841  0.2401 -0.6364  0.3015
 6532TIP3    H141087   2.974   2.876  28.916 -0.3371 -0.8480  0.6413
 6532TIP3    H241088   3.023   2.832  28.780  0.3461  0.1776  0.5474
 6533TIP3   OH241089   3.945   2.233  29.921  0.7372 -0.1845 -0.5292
 6533TIP3    H141090   3.986   2.178  29.987  1.2803  2.8151  1.8762
 6533TIP3    H241091   3.851   2.215  29.930  0.6856  0.9625  2.0007
 6534TIP3   OH241092   3.109   3.836   8.820  0.4356 -0.9098  0.2848
 6534TIP3    H141093   3.199   3.807   8.807  0.2311 -0.9636 -1.1872
 6534TIP3    H241094   3.113   3.893   8.896  1.3825 -2.3396  1.3552
 6535TIP3   OH241095   2.619   1.983   1.444 -0.1272  0.1797  0.2663
 6535TIP3    H141096   2.676   1.918   1.483 -0.8102 -0.6982 -0.1729
 6535TIP3    H241097   2.532   1.966   1.481 -1.0235 -1.3045 -2.2193
 6536TIP3   OH241098   3.702   2.173  31.349  0.6693  0.2685 -0.6038
 6536TIP3    H141099   3.662   2.090  31.325  0.6182  1.0573 -3.6236
 6536TIP3    H241100   3.641   2.240  31.317  2.2119  1.4604 -1.2162
 6537TIP3   OH241101   3.785   1.817  10.661 -0.2423  0.0662 -0.2825
 6537TIP3    H141102   3.847   1.891  10.663 -0.0152 -0.1139 -0.5876
 6537TIP3    H241103   3.838   1.741  10.684 -0.8906  0.2588  2.1240
 6538TIP3   OH241104   4.048   1.235  10.725  0.1275  0.5403 -0.1479
 6538TIP3    H141105   4.071   1.202  10.638 -1.7761  1.9890 -1.2722
 6538TIP3    H241106   4.127   1.279  10.756  0.7289  0.2841 -1.2670
 6539TIP3   OH241107   2.782   0.104  36.638 -0.7438  0.1513 -0.3911
 6539TIP3    H141108   2.870   0.134  36.659 -0.4444  0.8226 -2.4203
 6539TIP3    H241109   2.726   0.179  36.658 -0.9258 -0.3293  1.0529
 6540TIP3   OH241110   0.716   3.072  31.568  0.0416 -0.1487 -0.5766
 6540TIP3    H141111   0.754   3.086  31.481  0.8197 -1.1111 -0.4053
 6540TIP3    H241112   0.734   2.980  31.587  0.1050  0.1229  0.7277
 6541TIP3   OH241113   0.691   2.505   9.939 -0.4975  0.4688 -0.1876
 6541TIP3    H141114   0.765   2.449   9.964 -1.3738  0.0506  1.6953
 6541TIP3    H241115   0.730   2.575   9.887  0.9788 -0.5789 -0.5807
 6542TIP3   OH241116   0.482   2.764  41.641  0.0702  0.0187  0.0408
 6542TIP3    H141117   0.504   2.848  41.601 -1.0131 -0.0985 -0.8530
 6542TIP3    H241118   0.401   2.737  41.597  0.1267 -1.2491  0.6723
 6543TIP3   OH241119   0.728   0.881  13.780 -0.2493  0.3322 -0.0756
 6543TIP3    H141120   0.655   0.873  13.841 -1.2971  0.1015 -1.3072
 6543TIP3    H241121   0.760   0.970  13.793 -0.6060  0.3609  0.6418
 6544TIP3   OH241122   0.235   0.258  22.932  0.0049  0.1068  0.0045
 6544TIP3    H141123   0.141   0.262  22.914 -0.5593  0.5932  2.6056
 6544TIP3    H241124   0.254   0.341  22.976  1.6107 -0.0873 -0.2619
 6545TIP3   OH241125   2.907   3.391  32.459  0.0164 -0.5626  0.2739
 6545TIP3    H141126   2.877   3.466  32.510  2.4906 -0.3459  1.5482
 6545TIP3    H241127   2.839   3.378  32.394 -1.3445  1.6649  1.1367
 6546TIP3   OH241128   3.020   1.873  30.944 -0.0143  0.3889 -0.1146
 6546TIP3    H141129   3.070   1.943  30.901 -0.1429  1.1267  0.8957
 6546TIP3    H241130   3.062   1.863  31.029 -0.5918 -0.1101  0.1157
 6547TIP3   OH241131   4.239   1.044  33.210 -0.3896  0.1796  0.1233
 6547TIP3    H141132   4.147   1.019  33.195 -1.0266  1.5372  1.4527
 6547TIP3    H241133   4.246   1.132  33.173  0.6421 -0.2617 -0.7562
 6548TIP3   OH241134   0.776   0.500  29.329 -0.0998 -0.5726  0.5104
 6548TIP3    H141135   0.749   0.542  29.247 -0.6173  0.1872  1.0556
 6548TIP3    H241136   0.695   0.468  29.368 -0.0005  0.0352  1.2445
 6549TIP3   OH241137   0.371   1.782  11.856  0.2772 -0.4446  0.2216
 6549TIP3    H141138   0.311   1.723  11.902 -0.8276 -0.1495 -0.8131
 6549TIP3    H241139   0.335   1.790  11.768 -0.0140  2.3610  0.5254
 6550TIP3   OH241140   0.272   0.724   2.734  0.6033 -1.1310  0.6646
 6550TIP3    H141141   0.333   0.668   2.783  0.8424 -0.6946  0.8804
 6550TIP3    H241142   0.187   0.709   2.775  0.8084 -0.7435  1.2449
 6551TIP3   OH241143   2.393   0.211   0.539 -0.1494  0.0948 -1.1868
 6551TIP3    H141144   2.470   0.190   0.592 -0.6415 -1.8079 -1.1489
 6551TIP3    H241145   2.357   0.290   0.580  1.6899  0.9666 -1.1520
 6552TIP3   OH241146   2.827   1.219   0.274  0.4682 -0.2129  0.0063
 6552TIP3    H141147   2.793   1.306   0.252  0.1378 -0.4463 -0.4237
 6552TIP3    H241148   2.838   1.222   0.369  1.9258  0.8095 -0.1600
 6553TIP3   OH241149   2.310   3.893   8.932 -0.2514  0.9689  0.3009
 6553TIP3    H141150   2.290   3.983   8.905 -0.7376  1.1241  1.1535
 6553TIP3    H241151   2.263   3.882   9.014 -2.8989 -1.1240 -1.3372
 6554TIP3   OH241152   1.280   0.014   7.130 -0.4537 -0.0766  0.3840
 6554TIP3    H141153   1.253   0.105   7.144  1.9433  0.6158  0.9699
 6554TIP3    H241154   1.258  -0.030   7.211  1.0172  0.7351  1.2799
 6555TIP3   OH241155   1.287   3.590   0.484  0.2057 -0.2295  0.4898
 6555TIP3    H141156   1.304   3.684   0.488  0.5052 -0.2906  0.7073
 6555TIP3    H241157   1.233   3.579   0.406  1.4170 -0.0602 -0.4079
 6556TIP3   OH241158   1.086   2.559  38.401  0.6833 -0.5935 -0.3345
 6556TIP3    H141159   1.125   2.478  38.368  0.3098 -1.4492  1.2237
 6556TIP3    H241160   1.064   2.540  38.492 -1.4221  0.5350 -0.5356
 6557TIP3   OH241161   0.809   3.641   6.246 -0.0812  0.5337  0.1660
 6557TIP3    H141162   0.870   3.711   6.223 -0.7088  1.0841  0.1392
 6557TIP3    H241163   0.830   3.570   6.185 -0.5733  1.3395 -0.9704
 6558TIP3   OH241164   1.668   0.099   8.863 -0.6719 -0.1551 -0.2460
 6558TIP3    H141165   1.660   0.123   8.955 -0.1540  0.8581 -0.4531
 6558TIP3    H241166   1.740   0.153   8.830  0.0642 -1.4880 -0.9231
 6559TIP3   OH241167   2.454   1.375   4.659  0.0279 -0.0939 -0.3304
 6559TIP3    H141168   2.414   1.314   4.596  1.1817  0.5458 -1.7406
 6559TIP3    H241169   2.411   1.355   4.742 -3.0623  0.3596 -1.6514
 6560TIP3   OH241170   0.345   0.216   1.405 -0.5157  0.3609  0.5645
 6560TIP3    H141171   0.402   0.256   1.470  2.6064  0.5520 -2.0631
 6560TIP3    H241172   0.360   0.122   1.415  2.2702  0.4650 -1.6033
 6561TIP3   OH241173   4.212   1.746  33.983  0.1872  0.4953  0.4215
 6561TIP3    H141174   4.166   1.671  33.946 -0.6561  0.5677  1.2735
 6561TIP3    H241175   4.277   1.707  34.041  1.1841  0.3930 -0.7412
 6562TIP3   OH241176   0.772   0.519  11.972  0.1505 -0.0033  0.1365
 6562TIP3    H141177   0.827   0.456  11.925 -1.9034 -0.8047 -1.3114
 6562TIP3    H241178   0.688   0.475  11.983 -0.9736  2.0196  0.2127
 6563TIP3   OH241179   3.794   1.740  28.097  0.4614  0.3758  0.0322
 6563TIP3    H141180   3.851   1.780  28.163 -0.8149  0.6586  0.9851
 6563TIP3    H241181   3.709   1.731  28.140 -0.4383  0.6557 -1.6014
 6564TIP3   OH241182   1.993   0.789  16.881 -0.5392 -0.4707  0.2202
 6564TIP3    H141183   2.022   0.732  16.811 -1.6102 -0.4733 -0.2410
 6564TIP3    H241184   1.993   0.877  16.842 -0.2425 -0.3434  0.5010
 6565TIP3   OH241185   4.014   0.664   3.291  0.0532 -0.1319  0.1422
 6565TIP3    H141186   4.010   0.690   3.199  1.2168 -0.5564 -0.0390
 6565TIP3    H241187   4.067   0.585   3.292 -0.6432 -0.6068  1.0884
 6566TIP3   OH241188   3.249   4.239  10.405  0.4076  0.6168 -0.0988
 6566TIP3    H141189   3.208   4.310  10.455  1.4770  1.1773  0.0176
 6566TIP3    H241190   3.312   4.200  10.466  0.6876  0.3614 -0.5445
 6567TIP3   OH241191   1.600   2.285   4.845  0.1589  0.8643  0.4668
 6567TIP3    H141192   1.525   2.314   4.793  0.8398  2.8418  0.5091
 6567TIP3    H241193   1.597   2.189   4.840 -0.0816  0.9315 -2.8140
 6568TIP3   OH241194   0.253   4.029  41.346 -0.2375  0.4409 -0.1398
 6568TIP3    H141195   0.194   4.077  41.287 -0.1881 -0.1776 -0.7014
 6568TIP3    H241196   0.319   4.093  41.371 -1.0385  1.0989  0.3594
 6569TIP3   OH241197   4.360   4.214   5.223 -0.0301 -0.3054 -0.2082
 6569TIP3    H141198   4.308   4.292   5.201  0.2842  0.4891  1.6741
 6569TIP3    H241199   4.326   4.186   5.308  1.9091 -0.3870  0.5810
 6570TIP3   OH241200   3.349   0.676  11.446  0.0956 -0.1529 -0.7081
 6570TIP3    H141201   3.264   0.633  11.456  0.1537 -0.3223 -0.9480
 6570TIP3    H241202   3.359   0.689  11.352  0.4809 -0.4222 -0.7041
 6571TIP3   OH241203   1.544   3.228  17.206  0.0139  0.7545 -0.4084
 6571TIP3    H141204   1.462   3.275  17.220 -0.1342  0.5817 -0.6876
 6571TIP3    H241205   1.567   3.195  17.293 -0.0571  1.0544 -0.2751
 6572TIP3   OH241206   3.591   2.405  30.893  0.2704  0.1550 -0.0340
 6572TIP3    H141207   3.518   2.349  30.867  0.2130  0.6596 -0.9987
 6572TIP3    H241208   3.590   2.477  30.830  0.5778  1.0496  0.9512
 6573TIP3   OH241209   1.332   2.063  27.977 -0.1190 -0.2686  0.3789
 6573TIP3    H141210   1.265   2.116  27.933  1.2092  1.3007  0.1135
 6573TIP3    H241211   1.414   2.089  27.934  0.7439 -1.6159  1.1534
 6574TIP3   OH241212   3.210   3.003  39.377  0.2653  0.1784  0.2159
 6574TIP3    H141213   3.135   3.061  39.364  1.2223  1.0738 -1.7348
 6574TIP3    H241214   3.232   3.013  39.470 -2.1676 -0.3738  0.9436
 6575TIP3   OH241215   1.885   2.606  17.776  0.3298  0.5675 -0.0579
 6575TIP3    H141216   1.832   2.636  17.849  0.4243 -0.5986  0.5216
 6575TIP3    H241217   1.823   2.564  17.717  0.0254  2.7910 -1.4188
 6576TIP3   OH241218   4.400   3.538  30.907 -0.2149 -0.7393 -0.5353
 6576TIP3    H141219   4.423   3.627  30.935 -0.8240 -0.7695  0.0837
 6576TIP3    H241220   4.465   3.517  30.840  0.8987 -0.4176  0.4037
 6577TIP3   OH241221   3.659   1.056  34.216 -0.6043 -0.1024 -0.7941
 6577TIP3    H141222   3.586   1.002  34.246 -1.0484 -0.2110 -1.9884
 6577TIP3    H241223   3.710   1.075  34.295 -1.1879 -1.1359 -0.1523
 6578TIP3   OH241224   1.048   1.605  32.619 -0.2058 -0.4700  0.1079
 6578TIP3    H141225   1.059   1.530  32.560 -1.6370 -0.2071 -0.5269
 6578TIP3    H241226   0.956   1.630  32.609  0.2585  1.4229  0.2700
 6579TIP3   OH241227   3.801   2.472  27.373  0.1270  0.6024 -0.0365
 6579TIP3    H141228   3.849   2.465  27.291  0.4747  2.3453 -0.0127
 6579TIP3    H241229   3.856   2.527  27.429 -1.0618  1.1616  0.6214
 6580TIP3   OH241230   0.565   3.163   3.391  0.0787 -0.1226  0.2050
 6580TIP3    H141231   0.474   3.171   3.362 -0.3378 -1.6062  1.0076
 6580TIP3    H241232   0.597   3.253   3.394 -1.3923  0.4355  0.0108
 6581TIP3   OH241233   0.990   3.085   9.228 -0.3262 -0.0751 -0.0832
 6581TIP3    H141234   1.044   3.006   9.226 -0.4972 -0.2305  1.1190
 6581TIP3    H241235   1.047   3.153   9.265 -0.8279 -0.1495  0.8456
 6582TIP3   OH241236   3.710   0.256   0.741 -0.1502 -0.1442  0.0105
 6582TIP3    H141237   3.787   0.229   0.790  0.6222 -1.5195 -1.8577
 6582TIP3    H241238   3.729   0.345   0.712  0.4038 -0.2186  0.1468
 6583TIP3   OH241239   0.894   0.688   4.202  0.0091  0.0300  0.4376
 6583TIP3    H141240   0.899   0.739   4.121  1.6217  0.2496  0.6367
 6583TIP3    H241241   0.979   0.644   4.207 -1.0644 -2.1944  0.6067
 6584TIP3   OH241242   1.850   0.086  35.404  0.5337  0.4498  0.6261
 6584TIP3    H141243   1.871   0.157  35.342  0.8740 -0.5406 -0.4182
 6584TIP3    H241244   1.905   0.013  35.376 -1.4004 -0.9484  0.2937
 6585TIP3   OH241245   2.672   0.533  11.821  0.0451  0.0636 -0.1597
 6585TIP3    H141246   2.582   0.537  11.788 -0.3104 -0.8997  0.6283
 6585TIP3    H241247   2.690   0.439  11.830  1.5514  0.2046 -1.3716
 6586TIP3   OH241248   1.955   0.834  13.977  0.4040 -0.2615 -0.8618
 6586TIP3    H141249   1.997   0.764  13.926  0.0309  0.0465 -1.6140
 6586TIP3    H241250   1.990   0.915  13.939  1.6618 -0.0281  0.7101
 6587TIP3   OH241251   1.743   0.732   4.744  0.1462  0.1197  0.0178
 6587TIP3    H141252   1.733   0.679   4.822  1.2532 -0.5110 -0.2453
 6587TIP3    H241253   1.730   0.822   4.774 -3.9238 -0.2993  0.0982
 6588TIP3   OH241254   0.684   0.807   7.729 -0.4618  0.4001  0.2027
 6588TIP3    H141255   0.741   0.880   7.751  1.1622 -0.4764 -0.8457
 6588TIP3    H241256   0.656   0.771   7.813 -0.1319  1.3560  0.7306
 6589TIP3   OH241257   0.883   0.784  34.973  0.4898  0.0052 -0.6425
 6589TIP3    H141258   0.885   0.740  35.058 -1.2005 -1.3617 -1.2676
 6589TIP3    H241259   0.832   0.864  34.989  0.7049  0.0645 -0.2440
 6590TIP3   OH241260   2.189   0.426   2.442 -0.0451  0.4648 -0.1590
 6590TIP3    H141261   2.199   0.460   2.531  1.9126 -0.1149 -0.1179
 6590TIP3    H241262   2.110   0.470   2.409 -0.4988  1.1154  1.6440
 6591TIP3   OH241263   1.162   1.614  11.948 -0.4302 -0.3390 -0.0109
 6591TIP3    H141264   1.171   1.521  11.928  0.1984  0.0427 -1.6881
 6591TIP3    H241265   1.068   1.629  11.951 -0.5423 -0.8493 -0.7183
 6592TIP3   OH241266   1.395   3.432  36.241  0.0912 -0.8386  0.4266
 6592TIP3    H141267   1.353   3.414  36.325 -1.0501 -2.5849 -0.4401
 6592TIP3    H241268   1.328   3.477  36.190  0.0133 -1.7079 -0.2517
 6593TIP3   OH241269   2.491   2.590  32.600 -0.0204 -0.4202 -0.6603
 6593TIP3    H141270   2.418   2.641  32.636  0.5545  0.7446 -1.1043
 6593TIP3    H241271   2.489   2.607  32.506  1.3048  0.2870 -0.5846
 6594TIP3   OH241272   2.316   2.290   6.346  0.0373 -0.2635 -0.0477
 6594TIP3    H141273   2.387   2.349   6.371  1.1103 -1.7356  0.4962
 6594TIP3    H241274   2.252   2.347   6.303  0.1950  1.6056  1.9994
 6595TIP3   OH241275   1.111   3.195  40.980  0.0686  0.2162 -0.3275
 6595TIP3    H141276   1.103   3.155  40.893  0.6645 -1.8450  0.4845
 6595TIP3    H241277   1.077   3.283  40.970  0.7735  0.2725 -2.8198
 6596TIP3   OH241278   0.225   1.590  39.258 -0.2821  0.1231 -0.0988
 6596TIP3    H141279   0.133   1.612  39.247 -0.2221  0.9273  0.8571
 6596TIP3    H241280   0.230   1.496  39.243 -1.3731 -0.0497  0.5565
 6597TIP3   OH241281   0.579   3.992  35.193 -0.4763  0.2074  0.2069
 6597TIP3    H141282   0.591   4.065  35.133  0.7839 -0.5672 -0.5403
 6597TIP3    H241283   0.566   3.916  35.136  0.7244 -0.5371  0.8779
 6598TIP3   OH241284   1.108   0.662  16.046 -0.3423  0.3827 -0.2344
 6598TIP3    H141285   1.053   0.587  16.068 -1.4837  0.9365 -1.0806
 6598TIP3    H241286   1.083   0.729  16.110  0.6314  0.0911  0.4800
 6599TIP3   OH241287   1.869   3.734  39.121  0.0595 -0.3381  0.2940
 6599TIP3    H141288   1.951   3.686  39.112 -0.0089 -0.1079 -2.3617
 6599TIP3    H241289   1.801   3.667  39.113 -0.0078 -0.2058 -0.3101
 6600TIP3   OH241290   1.329   2.319  12.773 -0.1255  0.1803 -0.1569
 6600TIP3    H141291   1.301   2.373  12.699 -0.6814 -0.4335 -0.3951
 6600TIP3    H241292   1.262   2.251  12.780 -0.5645  0.7321  1.4602
 6601TIP3   OH241293   3.577   1.752   5.708  0.2076  0.7445  0.5374
 6601TIP3    H141294   3.503   1.694   5.725  0.4624  0.1375 -0.3607
 6601TIP3    H241295   3.647   1.719   5.764  0.1556  0.5865  0.5106
 6602TIP3   OH241296   0.535   4.002  31.505  0.8098  0.3610  0.1107
 6602TIP3    H141297   0.478   3.931  31.534  2.1400  0.1054  2.3181
 6602TIP3    H241298   0.554   3.981  31.413 -0.2507 -1.1392  0.1949
 6603TIP3   OH241299   2.421   2.724  10.251  0.0057  0.2768 -0.3593
 6603TIP3    H141300   2.369   2.766  10.320  0.0295 -0.7934  0.3401
 6603TIP3    H241301   2.508   2.762  10.260  0.4188 -0.9372  1.2464
 6604TIP3   OH241302   1.178   0.193  31.340  1.1677  0.3739 -0.4402
 6604TIP3    H141303   1.177   0.288  31.353  0.2013  0.2410  0.6589
 6604TIP3    H241304   1.176   0.157  31.429 -0.6580 -0.6547 -0.8448
 6605TIP3   OH241305   2.247   0.516  19.033  0.1648  0.0782  0.0895
 6605TIP3    H141306   2.277   0.601  19.001 -1.0617  0.4102 -0.1971
 6605TIP3    H241307   2.188   0.484  18.965 -1.3723  0.1578  1.3340
 6606TIP3   OH241308   3.023   4.174  10.228 -0.5106  0.3745 -0.0965
 6606TIP3    H141309   3.094   4.165  10.290 -1.8709 -0.2765  1.4388
 6606TIP3    H241310   2.944   4.155  10.278 -1.5564 -2.3729 -2.4613
 6607TIP3   OH241311   0.829   0.946  26.566  0.1914 -0.0406 -0.4662
 6607TIP3    H141312   0.878   0.895  26.630  0.1021  0.0793 -0.3002
 6607TIP3    H241313   0.746   0.965  26.609  1.8402  4.3064  1.5023
 6608TIP3   OH241314   1.906   4.036   6.738 -0.0150 -0.4476  0.0012
 6608TIP3    H141315   1.998   4.062   6.737  0.2673 -1.2655  1.3807
 6608TIP3    H241316   1.907   3.947   6.775 -1.4237 -0.1397  0.8453
 6609TIP3   OH241317   2.292   3.345   4.867  0.0696 -0.9486  0.2384
 6609TIP3    H141318   2.323   3.388   4.787 -0.6486 -2.5473 -0.9638
 6609TIP3    H241319   2.261   3.260   4.837 -2.6039 -0.6379  1.8394
 6610TIP3   OH241320   4.150   3.457   5.800 -0.2429 -0.3110  0.7118
 6610TIP3    H141321   4.173   3.546   5.827 -0.2360 -0.2400  0.4779
 6610TIP3    H241322   4.061   3.465   5.764  0.6722  0.1052 -1.6660
 6611TIP3   OH241323   1.674   2.708   4.498  0.4310  0.0345  0.4182
 6611TIP3    H141324   1.715   2.742   4.418 -1.3100  0.7735 -0.2069
 6611TIP3    H241325   1.747   2.668   4.547  1.4091 -1.3431 -1.9723
 6612TIP3   OH241326   3.661   1.247  11.590  0.0509 -0.6826  0.2423
 6612TIP3    H141327   3.673   1.205  11.504 -1.8589 -0.6693 -0.0601
 6612TIP3    H241328   3.715   1.327  11.585  0.3549 -0.9349 -0.7478
 6613TIP3   OH241329   2.776   3.135   5.954  0.0274  0.0909 -0.2347
 6613TIP3    H141330   2.775   3.230   5.942 -0.2102  0.1394  0.1330
 6613TIP3    H241331   2.866   3.114   5.980  0.6892 -0.0838 -2.5237
 6614TIP3   OH241332   2.438   2.598   8.212 -0.2383  0.0738  0.1202
 6614TIP3    H141333   2.464   2.618   8.302 -0.8429  2.0528 -0.0835
 6614TIP3    H241334   2.388   2.517   8.218 -0.6468  0.4073  1.6584
 6615TIP3   OH241335   3.136   0.109  39.350  0.6676  0.1088 -0.0393
 6615TIP3    H141336   3.175   0.123  39.437  0.9961  2.4443 -0.5095
 6615TIP3    H241337   3.175   0.177  39.295 -0.2765 -0.7142 -1.7937
 6616TIP3   OH241338   1.321   3.605  35.598  0.0760  0.5358  0.2925
 6616TIP3    H141339   1.344   3.697  35.614  0.7053  0.2675  1.0035
 6616TIP3    H241340   1.368   3.556  35.666  2.8470 -0.6805 -2.2450
 6617TIP3   OH241341   0.692   1.605  35.572 -0.0956  0.2004  0.0523
 6617TIP3    H141342   0.755   1.674  35.553 -2.0233  1.9684 -0.2369
 6617TIP3    H241343   0.644   1.636  35.649 -0.3143 -1.3182  0.5635
 6618TIP3   OH241344   2.155   3.932  11.680 -0.5836 -0.0675 -0.0185
 6618TIP3    H141345   2.204   3.942  11.761 -0.0932 -0.9033 -0.1996
 6618TIP3    H241346   2.202   3.987  11.617 -1.2558  0.9820  0.3653
 6619TIP3   OH241347   2.821   3.272   0.206  0.4397 -0.0661  0.7637
 6619TIP3    H141348   2.886   3.210   0.173  0.9954  0.9285 -0.0839
 6619TIP3    H241349   2.749   3.217   0.238  0.5749 -1.1367 -0.6671
 6620TIP3   OH241350   4.377   3.903   3.409 -0.1367 -0.2158  0.2730
 6620TIP3    H141351   4.391   3.809   3.402 -0.5875 -0.3360  0.8997
 6620TIP3    H241352   4.440   3.941   3.347 -1.2754 -0.9901 -1.4201
 6621TIP3   OH241353   1.036   2.059  39.419  0.2018  0.3522 -0.0890
 6621TIP3    H141354   1.062   1.975  39.457 -1.4859  0.0510  0.5150
 6621TIP3    H241355   1.116   2.111  39.418  0.7350 -0.3220  2.1154
 6622TIP3   OH241356   1.047   1.510  12.556 -0.1627  0.3477 -0.0870
 6622TIP3    H141357   1.024   1.431  12.507 -1.9728  0.5891  0.3290
 6622TIP3    H241358   0.971   1.567  12.548  0.7647  1.7106  0.3592
 6623TIP3   OH241359   3.605   1.255  31.827  0.3637 -0.2510  0.1965
 6623TIP3    H141360   3.514   1.279  31.814  1.3917  3.6455 -1.3443
 6623TIP3    H241361   3.633   1.222  31.742  0.6174 -0.5160  0.3812
 6624TIP3   OH241362   3.058   0.297  30.395  0.1067  0.6082  0.2287
 6624TIP3    H141363   3.054   0.303  30.490 -3.0961  0.4873  0.2198
 6624TIP3    H241364   3.033   0.384  30.364  0.8882  0.5778 -0.5330
 6625TIP3   OH241365   1.826   1.826  39.487 -0.3020  0.3383  0.1927
 6625TIP3    H141366   1.816   1.808  39.581  0.1681 -2.0869 -0.1357
 6625TIP3    H241367   1.921   1.827  39.473 -0.3761 -0.2567 -0.3856
 6626TIP3   OH241368   1.130   0.234  30.020  1.1291  0.1455 -0.4627
 6626TIP3    H141369   1.174   0.154  29.992 -0.9323 -0.7620 -1.3484
 6626TIP3    H241370   1.188   0.272  30.087  2.1599 -2.0803 -0.0072
 6627TIP3   OH241371   3.049   4.168  30.780 -0.3568  0.1052 -0.2883
 6627TIP3    H141372   3.138   4.150  30.811 -0.2431  0.6136 -0.3138
 6627TIP3    H241373   3.051   4.260  30.752 -0.5779 -0.1991 -1.3743
 6628TIP3   OH241374   3.021   2.978   2.282  0.1557  0.4600 -0.1912
 6628TIP3    H141375   2.961   2.982   2.209 -0.7581  0.7514  0.5574
 6628TIP3    H241376   3.077   2.902   2.263 -1.5840 -0.9326 -0.0487
 6629TIP3   OH241377   0.834   1.434  40.071 -0.2253 -0.6305 -0.2751
 6629TIP3    H141378   0.841   1.340  40.083  3.2846 -0.4392  0.1075
 6629TIP3    H241379   0.884   1.472  40.144 -1.6947  1.5947 -0.2947
 6630TIP3   OH241380   0.254   1.918  35.300  0.0872 -0.5575  0.2008
 6630TIP3    H141381   0.299   1.967  35.231 -0.4535  0.8413  0.8057
 6630TIP3    H241382   0.300   1.941  35.380 -0.1889 -1.0451  0.5074
 6631TIP3   OH241383   2.343   0.494  27.696 -0.7023 -0.6186  0.0995
 6631TIP3    H141384   2.398   0.552  27.644 -0.5144 -0.3402  0.5954
 6631TIP3    H241385   2.257   0.535  27.694 -0.4318  0.0163  0.9493
 6632TIP3   OH241386   0.600   0.376   0.213 -0.1609  0.2505 -0.7996
 6632TIP3    H141387   0.577   0.452   0.267  0.2725 -0.4092  0.3485
 6632TIP3    H241388   0.696   0.379   0.209 -0.1871  0.2278 -1.4445
 6633TIP3   OH241389   1.682   2.480  33.269  0.2994 -0.0405 -0.5254
 6633TIP3    H141390   1.662   2.548  33.205 -1.4510 -0.4320 -0.4460
 6633TIP3    H241391   1.707   2.529  33.348  1.7701  0.4475 -1.2509
 6634TIP3   OH241392   3.973   0.389  39.393  0.3763 -0.1125  0.1017
 6634TIP3    H141393   3.908   0.444  39.349 -1.1254 -0.4000  1.8313
 6634TIP3    H241394   3.933   0.302  39.396  0.3602 -0.0781  2.0927
 6635TIP3   OH241395   1.655   3.853  34.720 -0.0306  0.3308 -0.5357
 6635TIP3    H141396   1.733   3.904  34.700 -0.1619  0.2551 -1.2951
 6635TIP3    H241397   1.638   3.803  34.640 -0.6653  0.1016 -0.2672
 6636TIP3   OH241398   0.955   0.132   4.916  0.6143 -0.4221  0.3250
 6636TIP3    H141399   1.047   0.121   4.939  0.5183  1.3961  1.7825
 6636TIP3    H241400   0.947   0.224   4.892 -1.0580 -0.2468  1.3918
 6637TIP3   OH241401   1.748   4.023   3.283 -0.2352  0.0591 -0.8916
 6637TIP3    H141402   1.829   3.976   3.262 -0.1514  0.0615 -0.5652
 6637TIP3    H241403   1.690   4.001   3.210 -0.5308 -1.3515 -0.2800
 6638TIP3   OH241404   1.644   1.029  13.378 -0.7426  0.2902  0.3529
 6638TIP3    H141405   1.714   0.977  13.338 -0.8067  0.1947  0.3630
 6638TIP3    H241406   1.608   1.080  13.305 -0.1010  0.9888  0.5093
 6639TIP3   OH241407   0.200   3.938  27.131 -0.2726  0.2737  0.1243
 6639TIP3    H141408   0.199   3.973  27.220 -1.9770  1.2909 -0.2530
 6639TIP3    H241409   0.177   4.012  27.076  0.3579 -0.4436 -1.1451
 6640TIP3   OH241410   2.759   2.314   5.511 -0.2471  0.0949 -0.0519
 6640TIP3    H141411   2.675   2.288   5.549  0.6989  0.7154  2.7262
 6640TIP3    H241412   2.790   2.237   5.464 -1.5362 -0.7467  0.4433
 6641TIP3   OH241413   0.128   2.024  23.012  0.4785 -0.4892  0.6870
 6641TIP3    H141414   0.111   2.085  23.084  0.5864 -0.1391  0.4163
 6641TIP3    H241415   0.165   1.947  23.055  2.0857  0.3381  0.8683
 6642TIP3   OH241416   2.717   4.326  41.653  0.2240  0.7427 -0.7246
 6642TIP3    H141417   2.735   4.411  41.692  0.0553  1.1635 -1.5404
 6642TIP3    H241418   2.796   4.306  41.603  1.2339 -0.6771  1.2954
 6643TIP3   OH241419   2.156   0.519  29.026  0.5419 -0.0196  0.6386
 6643TIP3    H141420   2.121   0.474  28.949 -0.3826  0.1774  0.9338
 6643TIP3    H241421   2.164   0.610  28.999 -0.7578  0.2461  1.0752
 6644TIP3   OH241422   2.686   0.031   9.892  0.1731 -0.3168 -0.0999
 6644TIP3    H141423   2.618  -0.020   9.937  1.6104 -2.5731 -0.3302
 6644TIP3    H241424   2.761   0.028   9.952  0.2680  1.7443 -0.0553
 6645TIP3   OH241425   1.785   0.873  18.554  0.2020  0.1443  0.4467
 6645TIP3    H141426   1.773   0.965  18.575  0.9748  0.3577  0.0085
 6645TIP3    H241427   1.858   0.845  18.609  0.9267  0.1918 -0.4666
 6646TIP3   OH241428   0.188   2.290  24.846  0.0102  0.5095 -0.4941
 6646TIP3    H141429   0.278   2.286  24.877  0.3170 -2.0866 -1.5008
 6646TIP3    H241430   0.138   2.242  24.911 -0.6732  1.7577 -0.0541
 6647TIP3   OH241431   4.360   3.829  35.546  0.1059  0.5505  0.1901
 6647TIP3    H141432   4.332   3.819  35.637  0.4580  0.8564  0.3375
 6647TIP3    H241433   4.444   3.783  35.542 -0.7335 -0.9635 -0.4287
 6648TIP3   OH241434   3.174   1.210  30.411 -0.4417 -0.0339  0.4162
 6648TIP3    H141435   3.254   1.166  30.383 -0.1731 -0.1007  1.2874
 6648TIP3    H241436   3.165   1.284  30.351  0.1214 -0.1821  0.1471
 6649TIP3   OH241437   3.351   3.718  40.525 -0.0540 -0.0393  0.0279
 6649TIP3    H141438   3.360   3.702  40.431 -0.2820 -0.7353  0.1183
 6649TIP3    H241439   3.427   3.771  40.548 -1.1281  2.1034 -0.9682
 6650TIP3   OH241440   4.302   0.216  40.481  0.0141 -0.6625 -0.0165
 6650TIP3    H141441   4.366   0.272  40.437  0.1775  0.4345  1.5418
 6650TIP3    H241442   4.221   0.267  40.481 -0.2780 -1.1220 -0.0377
 6651TIP3   OH241443   1.128   2.357  34.245 -0.5388  0.5601  0.7365
 6651TIP3    H141444   1.106   2.407  34.167  1.0355  0.5038  0.2224
 6651TIP3    H241445   1.207   2.398  34.278  0.9217 -1.6280  0.2067
 6652TIP3   OH241446   3.459   0.246   1.753 -0.3836  0.1656  0.2013
 6652TIP3    H141447   3.413   0.277   1.675  1.5568  0.5829 -0.8399
 6652TIP3    H241448   3.544   0.291   1.750  0.8742 -2.0387  0.9765
 6653TIP3   OH241449   2.873   1.260  33.297 -0.9263  0.2345  0.2000
 6653TIP3    H141450   2.937   1.326  33.321 -1.7832  0.7072  1.2518
 6653TIP3    H241451   2.822   1.244  33.377 -2.6902  0.5264 -0.7955
 6654TIP3   OH241452   1.777   4.126   3.521  0.6162 -0.3734 -0.6541
 6654TIP3    H141453   1.865   4.160   3.509  0.7952 -0.6823 -0.2161
 6654TIP3    H241454   1.746   4.106   3.433  0.6709  0.5042 -0.8883
 6655TIP3   OH241455   4.291   0.526  34.983 -0.4015  0.3728  0.4051
 6655TIP3    H141456   4.384   0.550  34.989  0.1091 -0.7602 -1.8682
 6655TIP3    H241457   4.269   0.496  35.072  1.5823  0.0785  0.8564
 6656TIP3   OH241458   0.624   3.586  36.610 -0.3254  0.4396 -0.0325
 6656TIP3    H141459   0.623   3.514  36.547 -1.5163  1.2751 -1.0333
 6656TIP3    H241460   0.600   3.663  36.558  0.0913  1.4079  1.1698
 6657TIP3   OH241461   1.853   1.824  31.406  0.3290 -0.4627  0.5396
 6657TIP3    H141462   1.893   1.801  31.323  0.4306  0.1344  0.4159
 6657TIP3    H241463   1.923   1.867  31.456 -0.5660  2.3688 -0.4224
 6658TIP3   OH241464   0.418   2.427   3.728 -0.3361  0.4486 -0.0734
 6658TIP3    H141465   0.510   2.425   3.757  0.8651 -2.7687 -3.2630
 6658TIP3    H241466   0.373   2.370   3.791  0.5385 -0.3684 -0.1597
 6659TIP3   OH241467   4.046   0.559  12.477 -0.2975  0.3383 -0.1913
 6659TIP3    H141468   3.970   0.505  12.498 -0.8875  1.1039 -0.3100
 6659TIP3    H241469   4.012   0.627  12.418  0.6517  0.1987 -0.9251
 6660TIP3   OH241470   3.768   4.032  30.851  0.5572 -0.2727 -0.1584
 6660TIP3    H141471   3.781   3.938  30.864 -1.6626 -0.7713 -1.0163
 6660TIP3    H241472   3.833   4.057  30.785  0.1524 -1.5856 -1.0911
 6661TIP3   OH241473   0.855   3.918  10.053  0.0361 -0.1928 -0.2432
 6661TIP3    H141474   0.903   3.871  10.121  0.1429  0.3202  0.0457
 6661TIP3    H241475   0.920   3.976  10.013 -0.3040  0.3999  0.0507
 6662TIP3   OH241476   2.363   1.877  34.374 -0.5778  0.1697 -0.4813
 6662TIP3    H141477   2.374   1.792  34.331 -1.0182  0.3596 -0.9746
 6662TIP3    H241478   2.355   1.855  34.467  2.9393 -0.0806 -0.0840
 6663TIP3   OH241479   3.962   4.296  12.502 -0.1413  0.9929  0.3181
 6663TIP3    H141480   3.969   4.300  12.597  0.1595  2.5539  0.2447
 6663TIP3    H241481   3.931   4.207  12.484  3.7275 -0.8533  1.6350
 6664TIP3   OH241482   1.856   0.554  35.996 -0.0865 -0.0069 -0.1528
 6664TIP3    H141483   1.804   0.634  35.986 -0.6863 -0.2194  1.0428
 6664TIP3    H241484   1.794   0.489  36.029  0.7705 -0.4597  0.6202
 6665TIP3   OH241485   0.340   4.282   3.331 -0.1101  0.2749 -0.2422
 6665TIP3    H141486   0.385   4.354   3.287 -2.2344  2.4995  1.0193
 6665TIP3    H241487   0.303   4.230   3.259  2.1579 -0.1414 -1.1998
 6666TIP3   OH241488   3.529   1.668   8.684 -0.0670  0.2128  0.1767
 6666TIP3    H141489   3.566   1.646   8.599  0.0147  0.3468  0.1789
 6666TIP3    H241490   3.517   1.763   8.682  0.3810  0.2791  0.4954
 6667TIP3   OH241491   2.668   1.815  12.453 -0.3532 -0.2176 -0.5454
 6667TIP3    H141492   2.690   1.865  12.532  0.3950 -1.0879 -0.1799
 6667TIP3    H241493   2.617   1.741  12.485  1.9200 -1.8621 -0.5422
 6668TIP3   OH241494   0.367   3.031  29.488 -0.2324  0.2305  0.3065
 6668TIP3    H141495   0.350   2.945  29.528  2.0145 -0.7821 -0.7566
 6668TIP3    H241496   0.318   3.029  29.406 -2.7657  1.3063  1.6754
 6669TIP3   OH241497   3.271   2.992  34.725  0.2976 -0.1988  0.5130
 6669TIP3    H141498   3.250   2.962  34.637 -0.2862 -0.7383  0.8176
 6669TIP3    H241499   3.193   3.041  34.753  1.0760  1.2576  0.1805
 6670TIP3   OH241500   4.306   4.000  26.959 -0.3317  0.1942 -0.3166
 6670TIP3    H141501   4.395   4.015  26.926 -0.0633 -0.0239  0.2781
 6670TIP3    H241502   4.300   4.054  27.037 -0.8715  0.5162 -0.5757
 6671TIP3   OH241503   4.203   0.680  36.809  0.7092  0.0517  0.0015
 6671TIP3    H141504   4.120   0.722  36.828  0.1173 -1.2139  0.3117
 6671TIP3    H241505   4.266   0.722  36.868  0.4529  1.4891 -0.7132
 6672TIP3   OH241506   4.203   0.669   1.458 -0.0757 -0.4030 -0.0432
 6672TIP3    H141507   4.134   0.627   1.407 -0.2417  1.1345 -1.1747
 6672TIP3    H241508   4.284   0.640   1.417 -0.0902 -1.0267  0.3457
 6673TIP3   OH241509   1.052   1.506  30.636 -0.5449  0.0032 -0.4704
 6673TIP3    H141510   0.962   1.514  30.606 -0.9807 -0.9855  0.4959
 6673TIP3    H241511   1.051   1.540  30.726  0.2320  0.7627 -0.7334
 6674TIP3   OH241512   0.981   1.187  13.267 -0.3547  0.5003 -0.4282
 6674TIP3    H141513   1.053   1.128  13.289 -0.1658  0.1100 -2.0197
 6674TIP3    H241514   0.958   1.228  13.351 -0.1160 -1.3737  0.6243
 6675TIP3   OH241515   2.735   3.107  33.425 -0.4330 -0.3017  0.2948
 6675TIP3    H141516   2.677   3.058  33.483  0.1222  0.8065  1.8415
 6675TIP3    H241517   2.697   3.095  33.337 -3.1524  0.6126  1.2498
 6676TIP3   OH241518   0.813   2.895  40.433  0.1626 -0.1096 -0.2123
 6676TIP3    H141519   0.804   2.962  40.365  0.7172 -1.6734 -1.9141
 6676TIP3    H241520   0.755   2.824  40.404  1.4074 -1.3387  0.2232
 6677TIP3   OH241521   1.594   2.544   8.135 -0.3834 -0.0242 -0.0405
 6677TIP3    H141522   1.505   2.577   8.121  0.0399  0.6741 -1.2243
 6677TIP3    H241523   1.598   2.463   8.083 -0.1880  0.2013 -0.3823
 6678TIP3   OH241524   3.799   0.811   3.957  0.0228  0.0613 -0.6977
 6678TIP3    H141525   3.789   0.723   3.992  0.0547  0.6266  0.8019
 6678TIP3    H241526   3.714   0.853   3.971  1.3437  1.8406  3.3348
 6679TIP3   OH241527   0.389   1.548  11.602 -0.1850 -0.2315 -0.2766
 6679TIP3    H141528   0.467   1.551  11.657 -0.3742 -1.3988  0.0747
 6679TIP3    H241529   0.415   1.497  11.525 -0.6694 -0.8428 -0.0414
 6680TIP3   OH241530   3.980   4.373   3.320  0.1871 -0.2871  0.2026
 6680TIP3    H141531   3.888   4.392   3.340  0.3787 -0.5345  1.4295
 6680TIP3    H241532   4.013   4.332   3.400  1.4848  0.2146 -0.0515
 6681TIP3   OH241533   0.823   1.915  12.035 -0.2671  0.1178  0.0871
 6681TIP3    H141534   0.808   2.007  12.016  1.1795  0.4588  0.4668
 6681TIP3    H241535   0.808   1.907  12.130 -1.5168 -0.3071 -0.1180
 6682TIP3   OH241536   1.857   0.505  35.193 -0.3580  0.2706 -0.0064
 6682TIP3    H141537   1.908   0.572  35.148  0.8499 -0.7663 -0.2646
 6682TIP3    H241538   1.769   0.541  35.200  0.0231  1.4555 -1.0193
 6683TIP3   OH241539   0.304   1.259   1.663 -0.3129  0.5523 -0.1566
 6683TIP3    H141540   0.228   1.312   1.639 -1.6822 -0.0282  2.5438
 6683TIP3    H241541   0.351   1.312   1.728  0.6702  0.1980 -0.5558
 6684TIP3   OH241542   1.889   1.280  12.203 -0.1831 -0.0985  0.0511
 6684TIP3    H141543   1.813   1.272  12.145 -0.9946  0.1368  1.0551
 6684TIP3    H241544   1.936   1.356  12.171 -0.8556  0.2811 -0.0443
 6685TIP3   OH241545   0.733   2.823  29.596  0.5023 -0.0374  0.1333
 6685TIP3    H141546   0.710   2.886  29.529  1.0804 -0.7828 -0.8002
 6685TIP3    H241547   0.712   2.738  29.558  1.9451 -0.5498  0.4055
 6686TIP3   OH241548   0.550   3.216  34.222  0.6862  0.1986  0.2533
 6686TIP3    H141549   0.543   3.243  34.130  0.1742 -0.8250 -0.0149
 6686TIP3    H241550   0.605   3.284  34.262  1.4603  0.3107 -0.9497
 6687TIP3   OH241551   2.372   0.532  36.811 -0.6493 -0.4228 -0.6167
 6687TIP3    H141552   2.326   0.448  36.804 -0.8335 -0.3931  0.1573
 6687TIP3    H241553   2.316   0.585  36.868 -1.5506  0.9321 -2.6409
 6688TIP3   OH241554   2.476   4.058   7.577 -0.2264 -0.5007  0.2433
 6688TIP3    H141555   2.401   4.118   7.575 -1.7834 -2.2348 -3.3897
 6688TIP3    H241556   2.551   4.113   7.555 -1.0167  0.6600  0.3444
 6689TIP3   OH241557   2.113   1.422  37.663 -0.1220 -0.5799  0.3608
 6689TIP3    H141558   2.105   1.485  37.591 -2.6300 -1.7365 -0.4803
 6689TIP3    H241559   2.139   1.475  37.738 -0.4023  1.1582 -0.7108
 6690TIP3   OH241560   4.299   0.773  39.681 -0.0370 -0.1836  0.2407
 6690TIP3    H141561   4.337   0.824  39.753 -0.7505  0.9095 -0.1341
 6690TIP3    H241562   4.352   0.796  39.605  0.3469 -0.8877  0.2889
 6691TIP3   OH241563   2.607   0.533   0.852 -0.0482  0.4207  0.1446
 6691TIP3    H141564   2.668   0.469   0.889  0.5663  0.8143 -0.1788
 6691TIP3    H241565   2.576   0.582   0.928  1.3927  1.3838  0.1597
 6692TIP3   OH241566   1.008   3.068  33.218  0.1903  0.2372  0.1049
 6692TIP3    H141567   0.985   3.154  33.254  0.3898  0.0656  0.6520
 6692TIP3    H241568   1.096   3.079  33.183 -0.7789  0.9850 -2.2868
 6693TIP3   OH241569   3.505   3.992   5.353  0.5001 -0.2040  0.4225
 6693TIP3    H141570   3.410   3.983   5.345  0.5527 -2.3729  1.3719
 6693TIP3    H241571   3.519   4.085   5.369 -1.2799  0.4902 -1.5779
 6694TIP3   OH241572   2.251   2.705   1.403  0.9718 -0.0841  0.2654
 6694TIP3    H141573   2.280   2.692   1.493  1.6277  0.0427  0.0768
 6694TIP3    H241574   2.179   2.768   1.409  0.5051 -0.6588  0.7713
 6695TIP3   OH241575   4.343   2.117   3.255 -0.2420  0.4211 -0.4758
 6695TIP3    H141576   4.437   2.106   3.242  0.3729  1.3752  2.4997
 6695TIP3    H241577   4.327   2.088   3.345 -2.6547  1.0711 -0.6252
 6696TIP3   OH241578   3.303   2.339   8.893 -0.2948  0.2222 -0.2124
 6696TIP3    H141579   3.305   2.434   8.902 -1.4214  0.1534  1.1504
 6696TIP3    H241580   3.234   2.311   8.953 -0.2127 -1.4335 -0.8405
 6697TIP3   OH241581   2.742   3.282  41.521 -0.1885 -0.4277 -0.1120
 6697TIP3    H141582   2.650   3.266  41.502 -0.6141 -1.0930  2.1679
 6697TIP3    H241583   2.742   3.366  41.568  0.7766  1.0775 -2.5856
 6698TIP3   OH241584   4.210   0.507  40.013  0.2757 -0.1503 -0.1604
 6698TIP3    H141585   4.255   0.469  39.938 -1.8575 -0.4615 -1.3684
 6698TIP3    H241586   4.210   0.601  39.997  2.4499  0.1250  1.0441
 6699TIP3   OH241587   2.713   0.414   9.890  0.1063 -0.1673  0.0972
 6699TIP3    H141588   2.618   0.414   9.884  0.2056  0.6296 -2.5639
 6699TIP3    H241589   2.743   0.362   9.816  1.7748  0.4535  0.2763
 6700TIP3   OH241590   0.282   3.456  36.034 -0.9517 -0.0241  0.1217
 6700TIP3    H141591   0.205   3.438  35.980  0.8628  0.1921 -2.6983
 6700TIP3    H241592   0.319   3.370  36.053 -1.2478 -0.0621  0.5579
 6701TIP3   OH241593   2.905   2.136  33.502 -0.3901  0.1576  0.5364
 6701TIP3    H141594   2.894   2.041  33.490 -0.7513  0.0276  1.8142
 6701TIP3    H241595   2.823   2.165  33.540  0.5746  0.5722  2.3973
 6702TIP3   OH241596   2.530   3.344  37.581  0.1567 -0.6549 -0.1284
 6702TIP3    H141597   2.557   3.429  37.615 -0.3151 -0.2777 -0.6663
 6702TIP3    H241598   2.594   3.323  37.513 -0.1836 -0.3379 -0.5564
 6703TIP3   OH241599   3.920   2.411   0.361  0.5358  0.1990 -0.2499
 6703TIP3    H141600   3.919   2.377   0.451 -0.8977  0.1048 -0.2836
 6703TIP3    H241601   3.897   2.335   0.307  1.9828  0.1063 -0.7697
 6704TIP3   OH241602   3.820   3.186  34.928  0.2098  0.0441 -0.1458
 6704TIP3    H141603   3.780   3.113  34.976 -0.0415  0.2148 -0.0928
 6704TIP3    H241604   3.763   3.260  34.946 -0.1651 -0.0036 -1.1280
 6705TIP3   OH241605   2.709   0.226   1.896 -0.4503 -0.3520 -0.0934
 6705TIP3    H141606   2.622   0.260   1.876  0.0150  0.2463 -1.1976
 6705TIP3    H241607   2.768   0.300   1.880  0.5516 -1.5003 -2.1513
 6706TIP3   OH241608   2.662   1.104   0.640 -0.2127  1.1438 -0.0483
 6706TIP3    H141609   2.597   1.065   0.581 -1.2358  2.0519  0.4327
 6706TIP3    H241610   2.746   1.092   0.596 -0.8343  0.9016 -1.1982
 6707TIP3   OH241611   0.237   2.579  30.653 -0.4016 -0.2575 -0.4397
 6707TIP3    H141612   0.233   2.573  30.557 -2.2282  0.3307 -0.4286
 6707TIP3    H241613   0.238   2.489  30.683  2.0239 -0.4957 -1.0219
 6708TIP3   OH241614   3.218   3.381  26.745 -0.4930 -0.0529  0.5529
 6708TIP3    H141615   3.254   3.456  26.699 -0.5731 -0.8616 -0.9030
 6708TIP3    H241616   3.123   3.389  26.734 -0.4788 -0.6210 -0.0610
 6709TIP3   OH241617   3.979   4.398  21.547  0.1245 -0.3890 -0.2503
 6709TIP3    H141618   3.915   4.465  21.520 -0.6057 -1.0779 -0.2606
 6709TIP3    H241619   4.061   4.427  21.509 -0.6025 -0.6129 -2.1056
 6710TIP3   OH241620   1.784   1.395  31.715  0.1788  0.1784  0.4586
 6710TIP3    H141621   1.758   1.470  31.661 -0.1811 -0.5574 -0.4044
 6710TIP3    H241622   1.838   1.341  31.658 -1.1237 -1.1764  0.4529
 6711TIP3   OH241623   0.933   0.413   2.738 -0.0536 -0.4136  0.3600
 6711TIP3    H141624   0.908   0.334   2.786  1.6688 -0.9571  0.4105
 6711TIP3    H241625   1.027   0.423   2.755  0.1879  0.4776 -1.3066
 6712TIP3   OH241626   1.448   3.428  29.770 -0.0578  0.7676  0.2349
 6712TIP3    H141627   1.493   3.512  29.766  0.9924  0.2179  0.3129
 6712TIP3    H241628   1.511   3.365  29.735  0.0600 -0.3509  2.2805
 6713TIP3   OH241629   0.444   0.563   9.870 -0.2522 -0.9613 -0.2556
 6713TIP3    H141630   0.364   0.601   9.908  0.1849  0.4367 -0.6901
 6713TIP3    H241631   0.507   0.565   9.942  0.6405  1.8854 -0.9909
 6714TIP3   OH241632   1.508   1.324  37.428  0.5248  0.5943 -0.2557
 6714TIP3    H141633   1.548   1.320  37.514 -0.0536 -1.2216 -0.0352
 6714TIP3    H241634   1.504   1.233  37.398 -1.9094  0.8539 -0.9470
 6715TIP3   OH241635   0.265   1.128   4.305 -0.2591  0.3922 -0.0839
 6715TIP3    H141636   0.173   1.103   4.309  0.0554 -0.6627  1.6561
 6715TIP3    H241637   0.310   1.051   4.271  0.1311  0.3728  0.4476
 6716TIP3   OH241638   2.267   0.404  13.159 -0.1482 -0.0742 -0.2592
 6716TIP3    H141639   2.318   0.460  13.102  1.0951 -1.4956 -0.6108
 6716TIP3    H241640   2.332   0.346  13.200 -1.2491 -0.5254  0.9154
 6717TIP3   OH241641   2.644   2.904   3.190 -0.2420 -0.2380 -0.1552
 6717TIP3    H141642   2.619   2.814   3.208 -1.3524 -0.1727 -1.2288
 6717TIP3    H241643   2.579   2.957   3.237  0.1128 -0.0077  0.0805
 6718TIP3   OH241644   4.146   2.289  27.037 -0.2511 -0.3397 -0.7865
 6718TIP3    H141645   4.088   2.237  27.093  0.0844  0.1027 -0.0116
 6718TIP3    H241646   4.136   2.251  26.950  0.7604 -2.4044 -0.0795
 6719TIP3   OH241647   3.468   0.941   9.666  0.3140  0.3165 -0.1294
 6719TIP3    H141648   3.415   0.866   9.694  0.0564  0.0078 -1.3589
 6719TIP3    H241649   3.408   0.995   9.615  1.0195  0.2767 -1.0253
 6720TIP3   OH241650   2.858   2.337  28.713 -0.2346 -0.0876 -0.2314
 6720TIP3    H141651   2.936   2.366  28.665  0.2312 -1.5773 -0.4379
 6720TIP3    H241652   2.796   2.313  28.644 -0.6056  0.3739 -0.0648
 6721TIP3   OH241653   0.934   2.796  26.810  0.7739 -0.7571  0.2619
 6721TIP3    H141654   0.900   2.740  26.740  1.5293 -0.3497 -0.4475
 6721TIP3    H241655   1.020   2.760  26.830  1.1162 -0.0836  0.0445
 6722TIP3   OH241656   1.891   1.392  16.522  0.0672  0.6452  0.2280
 6722TIP3    H141657   1.902   1.355  16.434 -2.8509 -0.0735  0.0526
 6722TIP3    H241658   1.978   1.422  16.546  1.6762 -2.0857 -1.5864
 6723TIP3   OH241659   1.105   1.686   8.260 -0.5988 -0.6469  0.1214
 6723TIP3    H141660   1.199   1.694   8.274 -0.5380  3.3062 -1.2036
 6723TIP3    H241661   1.077   1.616   8.320  2.8097 -0.3267  2.3412
 6724TIP3   OH241662   4.220   1.470  29.629 -0.2449 -0.2317 -0.4643
 6724TIP3    H141663   4.230   1.547  29.685  0.1605  1.3516 -2.5748
 6724TIP3    H241664   4.307   1.430  29.629  0.0553  0.4059 -0.8396
 6725TIP3   OH241665   1.476   3.393  16.192 -0.4329 -0.0196 -0.7856
 6725TIP3    H141666   1.425   3.323  16.233 -0.5746  0.5252 -0.0258
 6725TIP3    H241667   1.420   3.470  16.198  0.4066  0.5507 -0.1076
 6726TIP3   OH241668   2.209   1.599  37.868 -0.3390  0.2946 -0.0976
 6726TIP3    H141669   2.276   1.609  37.935 -0.3442 -0.1663 -0.0166
 6726TIP3    H241670   2.188   1.689  37.841  0.9562  0.4179 -0.7685
 6727TIP3   OH241671   3.300   1.808  30.011 -0.3033 -0.1329 -0.1417
 6727TIP3    H141672   3.275   1.898  29.995  0.5014  0.2348  0.5869
 6727TIP3    H241673   3.384   1.798  29.966 -1.0471 -0.9510 -1.4188
 6728TIP3   OH241674   4.218   0.723   2.684  0.7681 -0.2307  0.3968
 6728TIP3    H141675   4.235   0.633   2.710  0.7809 -0.3141  0.1021
 6728TIP3    H241676   4.156   0.716   2.612  2.0810 -0.0932 -0.7775
 6729TIP3   OH241677   0.653   3.526  31.713 -0.2323 -0.1198 -0.1649
 6729TIP3    H141678   0.681   3.441  31.748 -3.3542 -2.0861 -1.9642
 6729TIP3    H241679   0.591   3.559  31.779  0.4380  0.4486  0.1920
 6730TIP3   OH241680   4.097   2.679  39.904 -0.6172 -0.3332  0.3537
 6730TIP3    H141681   4.146   2.628  39.968  3.0301  1.3205 -0.8786
 6730TIP3    H241682   4.110   2.634  39.821 -1.3957  0.0318  0.0207
 6731TIP3   OH241683   1.667   3.780  13.171  0.1883 -0.0619 -0.0076
 6731TIP3    H141684   1.709   3.847  13.118 -1.3003 -0.8503 -2.3681
 6731TIP3    H241685   1.573   3.800  13.165 -0.2698 -2.1179 -0.5771
 6732TIP3   OH241686   1.663   3.733  30.963 -0.3831 -0.0454  0.1285
 6732TIP3    H141687   1.654   3.702  30.873 -0.6971 -0.5391  0.3235
 6732TIP3    H241688   1.639   3.657  31.016  0.0109  0.1773  0.6302
 6733TIP3   OH241689   2.044   1.827  10.143  0.2751 -0.7369 -0.0398
 6733TIP3    H141690   2.137   1.842  10.163  0.3374 -0.3543 -0.6210
 6733TIP3    H241691   1.998   1.852  10.223  0.6039 -0.1068 -0.0438
 6734TIP3   OH241692   4.063   2.123  29.683  0.4059  0.4429 -0.2023
 6734TIP3    H141693   4.008   2.169  29.746 -1.2048 -1.3470 -0.2055
 6734TIP3    H241694   4.082   2.039  29.724  0.5534 -0.1852 -1.5015
 6735TIP3   OH241695   2.385   1.720  32.182 -0.2013 -0.0886  0.5216
 6735TIP3    H141696   2.437   1.783  32.133 -0.1416  0.6661  1.5287
 6735TIP3    H241697   2.321   1.687  32.119  1.6219 -1.2424 -0.8335
 6736TIP3   OH241698   2.134   2.253   9.598 -0.9783 -0.2716 -0.0346
 6736TIP3    H141699   2.170   2.314   9.533 -1.1187 -0.1112  0.0383
 6736TIP3    H241700   2.066   2.303   9.643  0.1506  0.1291  1.2950
 6737TIP3   OH241701   1.254   0.748  40.318 -0.8604 -0.5290 -0.6393
 6737TIP3    H141702   1.286   0.710  40.236  1.0650  0.8074 -0.5710
 6737TIP3    H241703   1.255   0.676  40.380 -1.2772 -1.3037 -1.5082
 6738TIP3   OH241704   0.109   4.036   4.252 -0.0842  0.0145  0.0612
 6738TIP3    H141705   0.033   3.986   4.280 -0.5735  0.5516 -0.3066
 6738TIP3    H241706   0.133   3.999   4.168  0.2540 -0.3601  0.3198
 6739TIP3   OH241707   4.158   3.493  37.580 -0.1311  0.4315 -0.2455
 6739TIP3    H141708   4.064   3.480  37.573 -0.3329  2.1960 -1.1700
 6739TIP3    H241709   4.193   3.469  37.494  0.3790 -0.8306  0.2802
 6740TIP3   OH241710   3.314   2.547  12.012  0.2315 -0.0253  0.3996
 6740TIP3    H141711   3.273   2.513  11.932 -1.1508 -1.6473  1.7276
 6740TIP3    H241712   3.269   2.630  12.029 -1.6995 -1.1574  1.1205
 6741TIP3   OH241713   1.995   0.174   4.358 -0.8746 -0.1865  0.0906
 6741TIP3    H141714   1.922   0.164   4.419 -0.0549  1.0380  1.3362
 6741TIP3    H241715   2.067   0.128   4.399  0.1045  1.9107  0.8818
 6742TIP3   OH241716   1.881   1.123   9.887 -0.3263 -0.1127 -0.4121
 6742TIP3    H141717   1.957   1.181   9.894 -0.7838  0.8000 -2.4311
 6742TIP3    H241718   1.905   1.047   9.941  1.8772  0.2823 -0.7174
 6743TIP3   OH241719   0.240   2.017   8.865 -0.0622 -0.2100 -0.3359
 6743TIP3    H141720   0.209   1.972   8.943 -0.1110  2.9410  1.6331
 6743TIP3    H241721   0.335   2.000   8.864  0.2243  1.1020  1.4579
 6744TIP3   OH241722   3.939   0.629  21.793 -0.1603  0.6566 -0.2009
 6744TIP3    H141723   4.014   0.660  21.742 -0.4296 -0.0646 -1.0520
 6744TIP3    H241724   3.956   0.536  21.808 -0.6220  0.6120  0.0753
 6745TIP3   OH241725   0.307   1.858  31.346  0.1688 -0.3801  0.2566
 6745TIP3    H141726   0.246   1.846  31.419 -0.1812  0.1540  0.0532
 6745TIP3    H241727   0.271   1.804  31.276  1.6990 -2.7138  1.1457
 6746TIP3   OH241728   1.330   3.902  28.293  0.0218 -1.0563  1.2810
 6746TIP3    H141729   1.239   3.872  28.299 -0.7042  0.5994 -0.4031
 6746TIP3    H241730   1.322   3.997  28.284  1.7852 -1.0582 -1.1551
 6747TIP3   OH241731   3.282   1.578  40.413  0.2617  0.0237  0.0325
 6747TIP3    H141732   3.373   1.597  40.391  0.2393  0.2936  0.1712
 6747TIP3    H241733   3.276   1.595  40.508 -0.0035  0.2907 -0.0293
 6748TIP3   OH241734   4.332   2.791   1.706 -0.3727 -0.4924  0.0963
 6748TIP3    H141735   4.367   2.828   1.625 -2.6218 -2.3154 -1.8674
 6748TIP3    H241736   4.286   2.863   1.748 -2.6922 -0.3054 -2.4418
 6749TIP3   OH241737   1.623   1.041  15.555  0.4343  0.0886  0.1308
 6749TIP3    H141738   1.574   1.092  15.491  0.2298  1.0642  1.0469
 6749TIP3    H241739   1.711   1.032  15.516  0.0990 -0.0030 -0.6269
 6750TIP3   OH241740   3.125   1.545  28.629 -0.1123  0.1209 -0.7079
 6750TIP3    H141741   3.080   1.496  28.559 -3.9157  0.1956  1.4411
 6750TIP3    H241742   3.146   1.479  28.695  1.1285  0.4314 -0.7659
 6751TIP3   OH241743   1.686   3.409   2.853 -0.3034 -0.2160 -0.0208
 6751TIP3    H141744   1.777   3.379   2.854  0.3450  1.6074 -0.7206
 6751TIP3    H241745   1.656   3.399   2.944  0.1985 -1.8848 -0.0069
 6752TIP3   OH241746   0.116   4.230   7.205 -0.2160 -0.2624 -0.1595
 6752TIP3    H141747   0.174   4.155   7.188  0.9610  0.7107 -0.5591
 6752TIP3    H241748   0.152   4.301   7.152 -0.5048  0.9613  1.2056
 6753TIP3   OH241749   2.205   1.771   3.781 -0.2144  0.2829  0.2017
 6753TIP3    H141750   2.295   1.779   3.813  0.3947 -0.8969 -1.0786
 6753TIP3    H241751   2.204   1.820   3.699 -0.5323 -0.3162 -0.1584
 6754TIP3   OH241752   2.526   3.200   6.578  0.3228  0.1309 -0.0080
 6754TIP3    H141753   2.486   3.181   6.493  0.8224 -0.9022 -0.0256
 6754TIP3    H241754   2.459   3.250   6.625 -0.4548 -0.3814 -0.5436
 6755TIP3   OH241755   3.987   4.353  41.338 -0.0643  0.1327 -0.3037
 6755TIP3    H141756   4.060   4.387  41.287  0.8303  1.3893  1.6615
 6755TIP3    H241757   4.027   4.291  41.399 -0.7912  0.0292  0.0849
 6756TIP3   OH241758   3.709   2.930  28.403  0.4905  0.1870 -0.4254
 6756TIP3    H141759   3.676   2.991  28.337 -0.9846  1.2906  1.2466
 6756TIP3    H241760   3.799   2.959  28.419  0.0546  1.4828 -0.1932
 6757TIP3   OH241761   0.266   0.971  28.216  0.2010  0.5264  0.2909
 6757TIP3    H141762   0.354   1.003  28.195  0.2658  0.9467  1.1547
 6757TIP3    H241763   0.256   0.989  28.310  0.7453 -3.1659  1.1976
 6758TIP3   OH241764   1.871   0.369  28.395 -0.8383  0.0959  0.3817
 6758TIP3    H141765   1.897   0.459  28.418 -2.6554  0.8538 -0.3105
 6758TIP3    H241766   1.784   0.379  28.356 -0.7931 -1.9135 -0.3308
 6759TIP3   OH241767   3.702   0.158  35.753 -0.2715 -0.4809  0.3153
 6759TIP3    H141768   3.788   0.129  35.782 -1.0580 -1.6408  1.6180
 6759TIP3    H241769   3.705   0.151  35.657  2.6078  3.9988 -0.2429
 6760TIP3   OH241770   2.474   2.716  29.955 -0.0753 -0.0632  0.2594
 6760TIP3    H141771   2.411   2.664  29.905 -0.3805 -1.4700  2.0085
 6760TIP3    H241772   2.497   2.788  29.897 -2.1452 -0.3434 -1.0082
 6761TIP3   OH241773   4.111   1.707  24.917  0.1431 -0.1475  0.1345
 6761TIP3    H141774   4.076   1.778  24.863 -0.8210 -0.6873  0.0262
 6761TIP3    H241775   4.163   1.751  24.984  1.0572  0.5605 -0.9946
 6762TIP3   OH241776   2.135   1.267   9.845  0.2857  0.1779  0.2115
 6762TIP3    H141777   2.178   1.225   9.920  1.9532  1.6759  0.1767
 6762TIP3    H241778   2.161   1.359   9.851 -0.2259  0.5030 -1.7416
 6763TIP3   OH241779   4.370   3.326  13.506  0.1168  0.2350  0.0618
 6763TIP3    H141780   4.409   3.414  13.512  0.9543 -0.0054 -1.4130
 6763TIP3    H241781   4.289   3.339  13.457 -0.7842  0.4606  1.5658
 6764TIP3   OH241782   3.906   3.195   1.699  0.0963  0.0720 -0.8170
 6764TIP3    H141783   3.848   3.256   1.654  1.9502  1.1635 -1.8300
 6764TIP3    H241784   3.882   3.109   1.663 -0.5038  0.5685 -1.6317
 6765TIP3   OH241785   0.769   0.565  39.241  0.5407 -0.1107 -0.1182
 6765TIP3    H141786   0.737   0.475  39.234  0.3097  0.0293 -1.0986
 6765TIP3    H241787   0.781   0.593  39.150 -1.2679  1.5139  0.0903
 6766TIP3   OH241788   0.423   1.458  33.378  0.6803 -0.1781 -0.2483
 6766TIP3    H141789   0.395   1.523  33.442 -0.9495 -1.2045  0.1423
 6766TIP3    H241790   0.361   1.469  33.305  1.8320  0.2376 -1.1959
 6767TIP3   OH241791   3.717   4.029  32.839 -0.0471  0.3284  0.4242
 6767TIP3    H141792   3.668   4.014  32.758  1.0049  1.2121 -0.4049
 6767TIP3    H241793   3.767   4.109  32.822  1.1090 -0.1367  1.5091
 6768TIP3   OH241794   1.312   3.623  11.099 -0.6073  0.4889 -0.0670
 6768TIP3    H141795   1.275   3.624  11.187 -2.4088  0.1820 -0.7783
 6768TIP3    H241796   1.324   3.530  11.079  0.7962  0.5894  0.2300
 6769TIP3   OH241797   2.462   2.818  29.203  0.0609  0.1243 -0.1665
 6769TIP3    H141798   2.531   2.752  29.202  1.2369  1.2930 -0.5684
 6769TIP3    H241799   2.444   2.834  29.296  0.5178 -0.0199 -0.0525
 6770TIP3   OH241800   0.079   1.331   2.701 -0.2970  0.1317 -0.0794
 6770TIP3    H141801  -0.008   1.298   2.678 -1.3049  0.2366  3.0812
 6770TIP3    H241802   0.068   1.426   2.711  0.1268  0.1230  0.5411
 6771TIP3   OH241803   3.482   0.026   6.715  0.0310  0.3009 -0.6414
 6771TIP3    H141804   3.526  -0.035   6.656 -1.3953  0.7739 -2.2809
 6771TIP3    H241805   3.549   0.090   6.738  1.5884 -1.7945  1.1670
 6772TIP3   OH241806   2.283   2.669  27.538  0.0144 -0.0045 -0.3870
 6772TIP3    H141807   2.239   2.699  27.458 -0.8757  1.8677  0.7261
 6772TIP3    H241808   2.239   2.587  27.560 -0.4702  0.0166 -1.2287
 6773TIP3   OH241809   2.878   1.875  35.974 -0.4704  0.4160 -0.3602
 6773TIP3    H141810   2.882   1.883  36.069 -0.6552  1.2258 -0.4160
 6773TIP3    H241811   2.929   1.797  35.955 -1.4145 -0.4506  0.4929
 6774TIP3   OH241812   0.417   2.158   0.508  0.4555  0.1710 -0.1722
 6774TIP3    H141813   0.381   2.203   0.584  1.0175 -0.4191  0.4592
 6774TIP3    H241814   0.500   2.122   0.539 -0.5101 -2.3301 -0.2953
 6775TIP3   OH241815   0.267   4.126  33.195 -0.0414  0.6154  0.3581
 6775TIP3    H141816   0.179   4.118  33.157  0.5335  0.5248 -1.0039
 6775TIP3    H241817   0.323   4.151  33.121  0.8021  2.3864  1.5182
 6776TIP3   OH241818   3.508   2.251  27.973 -0.7260  0.1223 -0.5288
 6776TIP3    H141819   3.447   2.219  27.907 -0.7107 -2.3436  0.5553
 6776TIP3    H241820   3.584   2.279  27.923 -0.7664 -1.5439 -1.6015
 6777TIP3   OH241821   0.225   2.778  11.267  1.0127  0.5855  0.2925
 6777TIP3    H141822   0.243   2.871  11.280  1.9880  0.3708  0.6196
 6777TIP3    H241823   0.219   2.768  11.172 -2.4447  1.5273  0.2891
 6778TIP3   OH241824   1.726   1.289   3.451  0.2691 -0.5057  0.3360
 6778TIP3    H141825   1.745   1.380   3.426 -1.2860 -0.7558 -2.0742
 6778TIP3    H241826   1.676   1.297   3.532 -1.4106  0.9843 -0.7686
 6779TIP3   OH241827   2.781   2.171   2.579 -0.3244  0.6270 -0.7576
 6779TIP3    H141828   2.730   2.252   2.577 -0.2705  0.6578 -0.9933
 6779TIP3    H241829   2.762   2.129   2.495 -0.2547  0.4568 -0.6887
 6780TIP3   OH241830   0.469   1.933  12.207  0.4740  0.5798 -0.4796
 6780TIP3    H141831   0.377   1.924  12.232  0.5000 -1.3854 -0.9900
 6780TIP3    H241832   0.466   1.966  12.117  0.2972  0.8370 -0.3836
 6781TIP3   OH241833   4.233   2.914  26.512 -0.1797  0.3973 -0.0189
 6781TIP3    H141834   4.177   2.897  26.437  0.2976  1.1825 -0.5651
 6781TIP3    H241835   4.274   2.999  26.494  1.9778 -0.5992 -0.1562
 6782TIP3   OH241836   3.034   3.463  30.944 -0.5126 -0.4158 -0.1829
 6782TIP3    H141837   2.957   3.518  30.953  0.4419  1.2236 -1.4476
 6782TIP3    H241838   3.103   3.522  30.913  0.6383 -2.2462 -1.3744
 6783TIP3   OH241839   3.600   2.268   7.631  0.1136  0.1055  0.4426
 6783TIP3    H141840   3.639   2.214   7.700 -1.2101  1.3126  2.2090
 6783TIP3    H241841   3.511   2.287   7.663 -0.2453  1.4083 -1.2074
 6784TIP3   OH241842   3.464   0.483  10.472  0.2114 -0.4380  0.3290
 6784TIP3    H141843   3.406   0.536  10.527  1.6665  2.3281 -0.5988
 6784TIP3    H241844   3.434   0.498  10.383 -0.3821 -2.6448  0.0951
 6785TIP3   OH241845   1.382   0.054  31.914 -0.0502 -0.3406 -0.2029
 6785TIP3    H141846   1.476   0.037  31.909 -0.0342 -0.7454  1.1290
 6785TIP3    H241847   1.363   0.058  32.008 -1.0307  1.6618 -0.4318
 6786TIP3   OH241848   2.779   0.214  12.263  0.2693  0.5084 -0.5216
 6786TIP3    H141849   2.802   0.273  12.335 -0.2365  1.6588 -1.2749
 6786TIP3    H241850   2.861   0.171  12.240  0.6164  0.7948  0.1441
 6787TIP3   OH241851   1.651   1.781  35.990  0.2507  0.2252 -0.0355
 6787TIP3    H141852   1.689   1.802  36.075  0.9765  0.1787 -0.3389
 6787TIP3    H241853   1.608   1.697  36.003 -0.8505  0.8666  0.6329
 6788TIP3   OH241854   2.505   0.614  35.254 -0.3324 -0.4397  0.1589
 6788TIP3    H141855   2.418   0.653  35.251 -0.1174  0.1359  1.0428
 6788TIP3    H241856   2.557   0.675  35.307  0.3089 -1.3428  0.5980
 6789TIP3   OH241857   3.814   2.891  38.987  0.3044  0.4544  0.3000
 6789TIP3    H141858   3.778   2.973  38.955  1.8854  1.6026  1.2987
 6789TIP3    H241859   3.747   2.825  38.968 -2.0478  2.3415  1.5860
 6790TIP3   OH241860   3.853   2.494  21.840 -0.1214  0.0328 -0.7096
 6790TIP3    H141861   3.782   2.533  21.892 -0.0454 -2.1944  1.2060
 6790TIP3    H241862   3.931   2.508  21.893  0.0540 -1.8232 -0.4355
 6791TIP3   OH241863   1.812   1.946  16.159 -0.0501 -0.4479  0.2763
 6791TIP3    H141864   1.904   1.972  16.155 -0.2286  0.1132 -0.3117
 6791TIP3    H241865   1.783   1.947  16.067 -0.6684 -0.5252  0.4692
 6792TIP3   OH241866   3.580   1.515   4.212 -0.0166  0.0711 -0.2321
 6792TIP3    H141867   3.621   1.544   4.294  0.9255  0.4836 -0.8348
 6792TIP3    H241868   3.497   1.562   4.208  0.0871  0.3080  0.3188
 6793TIP3   OH241869   3.363   4.354   1.404  0.2015 -0.1289 -0.0269
 6793TIP3    H141870   3.362   4.447   1.385 -2.0952  0.0186  0.5215
 6793TIP3    H241871   3.454   4.328   1.393  1.0685  2.3496  0.7143
 6794TIP3   OH241872   3.124   1.875   2.636  0.3813  0.3148 -0.5033
 6794TIP3    H141873   3.104   1.926   2.557  1.5194 -1.9860 -2.3951
 6794TIP3    H241874   3.216   1.850   2.625  0.5051 -0.2754  1.4846
 6795TIP3   OH241875   0.415   1.996  40.544 -0.0297  0.2005  0.2322
 6795TIP3    H141876   0.502   2.034  40.531 -0.2039  0.9442  1.1640
 6795TIP3    H241877   0.432   1.915  40.593  0.1506  0.3408  0.4084
 6796TIP3   OH241878   1.580   1.593  28.757  0.6218  0.0897 -0.5044
 6796TIP3    H141879   1.494   1.576  28.719 -0.1071  1.7611  0.3209
 6796TIP3    H241880   1.562   1.613  28.849  1.9045  0.3778 -0.3020
 6797TIP3   OH241881   1.361   0.926  39.644 -0.4606 -0.1326 -0.3204
 6797TIP3    H141882   1.416   0.879  39.580 -1.8383 -0.8236 -1.0416
 6797TIP3    H241883   1.412   1.005  39.665  1.6885 -1.6391  0.5241
 6798TIP3   OH241884   1.655   2.116   5.412 -0.5907 -0.0171 -0.4452
 6798TIP3    H141885   1.743   2.124   5.374 -0.5427  0.0816 -0.3120
 6798TIP3    H241886   1.597   2.115   5.336 -0.5394  0.7071 -0.5000
 6799TIP3   OH241887   1.400   0.151   6.117 -0.3285 -0.1336 -0.7562
 6799TIP3    H141888   1.495   0.149   6.122 -0.3203  1.8534  1.7787
 6799TIP3    H241889   1.371   0.073   6.164  0.0681  0.6025  0.7430
 6800TIP3   OH241890   0.490   3.524  33.715 -0.2099  0.4392  0.7935
 6800TIP3    H141891   0.493   3.521  33.811 -0.8254 -2.9621  0.8158
 6800TIP3    H241892   0.580   3.506  33.687 -0.5359 -1.3551  0.8051
 6801TIP3   OH241893   2.217   3.165  38.955  0.7364 -0.2575  0.3347
 6801TIP3    H141894   2.171   3.104  38.897  0.2744 -0.0608  0.4835
 6801TIP3    H241895   2.169   3.161  39.037  1.3146 -0.4393  0.6676
 6802TIP3   OH241896   2.214   2.522   0.922 -0.3447  0.3287 -0.2445
 6802TIP3    H141897   2.262   2.442   0.902 -0.9546  0.1777 -1.1690
 6802TIP3    H241898   2.188   2.512   1.014 -0.0429 -0.3328 -0.2247
 6803TIP3   OH241899   2.643   4.188  11.753  0.3413  0.4472 -0.1909
 6803TIP3    H141900   2.561   4.205  11.799  0.5713  3.3879 -0.6396
 6803TIP3    H241901   2.631   4.228  11.667  2.4489  1.6435 -0.0046
 6804TIP3   OH241902   2.008   1.387  12.755 -0.6381 -0.0599  0.1085
 6804TIP3    H141903   1.982   1.471  12.717 -1.8903  0.6954  2.4253
 6804TIP3    H241904   1.974   1.321  12.694 -3.6815  1.0475  0.4066
 6805TIP3   OH241905   0.752   2.059   4.270  0.3516 -0.0834  0.1626
 6805TIP3    H141906   0.743   2.032   4.178 -1.2396 -1.4523  0.6671
 6805TIP3    H241907   0.835   2.022   4.298  1.8230  1.9627 -1.1903
 6806TIP3   OH241908   0.240   0.695  11.362  0.1145  0.4610 -0.1968
 6806TIP3    H141909   0.263   0.624  11.302 -1.8815  1.1858 -1.9432
 6806TIP3    H241910   0.234   0.653  11.448  0.0421 -1.2688 -1.0090
 6807TIP3   OH241911   1.110   4.207   6.601  0.5004  0.3609  0.7430
 6807TIP3    H141912   1.078   4.244   6.518  0.6990 -0.5738  0.2444
 6807TIP3    H241913   1.196   4.247   6.613  1.5929 -1.3936 -0.8122
 6808TIP3   OH241914   3.216   3.710   6.773 -0.5477  0.0283 -0.1955
 6808TIP3    H141915   3.264   3.775   6.824  0.5107  1.1373 -2.4698
 6808TIP3    H241916   3.126   3.742   6.774 -0.5317  0.0894  0.8263
 6809TIP3   OH241917   3.502   2.574  10.749 -0.1704  0.2584 -0.0096
 6809TIP3    H141918   3.566   2.520  10.796 -0.0872  0.2456 -0.1391
 6809TIP3    H241919   3.503   2.658  10.795 -0.3070  0.1470  0.1980
 6810TIP3   OH241920   1.812   4.323  34.454  0.1165  0.4886 -0.5405
 6810TIP3    H141921   1.759   4.400  34.472  0.3533  0.7047 -0.7509
 6810TIP3    H241922   1.855   4.303  34.538  2.8903  2.7769 -1.2556
 6811TIP3   OH241923   2.772   2.518  33.540  0.5666 -0.3860  0.2186
 6811TIP3    H141924   2.707   2.486  33.602  0.7941 -0.3053  0.4979
 6811TIP3    H241925   2.723   2.529  33.458  0.1179  0.1322  0.5484
 6812TIP3   OH241926   0.450   2.755   8.663  0.3428  0.3778 -0.0451
 6812TIP3    H141927   0.532   2.713   8.686 -0.2190 -0.2326  0.9213
 6812TIP3    H241928   0.469   2.805   8.583  2.0018  1.3549  0.9022
 6813TIP3   OH241929   1.883   3.052  33.598  0.6483  0.8930  0.0723
 6813TIP3    H141930   1.879   3.068  33.692  0.3329  0.2175  0.1786
 6813TIP3    H241931   1.944   2.978  33.590 -0.2271  0.1885 -0.1543
 6814TIP3   OH241932   4.118   2.805  36.477  0.0337 -0.0805 -0.4222
 6814TIP3    H141933   4.081   2.737  36.420  1.5187 -0.8796 -0.5002
 6814TIP3    H241934   4.087   2.887  36.440  1.5789 -0.5204 -2.9269
 6815TIP3   OH241935   3.972   0.226  23.500 -0.3136  0.0861  0.2300
 6815TIP3    H141936   3.960   0.199  23.409 -1.6665  0.5912  0.2288
 6815TIP3    H241937   4.022   0.155  23.540 -2.4542 -1.7492 -0.1518
 6816TIP3   OH241938   1.678   3.006   0.080 -0.0081 -0.7723 -0.1129
 6816TIP3    H141939   1.683   3.029  -0.013  1.8546 -0.2450  0.0795
 6816TIP3    H241940   1.759   2.957   0.097 -0.6811 -1.5188  1.0735
 6817TIP3   OH241941   2.284   4.152  34.430  0.6997 -0.0636 -0.2653
 6817TIP3    H141942   2.267   4.227  34.373  0.4326  0.6849  0.7791
 6817TIP3    H241943   2.261   4.182  34.518  0.4985 -1.3992  0.1665
 6818TIP3   OH241944   0.240   1.464  22.031 -0.1779 -0.0151  0.1668
 6818TIP3    H141945   0.257   1.553  21.999  2.8243 -0.6731 -0.3190
 6818TIP3    H241946   0.243   1.472  22.126  0.9925  0.2782  0.1195
 6819TIP3   OH241947   3.071   0.392  10.567  0.4125  0.3719  0.0702
 6819TIP3    H141948   2.998   0.414  10.624 -0.3444 -2.1198  0.1871
 6819TIP3    H241949   3.042   0.419  10.479  0.0042  0.8079  0.3360
 6820TIP3   OH241950   2.666   3.230  10.010 -0.2970  0.5104 -0.6661
 6820TIP3    H141951   2.576   3.212  10.039 -0.4963 -0.5671 -1.8770
 6820TIP3    H241952   2.699   3.145   9.981  2.0002  0.3543  1.9767
 6821TIP3   OH241953   4.209   1.926  21.529  0.0137  1.3338 -0.2891
 6821TIP3    H141954   4.198   1.929  21.624 -0.8295  1.8242 -0.4004
 6821TIP3    H241955   4.199   2.017  21.501 -3.0691  0.7907 -1.1988
 6822TIP3   OH241956   3.157   0.413   8.993  0.0292 -0.6378 -0.1220
 6822TIP3    H141957   3.069   0.433   8.961 -0.2045 -2.4394 -0.7226
 6822TIP3    H241958   3.216   0.460   8.934 -0.4938 -1.1864 -1.0939
 6823TIP3   OH241959   3.776   0.489   3.061  0.2982 -0.4922 -0.3283
 6823TIP3    H141960   3.698   0.515   3.012  0.3658  0.9137  0.2593
 6823TIP3    H241961   3.849   0.524   3.009  0.3776  0.8346  0.6270
 6824TIP3   OH241962   2.488   1.065  36.247  0.1343 -0.8143  0.0301
 6824TIP3    H141963   2.511   1.142  36.194  0.1030 -0.8189  0.0103
 6824TIP3    H241964   2.480   1.098  36.336  0.0471 -0.7791  0.0100
 6825TIP3   OH241965   3.405   1.050  10.687  0.0558  0.4337 -0.2575
 6825TIP3    H141966   3.499   1.067  10.689  0.0347  0.5009  1.5696
 6825TIP3    H241967   3.371   1.113  10.624  1.2646  0.1504 -1.2294
 6826TIP3   OH241968   0.410   0.327  30.931 -0.7390  0.4949  0.2034
 6826TIP3    H141969   0.457   0.290  31.005 -1.1265 -0.3552  0.0323
 6826TIP3    H241970   0.339   0.379  30.970 -1.0972 -0.1585  0.4284
 6827TIP3   OH241971   1.985   3.989  33.217  0.5241 -0.6487  0.2026
 6827TIP3    H141972   2.053   4.004  33.284 -0.5212 -2.1564  1.6893
 6827TIP3    H241973   2.014   3.910  33.171  2.2366  1.4076 -2.5834
 6828TIP3   OH241974   1.305   0.020  29.952  0.2026 -0.0483 -0.0429
 6828TIP3    H141975   1.305  -0.027  29.869 -1.6396  1.7252 -1.1401
 6828TIP3    H241976   1.363   0.095  29.936  0.1828  0.0689  0.4349
 6829TIP3   OH241977   2.914   0.865  10.505  0.1865  0.2546 -0.5699
 6829TIP3    H141978   2.952   0.803  10.567 -0.2581  1.6386  1.1797
 6829TIP3    H241979   2.960   0.947  10.522 -0.0947  0.7287 -1.9627
 6830TIP3   OH241980   0.784   2.730  35.494 -0.5392  0.5926  0.1185
 6830TIP3    H141981   0.812   2.724  35.585  1.4146 -0.9154 -0.5134
 6830TIP3    H241982   0.863   2.757  35.446 -1.5376  1.4116 -1.1472
 6831TIP3   OH241983   1.736   4.235  35.586 -0.8255 -0.1396 -0.0417
 6831TIP3    H141984   1.737   4.312  35.529  0.5314 -0.6047 -0.6900
 6831TIP3    H241985   1.657   4.188  35.560 -0.6868  0.0993 -0.9521
 6832TIP3   OH241986   1.080   4.399  36.185 -0.1463 -0.1015  0.0488
 6832TIP3    H141987   1.017   4.350  36.132  1.5283  0.2922 -2.4985
 6832TIP3    H241988   1.112   4.335  36.249 -1.6168 -0.8754  0.0555
 6833TIP3   OH241989   0.161   3.528  30.711  0.6485 -0.0712  0.5819
 6833TIP3    H141990   0.257   3.536  30.717  0.9416 -2.5183  0.2249
 6833TIP3    H241991   0.147   3.448  30.662 -1.5537 -1.6794  3.5442
 6834TIP3   OH241992   3.613   2.655  11.288 -0.1550 -0.1121 -0.7023
 6834TIP3    H141993   3.555   2.723  11.256 -0.6154 -0.5864 -0.8795
 6834TIP3    H241994   3.673   2.637  11.216 -1.0203 -0.9890 -1.2336
 6835TIP3   OH241995   4.180   0.438   7.882  0.2364  0.3248  0.5646
 6835TIP3    H141996   4.119   0.463   7.951  1.2632  3.1805  0.5359
 6835TIP3    H241997   4.218   0.520   7.852  1.5481 -1.0506 -1.8220
 6836TIP3   OH241998   0.248   2.468   1.233  0.5143 -0.1244  0.4361
 6836TIP3    H141999   0.297   2.514   1.165  0.1996 -1.0338 -0.4238
 6836TIP3    H242000   0.157   2.475   1.206  0.4689 -1.2978  0.2542
 6837TIP3   OH242001   2.713   1.515  10.399 -0.2492 -0.2844  0.0262
 6837TIP3    H142002   2.701   1.422  10.415 -1.2814 -0.1315  0.2067
 6837TIP3    H242003   2.790   1.540  10.451 -0.7187 -0.7714  0.9676
 6838TIP3   OH242004   1.259   1.007  12.685  0.0453 -0.7890  0.0403
 6838TIP3    H142005   1.313   1.082  12.661 -0.6525 -0.6611 -1.1849
 6838TIP3    H242006   1.317   0.952  12.738  0.1826  1.2387  2.1501
 6839TIP3   OH242007   1.068   2.513  28.084 -0.0802  0.2124  0.3426
 6839TIP3    H142008   1.142   2.559  28.122 -0.1273 -0.0940  0.8091
 6839TIP3    H242009   1.020   2.580  28.036  1.0100  0.2419 -0.7607
 6840TIP3   OH242010   1.810   0.079  18.239 -0.1844  0.2692  0.6750
 6840TIP3    H142011   1.811   0.173  18.227 -0.0744  0.2368  0.4134
 6840TIP3    H242012   1.721   0.058  18.265 -0.3813  0.3681  0.0912
 6841TIP3   OH242013   0.804   1.154  33.921  0.2768  0.0487  0.1165
 6841TIP3    H142014   0.780   1.068  33.887  1.5334 -0.2482 -0.0502
 6841TIP3    H242015   0.760   1.216  33.863  0.5485 -0.4711 -0.6616
 6842TIP3   OH242016   1.370   3.861  31.646 -0.0887  0.1785 -0.2027
 6842TIP3    H142017   1.393   3.854  31.553 -1.3712  0.6593 -0.5799
 6842TIP3    H242018   1.274   3.859  31.647 -0.1255  1.2091  1.0126
 6843TIP3   OH242019   1.067   1.406  28.235 -0.6253 -0.1380  0.2593
 6843TIP3    H142020   1.053   1.380  28.144  0.2896 -1.2635  0.4176
 6843TIP3    H242021   1.052   1.326  28.286  1.5707 -0.2510  0.8305
 6844TIP3   OH242022   2.539   1.153  40.446  0.2994  0.5478  0.2407
 6844TIP3    H142023   2.586   1.140  40.363  1.3291  1.1661  0.7080
 6844TIP3    H242024   2.608   1.160  40.512 -0.5157 -0.1804  1.2049
 6845TIP3   OH242025   3.359   2.960   1.627 -0.7483  0.3847 -0.5451
 6845TIP3    H142026   3.354   2.902   1.703  0.8417  0.0680 -0.6586
 6845TIP3    H242027   3.315   3.040   1.655 -0.7042  0.0559  0.5025
 6846TIP3   OH242028   3.036   0.814  27.950  0.8363 -0.4675  0.3463
 6846TIP3    H142029   3.041   0.744  27.886  1.7331 -1.2659  1.2691
 6846TIP3    H242030   3.045   0.771  28.034 -1.4532  0.4164  1.1344
 6847TIP3   OH242031   0.935   0.296  12.501 -0.4871  0.0540 -0.4486
 6847TIP3    H142032   0.860   0.275  12.557 -0.5059  0.6275 -0.2449
 6847TIP3    H242033   0.984   0.214  12.494 -0.5308 -0.0463  0.3423
 6848TIP3   OH242034   1.281   0.329   6.913 -0.1547  0.4857 -0.5300
 6848TIP3    H142035   1.195   0.370   6.918  0.4850  1.9253 -0.8903
 6848TIP3    H242036   1.270   0.258   6.849 -1.1281  0.4902 -0.3822
 6849TIP3   OH242037   3.021   3.207  34.710 -0.9592  0.5694  0.2965
 6849TIP3    H142038   3.049   3.231  34.798 -1.6074 -0.3470  0.7728
 6849TIP3    H242039   3.071   3.264  34.652 -1.0857  1.7212  1.2898
 6850TIP3   OH242040   0.165   4.234  34.936  0.5222  0.0274  0.0629
 6850TIP3    H142041   0.242   4.278  34.901  0.5109 -2.2351 -3.3818
 6850TIP3    H242042   0.200   4.159  34.984  0.5525 -0.7504 -1.1246
 6851TIP3   OH242043   0.537   2.555   2.432 -0.7952  0.1359  0.1032
 6851TIP3    H142044   0.580   2.629   2.387 -1.8646  0.8911  0.2843
 6851TIP3    H242045   0.546   2.482   2.371  0.0635  0.4768 -0.1950
 6852TIP3   OH242046   1.291   4.141  32.944  0.3441 -0.1663  0.0668
 6852TIP3    H142047   1.199   4.143  32.970  0.3058 -0.1186 -0.0759
 6852TIP3    H242048   1.290   4.162  32.851  0.4854 -0.3235  0.0316
 6853TIP3   OH242049   3.889   2.558  13.058  0.0568 -0.6258 -0.0235
 6853TIP3    H142050   3.851   2.581  13.143  0.0891 -2.1117  0.4340
 6853TIP3    H242051   3.850   2.472  13.038  1.1120 -0.9313 -0.8397
 6854TIP3   OH242052   3.680   4.227  40.346 -0.0173  0.7337 -0.1281
 6854TIP3    H142053   3.727   4.242  40.428  1.9780  0.4557 -1.1769
 6854TIP3    H242054   3.725   4.281  40.281 -0.9959  0.2776 -1.2412
 6855TIP3   OH242055   1.493   2.685  13.863  0.2793  0.0179 -0.6863
 6855TIP3    H142056   1.398   2.696  13.859  0.1895 -0.8289 -1.2801
 6855TIP3    H242057   1.518   2.661  13.773  1.1302  0.7656 -0.6605
 6856TIP3   OH242058   0.818   1.699  10.887 -0.0840  0.4803  0.0359
 6856TIP3    H142059   0.908   1.692  10.918 -1.0192 -0.8536  2.7672
 6856TIP3    H242060   0.807   1.624  10.829  0.8322  1.3031 -1.2660
 6857TIP3   OH242061   0.754   2.991   7.323 -0.4134 -0.0790  0.5279
 6857TIP3    H142062   0.734   2.898   7.318 -1.6614  0.2211 -2.3727
 6857TIP3    H242063   0.670   3.035   7.308 -0.0209  1.5871  2.6912
 6858TIP3   OH242064   3.318   1.058  31.260 -0.2855 -0.3034 -0.9258
 6858TIP3    H142065   3.399   1.008  31.276 -0.5711 -0.4237  0.2575
 6858TIP3    H242066   3.330   1.096  31.173  1.8769  1.2395 -0.0328
 6859TIP3   OH242067   3.502   0.885  40.042  0.0313  0.1619  0.1936
 6859TIP3    H142068   3.538   0.913  39.958  2.5451  0.5842  1.3097
 6859TIP3    H242069   3.549   0.804  40.062  0.1292  0.5291  1.5697
 6860TIP3   OH242070   3.431   2.767  11.754 -0.0847  0.0345  0.6767
 6860TIP3    H142071   3.366   2.830  11.785 -0.1335  0.2424  0.1708
 6860TIP3    H242072   3.423   2.770  11.659  1.1403  0.5863  0.5708
 6861TIP3   OH242073   0.715   1.827  12.301  0.1268  0.3105 -0.0011
 6861TIP3    H142074   0.642   1.883  12.275  2.0225  1.9467 -2.1953
 6861TIP3    H242075   0.704   1.748  12.249 -1.7932 -0.9258  2.0957
 6862TIP3   OH242076   3.538   1.697  28.225 -0.1490  0.3333  0.1302
 6862TIP3    H142077   3.528   1.624  28.286 -1.1030  1.8127  1.8370
 6862TIP3    H242078   3.485   1.768  28.262  0.8250  1.9574 -1.3840
 6863TIP3   OH242079   2.222   1.808  28.376  0.4506 -0.3303 -0.0974
 6863TIP3    H142080   2.153   1.777  28.434 -0.7342  0.7287 -0.8704
 6863TIP3    H242081   2.175   1.845  28.300  1.7923  1.5382 -0.0961
 6864TIP3   OH242082   0.300   2.984  30.175 -0.2097 -0.4944  0.3030
 6864TIP3    H142083   0.333   2.930  30.248  1.3505  1.5244  1.1847
 6864TIP3    H242084   0.346   2.952  30.098  0.1867 -0.8532  0.6856
 6865TIP3   OH242085   1.797   2.919  29.145  0.6218  0.3131  0.0146
 6865TIP3    H142086   1.848   2.846  29.110  0.6108  0.2200  0.1903
 6865TIP3    H242087   1.848   2.997  29.123  0.4718  0.2814 -0.4622
 6866TIP3   OH242088   2.923   3.319   2.600 -0.3313 -0.0997 -0.9137
 6866TIP3    H142089   2.969   3.402   2.591  0.4407 -0.5347 -1.0725
 6866TIP3    H242090   2.968   3.260   2.539  1.1674 -1.4979  1.3732
 6867TIP3   OH242091   4.034   4.184   9.376  0.4300 -0.3260 -0.2004
 6867TIP3    H142092   3.986   4.127   9.437  0.5991 -2.0493 -1.5756
 6867TIP3    H242093   4.057   4.261   9.428  0.2551 -1.5388  1.8099
 6868TIP3   OH242094   2.888   3.281  37.175 -0.2588 -0.5932 -0.6906
 6868TIP3    H142095   2.921   3.194  37.153 -0.7328 -1.2184  0.9239
 6868TIP3    H242096   2.876   3.325  37.090  4.5466 -0.2882 -1.5428
 6869TIP3   OH242097   1.292   0.032  31.164 -0.1427 -0.1346  0.5016
 6869TIP3    H142098   1.272  -0.053  31.202  0.4043 -1.0525 -1.1736
 6869TIP3    H242099   1.233   0.093  31.209 -2.7331 -1.8344 -0.3421
 6870TIP3   OH242100   0.761   2.228  28.094 -0.0652 -0.1525  0.2362
 6870TIP3    H142101   0.738   2.321  28.095  0.3523 -0.0407 -0.0179
 6870TIP3    H242102   0.692   2.185  28.144  0.5097  0.4706  1.6054
 6871TIP3   OH242103   3.216   1.844   7.628  0.0409  0.1695 -0.1036
 6871TIP3    H142104   3.206   1.938   7.613 -1.8160 -0.1013 -0.8728
 6871TIP3    H242105   3.310   1.829   7.627  0.3800  2.0443  0.2234
 6872TIP3   OH242106   4.251   1.409  39.040  0.1099  0.0351  0.2423
 6872TIP3    H142107   4.269   1.325  38.997 -1.1768 -0.3082  0.3446
 6872TIP3    H242108   4.206   1.386  39.121  1.9144  0.7107  1.5090
 6873TIP3   OH242109   1.292   2.784  27.533 -0.0205 -0.1598  0.3753
 6873TIP3    H142110   1.242   2.804  27.612 -0.7611 -1.5255  0.2859
 6873TIP3    H242111   1.229   2.793  27.462  0.9466  2.3238 -0.2708
 6874TIP3   OH242112   0.586   0.316  32.568 -0.4157  0.5903 -0.0073
 6874TIP3    H142113   0.569   0.244  32.629  0.5312  0.0803 -0.3152
 6874TIP3    H242114   0.500   0.355  32.551 -1.1514 -1.3059 -0.8737
 6875TIP3   OH242115   1.838   0.648  10.116 -0.4564  0.2958  0.4884
 6875TIP3    H142116   1.772   0.602  10.065  0.6258 -3.1978  1.9436
 6875TIP3    H242117   1.795   0.665  10.200 -0.2501  0.2004  0.6125
 6876TIP3   OH242118   0.040   4.245   2.134 -0.2727  0.0895  0.3330
 6876TIP3    H142119   0.023   4.162   2.089  0.2117 -0.3244  0.8909
 6876TIP3    H242120   0.034   4.223   2.227  0.9137  0.4399  0.5066
 6877TIP3   OH242121   1.395   1.972  37.608 -0.5291 -0.4211  0.5107
 6877TIP3    H142122   1.333   1.999  37.675  0.6479  0.8036  1.1603
 6877TIP3    H242123   1.347   1.976  37.526 -1.6189 -0.6632  1.1253
 6878TIP3   OH242124   1.820   2.995   4.734  0.1667 -0.1157  0.2406
 6878TIP3    H142125   1.873   3.055   4.681 -0.0217  1.1480  1.4586
 6878TIP3    H242126   1.746   2.972   4.678  1.7919 -1.7314 -1.4202
 6879TIP3   OH242127   4.158   0.010  13.081  0.3864  0.5370 -0.2585
 6879TIP3    H142128   4.201  -0.062  13.035  1.7919 -1.3077  3.5551
 6879TIP3    H242129   4.071  -0.023  13.103  0.1650  0.9478 -0.4915
 6880TIP3   OH242130   1.022   2.254   3.165  0.1745 -0.1053  0.2570
 6880TIP3    H142131   0.972   2.182   3.126  1.6819 -1.2711  0.3887
 6880TIP3    H242132   1.006   2.328   3.107 -0.5634 -0.8361 -0.4954
 6881TIP3   OH242133   1.506   2.771   8.909  0.2778 -0.1014  0.0793
 6881TIP3    H142134   1.424   2.765   8.859 -0.1704  2.2209  0.4115
 6881TIP3    H242135   1.531   2.680   8.925 -2.0613 -0.8960 -0.3209
 6882TIP3   OH242136   3.368   0.876  35.378 -0.8244  0.3092  0.1806
 6882TIP3    H142137   3.436   0.935  35.344  0.7820 -1.6974 -0.2912
 6882TIP3    H242138   3.381   0.876  35.473 -1.9799  1.9985  0.3751
 6883TIP3   OH242139   0.795   1.359  35.666 -0.0291 -0.3262  0.4625
 6883TIP3    H142140   0.756   1.438  35.630  0.1514 -0.7650 -0.7406
 6883TIP3    H242141   0.722   1.312  35.707 -0.1478  0.4105  1.1029
 6884TIP3   OH242142   3.963   1.347  35.414 -0.0364  0.8549 -0.2838
 6884TIP3    H142143   3.905   1.274  35.437  1.3082 -0.6839 -1.5218
 6884TIP3    H242144   3.923   1.423  35.456 -2.6600 -0.1911 -0.6492
 6885TIP3   OH242145   2.383   0.548  17.807  0.9097 -0.3555  0.5345
 6885TIP3    H142146   2.463   0.596  17.829  0.4587 -0.4144  2.4514
 6885TIP3    H242147   2.349   0.593  17.729  0.7717  2.1617  1.9346
 6886TIP3   OH242148   0.400   1.243  31.563 -0.4838 -0.2822  0.7664
 6886TIP3    H142149   0.343   1.315  31.534  0.4553 -0.1822 -1.0336
 6886TIP3    H242150   0.349   1.164  31.548 -0.7849 -0.1030  0.8377
 6887TIP3   OH242151   3.546   2.176   8.857  0.3506 -0.1106  0.4434
 6887TIP3    H142152   3.619   2.237   8.844  0.1146  0.2132  0.6060
 6887TIP3    H242153   3.472   2.233   8.877 -0.2270 -0.3529 -0.9215
 6888TIP3   OH242154   0.345   2.511  24.692  0.5353  0.3741  0.1711
 6888TIP3    H142155   0.331   2.515  24.597  1.5162 -1.8964 -0.1368
 6888TIP3    H242156   0.322   2.599  24.723 -3.6656  0.1389 -1.5629
 6889TIP3   OH242157   1.616   1.190  12.771  0.3464 -0.1814  0.2336
 6889TIP3    H142158   1.612   1.271  12.822 -0.4709  0.4195 -0.7476
 6889TIP3    H242159   1.552   1.202  12.701 -0.6002 -2.1179  0.6903
 6890TIP3   OH242160   0.912   3.394   9.114 -0.1784 -0.7735  0.3386
 6890TIP3    H142161   0.879   3.315   9.073  0.1157 -1.9345  2.2228
 6890TIP3    H242162   0.840   3.457   9.106 -0.4931 -1.2864 -1.0021
 6891TIP3   OH242163   4.067   2.061  31.646  0.0032 -0.1769  0.3884
 6891TIP3    H142164   4.059   2.138  31.591 -1.1015 -1.9285 -2.0851
 6891TIP3    H242165   3.994   2.068  31.708 -0.9911  0.0457 -0.7845
 6892TIP3   OH242166   2.761   0.634  39.355 -0.4188 -0.1098 -0.0768
 6892TIP3    H142167   2.750   0.555  39.303 -4.3929  0.1668 -0.0148
 6892TIP3    H242168   2.796   0.602  39.439 -4.3698 -2.4552  0.9533
 6893TIP3   OH242169   4.264   1.449  12.644  1.0155 -0.4335  0.3887
 6893TIP3    H142170   4.181   1.432  12.599  1.5393  0.8534 -1.1633
 6893TIP3    H242171   4.245   1.521  12.704  0.7842 -0.8306  0.7998
 6894TIP3   OH242172   2.176   3.356   0.813 -0.3838 -0.3920 -0.3984
 6894TIP3    H142173   2.259   3.366   0.861 -1.2470  0.3196  1.0167
 6894TIP3    H242174   2.112   3.403   0.866 -1.8238 -1.4062 -1.1696
 6895TIP3   OH242175   1.164   2.602  32.232 -0.3921 -0.4270 -0.4843
 6895TIP3    H142176   1.191   2.538  32.166  2.0405 -0.7409  0.7083
 6895TIP3    H242177   1.102   2.555  32.287  0.4799 -1.4152 -0.3173
 6896TIP3   OH242178   0.249   0.011  13.885  0.1783  0.1926 -0.0579
 6896TIP3    H142179   0.169   0.059  13.904 -0.0871 -0.4229  0.4323
 6896TIP3    H242180   0.225  -0.050  13.815  0.0232 -0.4621  0.5502
 6897TIP3   OH242181   3.889   2.513  30.581  0.5819  0.3046 -1.2451
 6897TIP3    H142182   3.870   2.419  30.588 -0.5969  0.5244 -1.3704
 6897TIP3    H242183   3.904   2.541  30.672 -1.1407  0.4005 -0.9613
 6898TIP3   OH242184   4.028   0.580   9.654 -0.4207  0.1387  0.3744
 6898TIP3    H142185   4.009   0.503   9.707  0.3847 -0.3366 -0.0045
 6898TIP3    H242186   4.121   0.573   9.634  0.1488  2.2154  1.9249
 6899TIP3   OH242187   3.733   2.778  31.126  0.1090  0.1359  0.2663
 6899TIP3    H142188   3.812   2.747  31.083  1.0916  1.5848  0.9749
 6899TIP3    H242189   3.725   2.723  31.205 -1.3681 -2.1160 -1.3091
 6900TIP3   OH242190   2.338   0.358   8.177 -0.7195  0.0545  0.7337
 6900TIP3    H142191   2.390   0.420   8.126  2.0018 -2.0885  0.6232
 6900TIP3    H242192   2.321   0.285   8.117 -1.2996 -0.5861  1.6408
 6901TIP3   OH242193   1.324   0.289   3.194  0.6190 -0.2488  0.8303
 6901TIP3    H142194   1.383   0.271   3.267  0.6044  2.2532  1.5808
 6901TIP3    H242195   1.264   0.215   3.192  0.9533 -0.6484  3.0381
 6902TIP3   OH242196   4.224   1.368  22.518 -0.2637  0.3804  0.4923
 6902TIP3    H142197   4.154   1.356  22.454  0.5433  0.3359 -0.4017
 6902TIP3    H242198   4.182   1.412  22.592 -1.4956 -0.7095  0.4815
 6903TIP3   OH242199   1.475   3.289  39.504  0.2145  0.4693  0.0995
 6903TIP3    H142200   1.498   3.295  39.411 -1.3987 -2.1147 -0.5621
 6903TIP3    H242201   1.413   3.216  39.509 -0.4705  1.1178  3.0985
 6904TIP3   OH242202   1.777   3.261  36.070  0.8512  0.4456 -0.2670
 6904TIP3    H142203   1.852   3.202  36.064  0.4536 -0.3022  1.5646
 6904TIP3    H242204   1.790   3.309  36.151 -0.8655 -0.0537  0.3531
 6905TIP3   OH242205   2.959   3.689  38.870 -0.3765  0.4739 -0.8083
 6905TIP3    H142206   2.964   3.596  38.894 -0.8888  0.7232  0.3361
 6905TIP3    H242207   2.954   3.688  38.774 -0.5249 -0.6953 -0.8126
 6906TIP3   OH242208   3.314   1.674   4.039  0.7823 -0.2184 -0.0952
 6906TIP3    H142209   3.338   1.598   3.986 -2.9359 -0.5555 -1.6133
 6906TIP3    H242210   3.243   1.643   4.095 -0.7383  1.9864 -0.6663
 6907TIP3   OH242211   0.955   0.739   5.700 -0.7994 -0.4178  0.3059
 6907TIP3    H142212   1.008   0.792   5.641 -2.3816  0.4231 -0.4289
 6907TIP3    H242213   1.015   0.714   5.771  0.4590  0.7779 -0.2924
 6908TIP3   OH242214   0.821   4.089   1.531  0.5851  0.3142  0.4339
 6908TIP3    H142215   0.773   4.164   1.567 -1.0077 -0.3141 -0.2942
 6908TIP3    H242216   0.799   4.016   1.590 -0.2158 -0.2075 -0.4835
 6909TIP3   OH242217   2.043   3.640  29.918  0.2445  0.4710  0.3807
 6909TIP3    H142218   1.954   3.628  29.951 -0.6574  2.1806 -1.1738
 6909TIP3    H242219   2.080   3.710  29.971  0.6207 -0.1398  0.9318
 6910TIP3   OH242220   3.999   3.572  27.221  0.7858  0.0624  0.1271
 6910TIP3    H142221   3.999   3.482  27.252 -0.1230  0.4313  1.2997
 6910TIP3    H242222   3.992   3.565  27.126 -0.5106 -1.1017  0.2739
 6911TIP3   OH242223   3.206   2.656  36.832 -0.1940 -0.3712 -0.0971
 6911TIP3    H142224   3.201   2.660  36.928  2.9859 -1.6985  0.2494
 6911TIP3    H242225   3.162   2.574  36.809 -2.3255  0.6786 -0.0165
 6912TIP3   OH242226   2.867   2.820  33.228  0.7107 -0.4144 -0.1572
 6912TIP3    H142227   2.872   2.754  33.297  1.2777 -0.4972 -0.2668
 6912TIP3    H242228   2.933   2.792  33.164 -0.2081 -0.6602 -1.0149
 6913TIP3   OH242229   3.172   2.456  30.596  0.4999  0.3615 -1.0319
 6913TIP3    H142230   3.120   2.440  30.518 -1.1100 -0.2208  0.0920
 6913TIP3    H242231   3.158   2.549  30.616  0.6229  0.4248 -1.2462
 6914TIP3   OH242232   0.910   3.212  12.299 -0.8432 -0.6812 -0.0740
 6914TIP3    H142233   0.995   3.170  12.309 -0.3982 -0.3086 -1.9112
 6914TIP3    H242234   0.908   3.280  12.367  0.4462 -0.5250 -0.1724
 6915TIP3   OH242235   3.068   4.122  31.222 -0.1608  1.0450  0.2667
 6915TIP3    H142236   2.985   4.164  31.198 -0.1919  0.0838 -1.5093
 6915TIP3    H242237   3.135   4.186  31.199 -0.3757  1.6603  1.3160
 6916TIP3   OH242238   2.002   2.630  39.452 -0.1598  0.2789 -0.3198
 6916TIP3    H142239   1.985   2.680  39.532 -2.5224  0.3641 -0.8114
 6916TIP3    H242240   1.990   2.694  39.381  0.3343 -0.1723 -0.8208
 6917TIP3   OH242241   0.292   2.229  34.248  0.3896  0.1218 -0.2407
 6917TIP3    H142242   0.345   2.172  34.305  0.5679 -1.2076 -1.6787
 6917TIP3    H242243   0.203   2.196  34.257  0.7651 -1.8022 -2.5918
 6918TIP3   OH242244   2.896   2.907  38.446  0.4052  0.5343 -0.2469
 6918TIP3    H142245   2.935   2.833  38.494 -0.7297  0.3897  0.4754
 6918TIP3    H242246   2.966   2.936  38.387  1.6987  0.4349  1.1735
 6919TIP3   OH242247   0.073   4.005   4.850 -0.5178 -0.1982  0.0230
 6919TIP3    H142248  -0.020   4.017   4.830 -0.2522  0.5851 -0.8261
 6919TIP3    H242249   0.079   3.917   4.887 -1.6559 -0.0949  0.5011
 6920TIP3   OH242250   1.626   0.170  10.034 -0.3588 -0.2729  0.2497
 6920TIP3    H142251   1.570   0.224   9.978 -0.5746 -0.7858 -0.0328
 6920TIP3    H242252   1.643   0.091   9.982 -2.5178 -1.8726  1.7857
 6921TIP3   OH242253   3.474   3.624  29.616  0.5646  0.3016 -0.3105
 6921TIP3    H142254   3.398   3.608  29.672 -0.0718  1.4458 -0.8082
 6921TIP3    H242255   3.534   3.674  29.671 -0.3694  2.0594 -0.8204
 6922TIP3   OH242256   3.975   0.204  11.438  0.5708 -0.3777  0.0340
 6922TIP3    H142257   3.882   0.198  11.415  0.0332  1.6637  1.3890
 6922TIP3    H242258   3.976   0.197  11.534  1.8258 -0.4139  0.0342
 6923TIP3   OH242259   0.681   2.366  39.419  0.2813  0.3820 -0.6612
 6923TIP3    H142260   0.643   2.288  39.379 -0.1614  0.2279  0.0427
 6923TIP3    H242261   0.739   2.402  39.351 -1.1496  0.6502 -1.7978
 6924TIP3   OH242262   1.810   0.987  34.880  0.1300  0.2508  0.8734
 6924TIP3    H142263   1.828   1.057  34.817  0.7278  1.4278  2.3008
 6924TIP3    H242264   1.822   1.028  34.966 -1.1814 -1.1591  1.7846
 6925TIP3   OH242265   2.714   0.958  30.173  0.6167 -1.0634 -0.0341
 6925TIP3    H142266   2.784   0.986  30.114  0.3718 -0.6220 -0.1152
 6925TIP3    H242267   2.634   0.997  30.136  0.4286 -0.9866  0.4546
 6926TIP3   OH242268   4.310   0.487  28.234 -0.0272  0.6644 -0.1501
 6926TIP3    H142269   4.312   0.578  28.262 -2.0789  0.8498 -0.4557
 6926TIP3    H242270   4.305   0.436  28.315 -3.1242  1.0687  0.0192
 6927TIP3   OH242271   1.119   1.740   2.329  0.4043  0.4547 -0.2469
 6927TIP3    H142272   1.158   1.770   2.246  0.5186  0.0124 -0.3594
 6927TIP3    H242273   1.028   1.721   2.307  0.4609  0.2361 -0.3013
 6928TIP3   OH242274   0.690   0.606  34.852  0.0559 -0.1359  0.3216
 6928TIP3    H142275   0.769   0.660  34.857 -0.8411  1.2150  0.3911
 6928TIP3    H242276   0.695   0.549  34.928  0.6243  0.4251  0.7146
 6929TIP3   OH242277   1.886   2.293  33.931  0.9134 -0.5817  0.0948
 6929TIP3    H142278   1.888   2.322  34.023  0.7926  0.5865 -0.2499
 6929TIP3    H242279   1.879   2.198  33.936 -0.1143 -0.4716  1.3034
 6930TIP3   OH242280   1.819   2.687  38.769 -0.4060 -0.2008  0.1273
 6930TIP3    H142281   1.817   2.767  38.716  1.3593 -1.0570 -1.3674
 6930TIP3    H242282   1.741   2.638  38.743 -0.1538 -0.0911 -0.8910
 6931TIP3   OH242283   2.363   2.439   9.162  0.2648 -0.2381  0.1979
 6931TIP3    H142284   2.416   2.514   9.190  0.4044  0.0885 -0.8749
 6931TIP3    H242285   2.421   2.364   9.172  0.5747 -0.0217  0.0545
 6932TIP3   OH242286   0.853   0.883  30.689 -0.0579 -0.1648 -0.1576
 6932TIP3    H142287   0.785   0.922  30.744  0.3676  1.7100 -0.8647
 6932TIP3    H242288   0.805   0.834  30.622 -0.6316 -0.6605  0.6034
 6933TIP3   OH242289   0.744   1.974  34.238 -0.2007 -0.0729  0.1001
 6933TIP3    H142290   0.742   2.023  34.155 -0.5274  0.6376  0.5162
 6933TIP3    H242291   0.777   1.888  34.214  0.9583  0.5327 -0.5674
 6934TIP3   OH242292   3.867   3.117  40.530  0.4420 -0.2141 -1.0095
 6934TIP3    H142293   3.778   3.151  40.535  0.3861 -0.4121 -0.5868
 6934TIP3    H242294   3.857   3.025  40.506  0.4770 -0.4602 -0.1492
 6935TIP3   OH242295   0.643   1.763  37.350 -0.0501  0.4396 -0.0658
 6935TIP3    H142296   0.572   1.776  37.414  0.1869 -0.6631  0.4604
 6935TIP3    H242297   0.721   1.798  37.393 -0.1515  1.0786 -0.3871
 6936TIP3   OH242298   2.759   0.131  38.207  0.1248  0.3086 -0.1946
 6936TIP3    H142299   2.672   0.108  38.175  0.7502 -2.8528  0.0177
 6936TIP3    H242300   2.815   0.130  38.129  0.2904  0.5952 -0.0833
 6937TIP3   OH242301   4.393   3.573  33.477  0.2782  0.3794  0.1227
 6937TIP3    H142302   4.488   3.585  33.481  0.1343  1.5180  0.7500
 6937TIP3    H242303   4.379   3.510  33.406  1.6701 -2.2822  2.0669
 6938TIP3   OH242304   0.199   2.390  33.083  0.5630  0.5946 -0.4185
 6938TIP3    H142305   0.165   2.302  33.097 -0.2559  1.1504  1.4321
 6938TIP3    H242306   0.293   2.383  33.101  0.1174  0.5278  2.3980
 6939TIP3   OH242307   2.668   1.170  11.889 -0.5315  0.4312  0.0231
 6939TIP3    H142308   2.588   1.176  11.940  1.2104  0.9331  2.8932
 6939TIP3    H242309   2.695   1.078  11.897 -0.8489  0.2175 -1.0916
 6940TIP3   OH242310   2.891   0.935   0.028  0.2093 -0.1561  0.0485
 6940TIP3    H142311   2.967   0.977   0.068 -1.7670  1.5437  2.2955
 6940TIP3    H242312   2.855   0.881   0.098 -1.2014 -0.1647 -0.6626
 6941TIP3   OH242313   1.433   1.162   4.798  0.1664  0.2718  0.1304
 6941TIP3    H142314   1.388   1.186   4.717 -1.6514  0.0300  1.0193
 6941TIP3    H242315   1.500   1.229   4.810 -0.2397  0.8997 -1.0298
 6942TIP3   OH242316   1.490   1.973  30.739  0.2518  0.2417  0.0136
 6942TIP3    H142317   1.403   1.942  30.763  0.2250 -1.8191 -2.2915
 6942TIP3    H242318   1.477   2.021  30.658  1.0925  1.2128  0.4387
 6943TIP3   OH242319   0.799   2.979  30.283 -0.2161  0.0499  0.2849
 6943TIP3    H142320   0.762   2.928  30.355 -0.1595 -1.2916 -0.6026
 6943TIP3    H242321   0.724   3.028  30.248 -1.3037 -2.6771 -1.5264
 6944TIP3   OH242322   2.275   2.337   0.625 -0.5254  0.2174  0.0492
 6944TIP3    H142323   2.313   2.425   0.625 -0.8064  0.3394 -0.1804
 6944TIP3    H242324   2.285   2.307   0.715 -1.8687  1.1182  0.5431
 6945TIP3   OH242325   1.557   4.376   9.382 -0.4254 -0.2034 -0.1387
 6945TIP3    H142326   1.632   4.424   9.416 -0.0934  0.8098 -2.1507
 6945TIP3    H242327   1.513   4.438   9.324 -1.8891 -1.3104 -0.2804
 6946TIP3   OH242328   3.909   3.928   9.205  0.8273 -0.7653  0.0329
 6946TIP3    H142329   3.834   3.958   9.155  0.3288 -1.4743  0.3319
 6946TIP3    H242330   3.932   4.002   9.261  0.8527 -0.2718 -0.6277
 6947TIP3   OH242331   3.640   2.757  13.216 -0.5721 -0.0147  0.0806
 6947TIP3    H142332   3.634   2.853  13.217 -1.2733 -0.0138  2.8701
 6947TIP3    H242333   3.565   2.729  13.164  0.2128  0.9011 -1.6543
 6948TIP3   OH242334   1.101   3.076  30.706  0.4886  0.1147 -0.1335
 6948TIP3    H142335   1.192   3.090  30.679  1.0954 -1.2474  1.0538
 6948TIP3    H242336   1.059   3.036  30.630  1.6609 -1.8938  0.1914
 6949TIP3   OH242337   3.400   1.671   1.697 -1.0942  0.0457 -0.0614
 6949TIP3    H142338   3.418   1.702   1.609 -0.7757 -1.1462 -0.4253
 6949TIP3    H242339   3.461   1.599   1.711 -0.6298  0.6954  1.4141
 6950TIP3   OH242340   0.454   0.764  34.611 -0.3154 -0.1730  0.6492
 6950TIP3    H142341   0.366   0.759  34.648  0.1802 -0.4903  1.8029
 6950TIP3    H242342   0.502   0.821  34.671  0.4390 -0.5019  0.3690
 6951TIP3   OH242343   2.651   0.873   9.538 -0.0275 -0.6788 -0.1473
 6951TIP3    H142344   2.730   0.886   9.590  0.3394  1.3163 -1.1063
 6951TIP3    H242345   2.668   0.793   9.488  0.5152 -1.3860  1.1335
 6952TIP3   OH242346   2.087   1.166  37.483 -0.3233 -0.3580 -0.2426
 6952TIP3    H142347   2.093   1.246  37.537  1.2137 -1.7443  1.8103
 6952TIP3    H242348   2.178   1.139  37.470 -0.8137 -3.1232  1.3293
 6953TIP3   OH242349   0.154   1.992  32.005 -0.6281 -0.1150 -0.0057
 6953TIP3    H142350   0.122   1.978  32.094 -1.4618 -3.3632 -0.7079
 6953TIP3    H242351   0.221   2.060  32.014 -0.0073 -1.0211  3.2425
 6954TIP3   OH242352   4.316   2.843  22.281 -0.2928  0.5609 -0.1810
 6954TIP3    H142353   4.352   2.848  22.193  0.4796 -1.1417  0.0008
 6954TIP3    H242354   4.392   2.836  22.338 -0.8029 -1.0194  0.3715
 6955TIP3   OH242355   3.120   2.635  37.094 -0.6121  0.2497 -0.1278
 6955TIP3    H142356   3.085   2.696  37.159 -2.8919 -0.6062 -0.4934
 6955TIP3    H242357   3.133   2.554  37.142 -2.8028 -0.5452 -0.7670
 6956TIP3   OH242358   0.008   3.582  28.725 -0.2285  0.1573  0.0595
 6956TIP3    H142359   0.020   3.655  28.786 -0.0574  0.5945 -0.4846
 6956TIP3    H242360   0.080   3.592  28.663  0.5289 -1.2015  0.6861
 6957TIP3   OH242361   2.277   1.010  29.064 -0.0144 -0.1122  0.5698
 6957TIP3    H142362   2.292   1.055  29.148  0.1105  1.1853 -0.1094
 6957TIP3    H242363   2.349   1.040  29.009  0.2190 -1.3993  0.1656
 6958TIP3   OH242364   2.340   1.187  38.978  0.2560  0.1219 -0.2302
 6958TIP3    H142365   2.306   1.112  38.929 -1.4631  1.6170 -1.4444
 6958TIP3    H242366   2.428   1.159  39.005  0.7879 -1.2981 -3.0487
 6959TIP3   OH242367   2.374   2.761  28.561  0.4448  0.2054  0.2166
 6959TIP3    H142368   2.398   2.706  28.636  1.0022 -0.5148 -0.4708
 6959TIP3    H242369   2.458   2.795  28.528  0.2356  0.2427 -0.2878
 6960TIP3   OH242370   0.997   0.369   1.105 -0.3467  0.5481 -0.2010
 6960TIP3    H142371   0.918   0.315   1.106 -0.4610  0.6977  1.4974
 6960TIP3    H242372   1.017   0.381   1.012 -2.2381  0.4039 -0.6572
 6961TIP3   OH242373   0.183   1.768   3.837  0.3986  0.0525 -0.6573
 6961TIP3    H142374   0.240   1.761   3.761  0.3927 -0.8446 -0.5912
 6961TIP3    H242375   0.132   1.687   3.837  1.7318 -0.8749  1.3494
 6962TIP3   OH242376   2.676   1.747   7.767 -0.5768 -0.4145 -1.0293
 6962TIP3    H142377   2.743   1.683   7.791 -1.7949 -1.8762 -1.3397
 6962TIP3    H242378   2.689   1.761   7.673  0.9231  1.3420 -0.6032
 6963TIP3   OH242379   0.813   0.881   2.966  0.5051 -0.3254  0.6152
 6963TIP3    H142380   0.815   0.940   3.041  0.4228  0.2051  0.2077
 6963TIP3    H242381   0.900   0.842   2.963  1.1523  1.1071 -0.1401
 6964TIP3   OH242382   0.708   1.244  11.607 -0.5573  0.7034  0.3410
 6964TIP3    H142383   0.758   1.232  11.526 -0.2660 -2.0539  0.8366
 6964TIP3    H242384   0.621   1.208  11.587 -0.0477 -1.3978  1.6037
 6965TIP3   OH242385   4.347   3.946  30.554 -0.7578  0.1086  0.5041
 6965TIP3    H142386   4.350   3.966  30.461  2.0796 -0.8013  0.2854
 6965TIP3    H242387   4.307   3.859  30.558  0.9470 -0.7501 -0.1362
 6966TIP3   OH242388   0.529   2.105   4.675 -0.1415  0.3973  0.0030
 6966TIP3    H142389   0.597   2.172   4.678  1.1169 -0.7802 -0.8089
 6966TIP3    H242390   0.519   2.077   4.766  1.7090 -0.5473 -0.0291
 6967TIP3   OH242391   2.571   3.887  37.058  0.3441 -0.1083 -0.2447
 6967TIP3    H142392   2.507   3.930  37.115 -0.1025 -1.4421  0.3076
 6967TIP3    H242393   2.521   3.859  36.981  0.2593 -1.0049  0.1149
 6968TIP3   OH242394   0.719   2.551  30.826 -0.2899  0.3388 -0.1307
 6968TIP3    H142395   0.734   2.636  30.783  0.6134  0.0210 -0.4576
 6968TIP3    H242396   0.647   2.512  30.777  0.2752  0.2801 -0.9184
 6969TIP3   OH242397   3.677   4.067   0.066 -0.3164  0.0956 -0.6399
 6969TIP3    H142398   3.730   4.127   0.118 -0.2438  0.8166 -1.5357
 6969TIP3    H242399   3.588   4.104   0.069  0.0112  1.1163 -2.4323
 6970TIP3   OH242400   3.710   1.193   7.879  0.5408 -0.2753  0.4240
 6970TIP3    H142401   3.680   1.260   7.817  1.0045 -1.1023 -0.7452
 6970TIP3    H242402   3.805   1.196   7.874  0.5724 -1.8092 -0.5822
 6971TIP3   OH242403   1.503   1.219  15.741  0.2421  0.2803  0.4181
 6971TIP3    H142404   1.410   1.194  15.740  0.1489  0.6285  0.1224
 6971TIP3    H242405   1.545   1.159  15.680  0.0039  0.8951 -0.3628
 6972TIP3   OH242406   3.541   2.735   5.748 -0.0667 -0.8929 -0.1881
 6972TIP3    H142407   3.460   2.746   5.699 -0.3031  0.1691  0.4056
 6972TIP3    H242408   3.592   2.814   5.729  0.5047 -1.1954  0.0431
 6973TIP3   OH242409   2.979   3.003   5.374 -0.6344  0.3550  0.0442
 6973TIP3    H142410   2.902   3.035   5.327 -0.1724  0.7023 -0.4874
 6973TIP3    H242411   2.998   3.072   5.438 -0.7581  0.2781  0.1626
 6974TIP3   OH242412   1.903   2.326  30.404 -0.0244 -1.1803 -0.0465
 6974TIP3    H142413   1.907   2.360  30.493 -1.8370  3.2544 -1.3696
 6974TIP3    H242414   1.987   2.282  30.390  1.8970  1.2630  2.7064
 6975TIP3   OH242415   1.594   0.765   5.379  0.1265 -0.3468  0.3478
 6975TIP3    H142416   1.689   0.754   5.386  0.0958 -1.5971 -0.6996
 6975TIP3    H242417   1.578   0.768   5.284 -1.0273 -2.0590  0.4386
 6976TIP3   OH242418   4.178   1.800   1.703 -0.0422 -0.5353  0.3671
 6976TIP3    H142419   4.083   1.791   1.714 -0.4081  1.2222 -1.0242
 6976TIP3    H242420   4.203   1.867   1.766  0.6751 -2.3106  2.1121
 6977TIP3   OH242421   3.401   1.282  35.520 -0.3370  0.2026  0.2268
 6977TIP3    H142422   3.316   1.243  35.538  0.0419 -1.1828 -0.8301
 6977TIP3    H242423   3.464   1.223  35.560  0.2153  0.0339 -0.8410
 6978TIP3   OH242424   4.109   2.358  11.211  0.1227 -0.1569  0.2065
 6978TIP3    H142425   4.024   2.334  11.248  0.2935  0.3943  0.9867
 6978TIP3    H242426   4.101   2.451  11.190  0.2605 -0.2991 -0.5193
 6979TIP3   OH242427   3.015   2.592  32.884 -0.3650  0.2107 -0.5910
 6979TIP3    H142428   3.038   2.499  32.882 -0.3419  0.1974  0.1727
 6979TIP3    H242429   2.921   2.594  32.866 -0.3511  0.0448 -0.6809
 6980TIP3   OH242430   3.592   3.247  31.853  0.1113 -0.1487 -0.1813
 6980TIP3    H142431   3.647   3.275  31.780  0.2169 -0.7723 -0.3483
 6980TIP3    H242432   3.594   3.321  31.914  1.1010 -0.1406 -0.2026
 6981TIP3   OH242433   1.427   2.099  30.457 -0.1025 -0.1341 -0.1101
 6981TIP3    H142434   1.343   2.127  30.422 -0.0100  1.4748  0.8696
 6981TIP3    H242435   1.468   2.051  30.386 -1.6315 -0.5210 -0.7735
 6982TIP3   OH242436   1.565   3.033   4.579 -0.3047  0.0110 -0.3774
 6982TIP3    H142437   1.621   3.110   4.588 -1.1308  0.5661  0.0554
 6982TIP3    H242438   1.482   3.058   4.618 -0.3485 -1.3641  0.4932
 6983TIP3   OH242439   1.472   0.752  13.385  0.4882  0.6363 -0.4138
 6983TIP3    H142440   1.538   0.698  13.427  0.5697  1.7136  0.9231
 6983TIP3    H242441   1.516   0.790  13.308  0.8027 -0.1854 -0.6421
 6984TIP3   OH242442   1.121   3.916  11.478 -0.3110 -0.1583  0.2954
 6984TIP3    H142443   1.093   3.968  11.402  1.9916  0.3043 -0.3093
 6984TIP3    H242444   1.143   3.830  11.442  1.8917  0.4002  0.1507
 6985TIP3   OH242445   1.205   4.124   8.743 -0.0989  0.0985 -0.4764
 6985TIP3    H142446   1.300   4.115   8.747 -0.0539 -1.0966 -2.6330
 6985TIP3    H242447   1.188   4.216   8.763  1.4361  0.1900  0.5470
 6986TIP3   OH242448   1.897   3.170  29.063  0.1741  0.2778 -0.7009
 6986TIP3    H142449   1.903   3.194  28.970  0.3498  1.6407 -0.3725
 6986TIP3    H242450   1.858   3.247  29.104 -0.6841 -0.6414  0.2391
 6987TIP3   OH242451   2.397   0.666  39.894 -0.3136 -0.5540  0.4315
 6987TIP3    H142452   2.431   0.690  39.808  0.9200  0.4242  1.1750
 6987TIP3    H242453   2.347   0.743  39.922  0.9463 -0.0777  1.4264
 6988TIP3   OH242454   0.839   3.468  12.415 -0.4562  0.1103  0.4406
 6988TIP3    H142455   0.764   3.412  12.433  1.5268 -2.2435  1.9946
 6988TIP3    H242456   0.848   3.522  12.494 -0.3270  0.1422  0.4050
 6989TIP3   OH242457   2.331   3.405   1.859 -0.2802 -0.5946  0.4282
 6989TIP3    H142458   2.299   3.472   1.798  0.9820  0.4774  0.9074
 6989TIP3    H242459   2.402   3.361   1.812  2.9332  2.3525  2.0896
 6990TIP3   OH242460   3.093   3.088   8.262  0.5536 -0.3709  0.1911
 6990TIP3    H142461   3.045   3.156   8.214  0.0964 -1.4003 -0.8563
 6990TIP3    H242462   3.083   3.112   8.354  0.3640  0.9497 -0.1519
 6991TIP3   OH242463   1.584   3.083  32.049 -0.4312  0.5257  0.5895
 6991TIP3    H142464   1.626   3.151  31.997 -0.5937 -0.2727 -0.6437
 6991TIP3    H242465   1.655   3.023  32.071 -0.6926 -0.2544 -0.5704
 6992TIP3   OH242466   1.995   3.174  28.798 -0.3124  0.4575  0.2212
 6992TIP3    H142467   1.989   3.080  28.780  2.7827  0.2496 -0.1477
 6992TIP3    H242468   1.912   3.209  28.765 -1.0306 -1.9495 -0.8072
 6993TIP3   OH242469   3.956   2.761   0.398  0.1519  0.5528  0.5463
 6993TIP3    H142470   3.881   2.805   0.359  1.0073  1.9647  0.4179
 6993TIP3    H242471   3.919   2.686   0.444 -1.3545  1.3332  0.6617
 6994TIP3   OH242472   3.196   0.461   1.591  0.1349 -0.1432  0.3143
 6994TIP3    H142473   3.106   0.494   1.592  1.1028  2.8994 -0.9567
 6994TIP3    H242474   3.221   0.456   1.684 -0.8558  0.4866  0.6318
 6995TIP3   OH242475   0.833   2.857   6.518  0.0827 -0.1922 -0.3870
 6995TIP3    H142476   0.911   2.909   6.499 -0.7829  1.4590  0.4138
 6995TIP3    H242477   0.863   2.791   6.581  0.8117  0.4996  0.0081
 6996TIP3   OH242478   2.839   3.633   1.005  0.3137 -0.0523 -0.3876
 6996TIP3    H142479   2.759   3.687   1.004 -0.4060 -1.1033 -0.4251
 6996TIP3    H242480   2.910   3.697   0.994 -0.6266  0.7226 -2.6399
 6997TIP3   OH242481   2.432   0.324  33.123 -0.1855  0.4186  0.4577
 6997TIP3    H142482   2.451   0.332  33.216 -1.3313  0.9928  0.6580
 6997TIP3    H242483   2.422   0.414  33.092 -0.8077  0.2012  0.0030
 6998TIP3   OH242484   3.167   2.189  37.365 -0.7132 -0.2449 -0.6079
 6998TIP3    H142485   3.092   2.168  37.421 -0.0090 -1.9763 -0.2627
 6998TIP3    H242486   3.134   2.257  37.306 -2.2916 -0.3504  0.1022
 6999TIP3   OH242487   3.817   1.961  40.416 -0.6931  0.1714  0.1630
 6999TIP3    H142488   3.778   1.895  40.359 -1.2109  0.2276  0.4551
 6999TIP3    H242489   3.846   1.913  40.493 -2.2503  0.4586  0.9677
 7000TIP3   OH242490   2.104   1.382   2.110  0.6949  0.4652 -0.5377
 7000TIP3    H142491   2.087   1.442   2.183  2.5651  0.7211 -0.2571
 7000TIP3    H242492   2.034   1.317   2.115  0.0959  1.1739  0.7402
 7001TIP3   OH242493   3.919   0.938  28.810  0.2678  0.2703 -0.1447
 7001TIP3    H142494   4.014   0.935  28.812  0.2689 -0.3372 -0.8285
 7001TIP3    H242495   3.891   0.858  28.854  0.1028 -0.3935 -1.4018
 7002TIP3   OH242496   3.107   1.216  13.332  0.4255  0.7020 -0.4469
 7002TIP3    H142497   3.187   1.250  13.374 -0.3802  1.6951  0.3518
 7002TIP3    H242498   3.124   1.225  13.238  2.6876 -2.5335 -0.4941
 7003TIP3   OH242499   4.243   2.435  12.593  0.6916  0.1835 -1.0384
 7003TIP3    H142500   4.224   2.512  12.647 -0.0645 -0.1364 -0.8336
 7003TIP3    H242501   4.336   2.417  12.609  0.6537  0.5177 -0.3939
 7004TIP3   OH242502   4.111   2.624   7.031  0.2830  0.5890 -0.4338
 7004TIP3    H142503   4.119   2.556   6.964  1.9202  0.2223  0.1041
 7004TIP3    H242504   4.034   2.598   7.082 -0.8034  0.7047 -1.9358
 7005TIP3   OH242505   3.031   1.181   3.202  0.2023  0.4251 -0.1693
 7005TIP3    H142506   2.973   1.257   3.209  0.0807  0.2186  1.6193
 7005TIP3    H242507   3.119   1.220   3.195  0.0987  0.7409  0.2245
 7006TIP3   OH242508   2.838   2.043   6.974  0.4508  0.1050 -0.5420
 7006TIP3    H142509   2.795   1.976   7.028  0.5264  1.2748  1.0456
 7006TIP3    H242510   2.915   1.998   6.939  1.7853 -0.1023  2.3511
 7007TIP3   OH242511   0.050   0.669  10.811  0.6315 -0.3121 -0.0769
 7007TIP3    H142512   0.131   0.682  10.763  1.7125  2.0918  2.1937
 7007TIP3    H242513   0.067   0.592  10.867  1.4010  0.2305  0.4470
 7008TIP3   OH242514   0.847   3.178   3.590  0.1814  0.1756 -0.7275
 7008TIP3    H142515   0.821   3.202   3.501  3.0151 -2.6167 -2.5159
 7008TIP3    H242516   0.783   3.112   3.617  1.0176 -1.2557 -2.0711
 7009TIP3   OH242517   2.580   0.362  28.404  0.4858 -0.1479  0.1206
 7009TIP3    H142518   2.638   0.340  28.331 -0.7219  2.1759 -1.7076
 7009TIP3    H242519   2.638   0.398  28.471  1.5445 -1.6567  0.0553
 7010TIP3   OH242520   1.036   2.496  14.618 -0.0944  0.3054 -0.2719
 7010TIP3    H142521   0.972   2.534  14.678 -0.5156 -0.8023  0.0051
 7010TIP3    H242522   1.028   2.401  14.631  2.0723  0.1484  0.2712
 7011TIP3   OH242523   3.882   3.229  32.329  0.6693  0.7181  0.0715
 7011TIP3    H142524   3.894   3.219  32.424  0.6838 -0.2160 -0.0174
 7011TIP3    H242525   3.897   3.141  32.294  0.3520  0.9946 -0.7686
 7012TIP3   OH242526   3.203   1.032  34.309  0.1199 -0.0687  0.8688
 7012TIP3    H142527   3.219   1.113  34.260  0.4218 -0.9176 -0.5011
 7012TIP3    H242528   3.109   1.017  34.299  0.4317 -1.0873 -0.8929
 7013TIP3   OH242529   1.270   4.159  28.207  0.0763  0.4820  0.0883
 7013TIP3    H142530   1.196   4.137  28.151 -0.4913  0.3320  0.8740
 7013TIP3    H242531   1.297   4.246  28.178  0.4388  0.0066 -1.0664
 7014TIP3   OH242532   3.792   3.514  10.250  0.2370 -0.2557  0.1240
 7014TIP3    H142533   3.789   3.596  10.298  1.5353 -0.3866  0.4619
 7014TIP3    H242534   3.706   3.475  10.263 -1.2012  1.9873 -1.7676
 7015TIP3   OH242535   1.885   2.748  17.263  0.1892 -0.2958  0.2768
 7015TIP3    H142536   1.808   2.712  17.306  1.8878 -1.4466  2.5913
 7015TIP3    H242537   1.891   2.702  17.180 -1.5597 -0.1892  0.0616
 7016TIP3   OH242538   3.472   2.235  38.870  0.4105  0.0013  0.3857
 7016TIP3    H142539   3.435   2.283  38.796 -0.5193 -1.6553 -0.2643
 7016TIP3    H242540   3.567   2.245  38.859  0.2644  1.5031  0.1847
 7017TIP3   OH242541   2.480   1.938  12.178 -0.2503  0.2034  0.3400
 7017TIP3    H142542   2.438   2.023  12.163  0.3903  0.2460 -1.5175
 7017TIP3    H242543   2.572   1.959  12.192  0.0635 -0.2149 -0.9764
 7018TIP3   OH242544   3.523   0.695  32.522 -0.5195  0.5743 -0.1062
 7018TIP3    H142545   3.522   0.601  32.540 -1.5653  0.5207 -0.4178
 7018TIP3    H242546   3.591   0.730  32.580 -1.8450 -0.0007  1.8443
 7019TIP3   OH242547   0.364   3.116  26.217  0.2017 -0.3373 -0.3300
 7019TIP3    H142548   0.385   3.122  26.124 -1.9435 -0.4757 -0.8679
 7019TIP3    H242549   0.297   3.183  26.231  0.9317  0.1272  1.2942
 7020TIP3   OH242550   3.091   3.010   7.413  0.4919 -0.3197 -0.1862
 7020TIP3    H142551   3.046   2.940   7.367  0.0246  0.6606 -1.2748
 7020TIP3    H242552   3.160   3.039   7.353  1.5537 -0.7098  0.7934
 7021TIP3   OH242553   0.842   2.604  41.253  0.1364 -0.4237  0.0879
 7021TIP3    H142554   0.798   2.681  41.217 -1.8522 -0.6683  1.8109
 7021TIP3    H242555   0.772   2.553  41.294  1.6589 -2.2673  0.5442
 7022TIP3   OH242556   0.552   0.457  39.803 -0.7339 -0.1405  0.2197
 7022TIP3    H142557   0.472   0.414  39.830 -0.8256 -0.2552 -0.2240
 7022TIP3    H242558   0.525   0.546  39.780 -0.3891  0.4779  2.0714
 7023TIP3   OH242559   2.508   2.309   3.866  0.0763 -0.1103  0.3720
 7023TIP3    H142560   2.490   2.215   3.862 -2.1364  0.2522  0.9415
 7023TIP3    H242561   2.506   2.337   3.774 -0.8617 -0.3459  0.3163
 7024TIP3   OH242562   1.045   3.217   3.824 -0.2719 -0.4573 -0.4671
 7024TIP3    H142563   1.006   3.154   3.884  0.5177 -1.2078 -0.7210
 7024TIP3    H242564   1.104   3.165   3.769  1.4219  0.6889  0.1933
 7025TIP3   OH242565   2.869   1.874  33.431  0.2580  0.2308  0.1180
 7025TIP3    H142566   2.962   1.853  33.424  0.0062 -0.8897 -0.0611
 7025TIP3    H242567   2.825   1.803  33.384 -0.7650 -0.1145  1.5483
 7026TIP3   OH242568   0.987   0.935  39.234 -0.5756 -0.1667 -0.1734
 7026TIP3    H142569   1.081   0.925  39.224 -0.2088  1.5783  1.1553
 7026TIP3    H242570   0.957   0.851  39.268  0.9265  0.1079  1.9790
 7027TIP3   OH242571   1.231   3.094   0.877 -0.2523  0.1770  0.3063
 7027TIP3    H142572   1.280   3.019   0.843  0.0948  0.7497 -0.4810
 7027TIP3    H242573   1.156   3.055   0.923  0.9671 -0.7283  1.6362
 7028TIP3   OH242574   1.561   2.601  38.787 -0.3893  0.1540  0.1922
 7028TIP3    H142575   1.554   2.627  38.879  1.9982  1.4704  0.0737
 7028TIP3    H242576   1.513   2.518  38.782 -1.5969  0.6464  2.3349
 7029TIP3   OH242577   1.365   2.402  28.103  0.2077  0.5867  0.1322
 7029TIP3    H142578   1.306   2.373  28.032  1.2140 -0.2436 -0.3998
 7029TIP3    H242579   1.442   2.436  28.058  0.2044  1.5387  0.8225
 7030TIP3   OH242580   1.603   3.677   6.285  0.2863 -0.2478 -0.0217
 7030TIP3    H142581   1.529   3.658   6.228 -0.9388  2.6394  0.4354
 7030TIP3    H242582   1.672   3.707   6.226 -0.4559  1.2445 -0.1812
 7031TIP3   OH242583   3.022   2.011  38.852 -0.2465 -0.1875 -0.4909
 7031TIP3    H142584   3.009   1.928  38.806 -0.4864 -0.5972  0.2863
 7031TIP3    H242585   3.101   2.048  38.813 -1.4637  0.4058 -2.5320
 7032TIP3   OH242586   3.693   3.559  38.460  0.0124  0.5275 -0.2566
 7032TIP3    H142587   3.779   3.601  38.460  0.6396 -0.6381  1.2055
 7032TIP3    H242588   3.679   3.535  38.551 -2.1680  1.2320 -0.3692
 7033TIP3   OH242589   3.462   2.148  38.492  0.2382 -0.5870  0.3720
 7033TIP3    H142590   3.428   2.199  38.566 -0.5843 -0.4566 -0.0901
 7033TIP3    H242591   3.386   2.104  38.456  0.6468 -0.7229 -0.3512
 7034TIP3   OH242592   3.647   2.586   0.791 -0.0378  0.4920 -0.3545
 7034TIP3    H142593   3.702   2.519   0.833  0.3621  0.2808 -1.2053
 7034TIP3    H242594   3.629   2.649   0.861  0.3079 -0.0514  0.2334
 7035TIP3   OH242595   2.319   0.139  27.806  0.3536 -0.2257 -0.1002
 7035TIP3    H142596   2.243   0.191  27.832  1.1336  0.4706  0.8730
 7035TIP3    H242597   2.288   0.084  27.734 -1.0342  0.1136  0.2247
 7036TIP3   OH242598   4.030   1.241  10.116 -0.5209  0.0648 -0.2901
 7036TIP3    H142599   4.029   1.310  10.182  3.1778 -1.1844  1.3459
 7036TIP3    H242600   3.956   1.185  10.140 -0.7183  0.9262  1.3209
 7037TIP3   OH242601   3.654   2.729  34.725  0.0427  0.3479  0.2281
 7037TIP3    H142602   3.620   2.716  34.637  1.8408 -0.3939 -0.4147
 7037TIP3    H242603   3.717   2.800  34.717  1.0047 -0.4178  0.6446
 7038TIP3   OH242604   1.223   1.221  15.739  0.1754 -0.4435  0.1117
 7038TIP3    H142605   1.129   1.201  15.744  0.1303  0.0827  2.1416
 7038TIP3    H242606   1.232   1.271  15.658 -1.7734  1.7785  1.1548
 7039TIP3   OH242607   2.390   1.981  36.741  0.2187  0.5593  0.3264
 7039TIP3    H142608   2.309   1.983  36.792  0.6538  1.5668  0.9920
 7039TIP3    H242609   2.361   1.990  36.650 -0.4636  0.0966  0.4864
 7040TIP3   OH242610   1.824   3.345   9.389 -0.3250  0.2557 -0.6512
 7040TIP3    H142611   1.886   3.344   9.462 -1.8866 -1.5258  0.7906
 7040TIP3    H242612   1.845   3.266   9.339 -1.3846 -0.4038 -0.1092
 7041TIP3   OH242613   1.160   4.021  17.180 -0.6030 -0.3236  0.0210
 7041TIP3    H142614   1.204   4.059  17.103 -0.2326  0.4201  0.5797
 7041TIP3    H242615   1.073   3.997  17.148 -1.0813  1.5542 -0.2645
 7042TIP3   OH242616   0.019   2.095  31.783 -0.6223 -0.4023 -0.3768
 7042TIP3    H142617   0.050   2.054  31.864  0.5745  0.5464 -0.3188
 7042TIP3    H242618   0.033   2.189  31.797 -2.2703 -0.0379 -0.9240
 7043TIP3   OH242619   3.712   2.804  23.582  0.3455 -1.0001 -0.0750
 7043TIP3    H142620   3.755   2.889  23.573  0.6990 -0.7770  2.7332
 7043TIP3    H242621   3.660   2.794  23.503  2.1631  0.7185 -1.5886
 7044TIP3   OH242622   2.854   1.795   4.240  0.0392 -0.3845 -0.1967
 7044TIP3    H142623   2.890   1.778   4.327  0.5540 -0.0724 -0.3448
 7044TIP3    H242624   2.918   1.852   4.198  0.1702 -1.1397 -1.0555
 7045TIP3   OH242625   2.531   0.504  40.524  0.5268  0.1929  0.2579
 7045TIP3    H142626   2.501   0.525  40.613  0.8600 -2.9427  1.2068
 7045TIP3    H242627   2.619   0.470  40.536  0.0603 -1.6017 -1.0669
 7046TIP3   OH242628   3.351   3.673   5.994 -0.3288 -0.4323  0.0034
 7046TIP3    H142629   3.331   3.595   5.943 -0.3887 -0.6671  0.3830
 7046TIP3    H242630   3.265   3.702   6.027 -0.2499 -0.4733  0.2457
 7047TIP3   OH242631   1.244   0.202   7.612  0.0372 -0.1590  0.6236
 7047TIP3    H142632   1.158   0.188   7.573  0.3249 -1.4181  0.3976
 7047TIP3    H242633   1.306   0.170   7.547  0.6668  0.4470  0.9139
 7048TIP3   OH242634   2.561   3.411   4.544  0.2453  0.2350  0.3197
 7048TIP3    H142635   2.592   3.332   4.588  0.4603 -0.7115 -1.4266
 7048TIP3    H242636   2.638   3.468   4.541  0.6984 -0.3888 -0.2868
 7049TIP3   OH242637   2.878   0.773   5.158  0.7516 -0.2360  0.5031
 7049TIP3    H142638   2.929   0.767   5.239 -1.0629 -1.8233  1.6430
 7049TIP3    H242639   2.915   0.706   5.101 -0.3140 -1.7679  1.5354
 7050TIP3   OH242640   1.698   3.382  34.973 -0.2432  0.0996  0.3010
 7050TIP3    H142641   1.680   3.476  34.975  0.4265  0.2361  0.1749
 7050TIP3    H242642   1.702   3.357  35.066  0.8882  0.4660  0.3662
 7051TIP3   OH242643   1.363   4.056  33.249  0.1723 -0.2935  0.1547
 7051TIP3    H142644   1.306   3.998  33.300  0.5985  0.0551  1.0413
 7051TIP3    H242645   1.321   4.142  33.255  0.1787 -0.2696 -0.1527
 7052TIP3   OH242646   0.486   2.580  30.184  0.0227 -0.5131 -0.6295
 7052TIP3    H142647   0.497   2.491  30.217 -1.1436 -0.6951 -0.6784
 7052TIP3    H242648   0.401   2.578  30.139  0.7487  0.1788 -2.1041
 7053TIP3   OH242649   0.035   1.729  11.335  0.2462  0.0720 -0.1248
 7053TIP3    H142650   0.122   1.688  11.329 -0.3414 -1.2092 -0.2272
 7053TIP3    H242651   0.033   1.789  11.261  0.8861 -0.2144 -0.3897
 7054TIP3   OH242652   3.741   3.245  29.267 -0.1893  0.2298 -0.1007
 7054TIP3    H142653   3.759   3.161  29.226 -2.3672 -0.8306  0.9507
 7054TIP3    H242654   3.747   3.229  29.361  1.1328  1.7355  0.1264
 7055TIP3   OH242655   4.233   2.482  36.827 -0.6880  0.0236 -0.5203
 7055TIP3    H142656   4.184   2.420  36.774 -1.4533  1.6871 -1.8350
 7055TIP3    H242657   4.302   2.515  36.769  0.1203 -0.0437  0.3610
 7056TIP3   OH242658   1.362   0.012   1.979  0.6909  0.4846 -0.5937
 7056TIP3    H142659   1.415  -0.052   2.026  0.7693  1.3641  0.5710
 7056TIP3    H242660   1.406   0.022   1.894  0.7420 -0.8815 -0.7516
 7057TIP3   OH242661   0.990   1.530  30.139  0.2982 -0.6525  0.2438
 7057TIP3    H142662   0.946   1.450  30.110 -1.1531 -0.8293  2.6498
 7057TIP3    H242663   1.063   1.500  30.193 -0.0224 -0.3805  0.8421
 7058TIP3   OH242664   3.905   3.617  35.655 -0.1306 -0.0706  0.1588
 7058TIP3    H142665   3.993   3.604  35.690 -0.9502 -5.3755  1.0385
 7058TIP3    H242666   3.919   3.641  35.563  2.1013  1.1459  0.7306
 7059TIP3   OH242667   3.603   0.586  27.831 -0.8845  0.3170  0.1300
 7059TIP3    H142668   3.672   0.528  27.797 -1.3466  0.4511 -1.1029
 7059TIP3    H242669   3.577   0.546  27.913 -0.4641 -0.6496 -0.1898
 7060TIP3   OH242670   0.168   3.158  23.466 -0.1083 -0.3540 -0.2305
 7060TIP3    H142671   0.248   3.207  23.449 -0.9488  0.7951 -1.0115
 7060TIP3    H242672   0.172   3.138  23.559  0.8926  0.0333 -0.1753
 7061TIP3   OH242673   4.288   4.373  34.396 -0.0572  0.3385  0.4315
 7061TIP3    H142674   4.313   4.281  34.403 -0.3617  0.2730  0.7219
 7061TIP3    H242675   4.341   4.418  34.462  0.1143  0.3721  0.2685
 7062TIP3   OH242676   1.738   2.283   2.703 -0.1634 -0.1649 -0.0756
 7062TIP3    H142677   1.702   2.204   2.744 -0.0566 -0.1521  0.0451
 7062TIP3    H242678   1.792   2.250   2.631 -1.8858 -0.1148 -1.4493
 7063TIP3   OH242679   0.307   3.582   1.375  0.3183  0.0339  0.0359
 7063TIP3    H142680   0.258   3.591   1.293 -1.7981  1.7312  1.3735
 7063TIP3    H242681   0.285   3.493   1.406 -1.3793  0.4611  0.1923
 7064TIP3   OH242682   2.641   1.511  12.168 -0.0500 -0.1150  0.0196
 7064TIP3    H142683   2.728   1.550  12.166 -0.0827  0.0401  1.0620
 7064TIP3    H242684   2.614   1.508  12.076  0.7933  0.4045 -0.2588
 7065TIP3   OH242685   3.590   2.651  30.761  0.2227  0.7634 -0.4606
 7065TIP3    H142686   3.559   2.679  30.847 -0.3994  0.2572 -0.5143
 7065TIP3    H242687   3.650   2.720  30.733  1.5254  0.2825  0.9802
 7066TIP3   OH242688   2.864   0.614  39.623  0.7620 -0.2502  0.4370
 7066TIP3    H142689   2.848   0.561  39.701  0.7289  1.2733  1.5025
 7066TIP3    H242690   2.847   0.704  39.651  1.4467  0.4019 -1.1349
 7067TIP3   OH242691   3.942   3.628   6.638 -0.3012  0.0757 -0.2507
 7067TIP3    H142692   3.996   3.678   6.699  1.1645 -0.8897 -0.7174
 7067TIP3    H242693   3.999   3.610   6.563 -1.2648 -0.9547 -0.7755
 7068TIP3   OH242694   1.768   0.401  11.043 -0.5771  0.7126 -0.1268
 7068TIP3    H142695   1.697   0.448  11.001 -1.1916  0.4177  0.5661
 7068TIP3    H242696   1.763   0.312  11.008 -0.1995  0.8267 -0.4861
 7069TIP3   OH242697   2.918   0.800   1.574  0.1837 -0.7410  0.2608
 7069TIP3    H142698   2.906   0.828   1.483  1.5219  1.1151  0.6204
 7069TIP3    H242699   2.841   0.835   1.620  0.5784  0.1900  0.2290
 7070TIP3   OH242700   4.183   0.786  39.970  0.1021  0.0313 -0.4011
 7070TIP3    H142701   4.248   0.835  40.020  1.4330 -2.0602  0.0448
 7070TIP3    H242702   4.142   0.851  39.913 -0.0001  2.1024  1.8901
 7071TIP3   OH242703   0.913   0.294  10.992 -0.1032  0.2931 -0.0746
 7071TIP3    H142704   0.909   0.202  10.965  0.1270  0.5072 -0.8685
 7071TIP3    H242705   0.950   0.292  11.080  0.7505 -0.3259 -0.4294
 7072TIP3   OH242706   0.165   1.435  40.414 -0.6159  0.0512 -0.1308
 7072TIP3    H142707   0.171   1.530  40.428 -2.2245  0.0504  0.7966
 7072TIP3    H242708   0.254   1.409  40.391 -0.1196  1.7707 -0.3085
 7073TIP3   OH242709   2.310   2.244   0.289  0.0387  0.3878 -0.3307
 7073TIP3    H142710   2.337   2.323   0.336  0.2615  0.9514 -1.3794
 7073TIP3    H242711   2.376   2.232   0.221 -0.6785  0.0165 -0.9822
 7074TIP3   OH242712   4.197   2.644  23.293 -0.0408 -0.0509  0.1617
 7074TIP3    H142713   4.198   2.702  23.217  2.2200 -1.0726 -0.6991
 7074TIP3    H242714   4.200   2.556  23.256  1.8626 -0.5640  1.3626
 7075TIP3   OH242715   1.520   3.492  37.414  0.3045  0.0279  0.0547
 7075TIP3    H142716   1.578   3.495  37.337 -0.5960 -2.0660 -0.7896
 7075TIP3    H242717   1.574   3.454  37.483  0.6734  0.4820  0.0213
 7076TIP3   OH242718   3.865   1.537   2.804 -0.2942  1.0141  0.1736
 7076TIP3    H142719   3.935   1.485   2.765 -1.5036 -1.2217  0.8371
 7076TIP3    H242720   3.859   1.615   2.748  1.0971  0.1191 -1.3002
 7077TIP3   OH242721   3.037   0.332  38.024  0.4439 -0.5810  0.1073
 7077TIP3    H142722   2.979   0.257  38.008 -1.2786  1.1462 -2.6936
 7077TIP3    H242723   3.122   0.305  37.989 -0.2821 -1.1203 -1.3276
 7078TIP3   OH242724   3.406   2.949  37.009 -0.2347 -0.0106  0.0960
 7078TIP3    H142725   3.456   2.997  36.942 -1.7059  0.6590 -0.5613
 7078TIP3    H242726   3.315   2.953  36.978 -0.8352 -0.3744  1.7433
 7079TIP3   OH242727   2.506   2.260  27.334  0.2829 -0.2705 -0.2829
 7079TIP3    H142728   2.497   2.256  27.429  0.8517  0.8598 -0.1680
 7079TIP3    H242729   2.538   2.173  27.309 -0.3911 -0.7549  0.4844
 7080TIP3   OH242730   1.050   1.324   1.835  0.1711 -0.0849 -0.6464
 7080TIP3    H142731   1.072   1.387   1.904 -0.9605  0.2059 -0.5192
 7080TIP3    H242732   0.973   1.279   1.869  1.0580 -1.6615 -0.6711
 7081TIP3   OH242733   3.613   0.759  29.899 -0.4230 -0.4987  0.5913
 7081TIP3    H142734   3.669   0.681  29.897  2.0486  0.9477 -4.8540
 7081TIP3    H242735   3.674   0.832  29.893 -2.7324  1.4475 -1.3246
 7082TIP3   OH242736   0.230   1.023  30.897  0.0106  0.0411 -0.0731
 7082TIP3    H142737   0.263   1.023  30.987 -0.5202  0.1513  0.1233
 7082TIP3    H242738   0.147   0.976  30.901  0.4708 -0.8539 -0.6981
 7083TIP3   OH242739   2.969   4.014   5.580 -0.0889  0.3216 -0.0118
 7083TIP3    H142740   2.985   4.104   5.610 -0.3992  0.2796  0.2874
 7083TIP3    H242741   2.971   4.020   5.484  2.0949  0.2533 -0.0230
 7084TIP3   OH242742   0.659   2.622  34.636 -0.0698 -0.0389 -0.1452
 7084TIP3    H142743   0.664   2.711  34.671  1.5882 -0.3032  0.3870
 7084TIP3    H242744   0.655   2.633  34.541 -3.8558  0.6731 -0.0300
 7085TIP3   OH242745   2.001   2.436  30.633 -0.0164 -0.0449  0.2518
 7085TIP3    H142746   2.042   2.488  30.564  0.7977 -0.3472  0.4935
 7085TIP3    H242747   1.959   2.501  30.690 -1.8237  0.1400 -1.2020
 7086TIP3   OH242748   2.835   0.264  36.259  0.2901 -0.6079  0.6629
 7086TIP3    H142749   2.896   0.319  36.210  1.3646 -1.6331  0.7986
 7086TIP3    H242750   2.750   0.306  36.247  0.9768  0.7383  0.2839
 7087TIP3   OH242751   0.241   3.748   8.093  0.2506  0.3840  0.0784
 7087TIP3    H142752   0.253   3.824   8.150 -1.2053  0.3009  0.5219
 7087TIP3    H242753   0.160   3.708   8.123  0.7059 -1.0398 -0.5172
 7088TIP3   OH242754   3.391   2.603  32.169 -0.1167 -0.2584 -0.5431
 7088TIP3    H142755   3.448   2.528  32.186  0.4543  0.5713  1.5052
 7088TIP3    H242756   3.449   2.672  32.137  0.0807  0.5361  1.3876
 7089TIP3   OH242757   1.696   4.022  13.813 -0.5635  0.2026 -0.1060
 7089TIP3    H142758   1.726   4.102  13.769 -1.3842  0.5518 -0.0607
 7089TIP3    H242759   1.618   4.050  13.862 -0.5515 -0.5139  0.3425
 7090TIP3   OH242760   3.964   0.749   0.234 -0.3341 -0.3070  0.4184
 7090TIP3    H142761   3.989   0.708   0.317 -0.1775 -1.0355  0.0212
 7090TIP3    H242762   3.974   0.843   0.250 -0.2136 -0.4397  1.1906
 7091TIP3   OH242763   2.074   0.361  38.451 -0.1460  1.0101  0.4437
 7091TIP3    H142764   2.121   0.278  38.439 -1.1307  0.7327 -2.0668
 7091TIP3    H242765   2.048   0.361  38.543 -1.3372 -2.1710  0.2252
 7092TIP3   OH242766   3.280   0.469  35.512  0.0483  0.2589  0.2545
 7092TIP3    H142767   3.325   0.390  35.539 -0.1397  0.3235  0.7626
 7092TIP3    H242768   3.206   0.477  35.572 -1.1764 -0.3285 -1.1088
 7093TIP3   OH242769   0.214   1.043  31.488 -0.2882 -0.6977 -0.1167
 7093TIP3    H142770   0.167   1.013  31.411 -0.8620 -2.2938  0.8151
 7093TIP3    H242771   0.156   1.024  31.561 -0.2301  1.7637  0.6763
 7094TIP3   OH242772   2.132   0.522   7.059  0.3717 -0.3029 -0.0907
 7094TIP3    H142773   2.114   0.615   7.049 -2.7855 -0.9502 -1.8077
 7094TIP3    H242774   2.150   0.491   6.970  0.6497 -1.4870  0.3533
 7095TIP3   OH242775   0.064   1.317  40.796 -0.4317  0.3493  0.3935
 7095TIP3    H142776   0.110   1.254  40.740  0.0649  1.2665 -0.2532
 7095TIP3    H242777  -0.013   1.269  40.827  0.5742 -0.9950  0.9461
 7096TIP3   OH242778   0.717   1.875  33.840 -0.2206  0.1528 -0.4169
 7096TIP3    H142779   0.812   1.869  33.838 -0.2547 -0.6608 -0.0012
 7096TIP3    H242780   0.699   1.960  33.880  0.3436 -0.3960  1.0742
 7097TIP3   OH242781   1.723   1.556  10.023  0.1776  0.0459 -0.1659
 7097TIP3    H142782   1.648   1.605   9.990  0.1469 -0.0398 -0.2253
 7097TIP3    H242783   1.784   1.552   9.950 -0.4057 -1.1829 -0.6109
 7098TIP3   OH242784   4.404   3.208  30.718 -0.3715 -0.1593  0.0011
 7098TIP3    H142785   4.391   3.114  30.728 -1.5475 -0.3266 -2.3894
 7098TIP3    H242786   4.496   3.219  30.697  0.0026 -0.6518  1.3386
 7099TIP3   OH242787   4.312   3.545  29.794 -0.1877  0.7796  1.0452
 7099TIP3    H142788   4.404   3.562  29.815 -0.0947  0.1959  1.1381
 7099TIP3    H242789   4.275   3.509  29.875 -0.4213  0.7424  0.9242
 7100TIP3   OH242790   2.222   0.764  33.488  0.0633  0.2655  0.2432
 7100TIP3    H142791   2.187   0.675  33.490 -0.2069  0.3743  0.4003
 7100TIP3    H242792   2.181   0.808  33.563  0.0059  0.5939  0.0177
 7101TIP3   OH242793   2.376   1.369   2.096 -0.0407  0.3664 -0.3189
 7101TIP3    H142794   2.283   1.377   2.117 -0.0321 -0.6059  0.1382
 7101TIP3    H242795   2.380   1.381   2.001 -1.2549 -3.8306 -1.1236
 7102TIP3   OH242796   2.819   1.249   1.966  0.2637 -0.1313  0.2979
 7102TIP3    H142797   2.788   1.159   1.969 -0.8267  0.2586  2.5878
 7102TIP3    H242798   2.901   1.245   1.915 -1.2700 -1.8664 -2.2691
 7103TIP3   OH242799   0.659   0.338  35.228  0.2135 -0.3723 -0.1570
 7103TIP3    H142800   0.600   0.277  35.183  0.6227 -1.0966  0.2728
 7103TIP3    H242801   0.734   0.346  35.169 -1.1871  2.2234 -1.7390
 7104TIP3   OH242802   4.274   2.971  41.007 -0.1686 -0.7467 -0.2500
 7104TIP3    H142803   4.196   2.916  41.016 -1.2243  0.7887  0.3338
 7104TIP3    H242804   4.260   3.019  40.925  0.3183 -0.6823 -0.2975
 7105TIP3   OH242805   1.919   3.950   2.739  0.0899  0.1477  0.2814
 7105TIP3    H142806   1.841   3.976   2.788 -0.0570  0.9078 -0.3264
 7105TIP3    H242807   1.903   3.983   2.650  1.5926  1.3752  0.4191
 7106TIP3   OH242808   0.931   0.146  11.637 -0.0588  0.3943 -0.2315
 7106TIP3    H142809   0.892   0.059  11.647 -0.1734  0.5558  0.9815
 7106TIP3    H242810   0.968   0.147  11.549 -0.0397 -0.8872 -0.2486
 7107TIP3   OH242811   0.091   4.108  31.860 -0.1746  0.0017  0.1118
 7107TIP3    H142812   0.042   4.094  31.779 -0.4658 -0.4831  0.3707
 7107TIP3    H242813   0.163   4.166  31.835 -0.2369 -0.1866 -0.5027
 7108TIP3   OH242814   0.732   3.506  18.038 -0.2599 -0.1261 -0.0537
 7108TIP3    H142815   0.697   3.547  18.117 -0.5504 -0.8041  0.1775
 7108TIP3    H242816   0.675   3.430  18.024 -1.1180  0.7657 -1.7325
 7109TIP3   OH242817   3.232   2.020  38.399  0.7087 -0.1902  0.0052
 7109TIP3    H142818   3.189   2.105  38.410  1.7866  0.1401  2.3574
 7109TIP3    H242819   3.234   2.006  38.305 -1.5791  1.2740 -0.3440
 7110TIP3   OH242820   0.115   1.978  40.454  0.4984 -0.3691  0.1384
 7110TIP3    H142821   0.190   1.969  40.513  1.8317 -0.9855 -1.5789
 7110TIP3    H242822   0.150   2.024  40.377 -1.6624  2.3003  0.5725
 7111TIP3   OH242823   0.562   0.102  37.080  0.5253  0.3942 -0.2964
 7111TIP3    H142824   0.626   0.174  37.082  0.1226  0.7925 -1.1523
 7111TIP3    H242825   0.597   0.037  37.140  1.5859  0.7360 -0.5217
 7112TIP3   OH242826   3.629   1.945  32.028 -0.4430 -0.8235  0.1282
 7112TIP3    H142827   3.696   1.891  31.987 -0.2498  0.8298 -1.9503
 7112TIP3    H242828   3.575   1.884  32.077  1.3826 -2.4754  0.2121
 7113TIP3   OH242829   2.614   0.845  13.040 -0.2760 -0.2834 -0.1020
 7113TIP3    H142830   2.625   0.756  13.007 -0.6281 -0.2207 -0.3936
 7113TIP3    H242831   2.545   0.838  13.105 -2.1457  0.1926 -1.9220
 7114TIP3   OH242832   0.503   4.174   6.545 -0.1943 -0.1685  0.1843
 7114TIP3    H142833   0.579   4.120   6.525  0.3206  0.0816  1.4032
 7114TIP3    H242834   0.450   4.172   6.465  1.0876 -0.3401 -0.6833
 7115TIP3   OH242835   1.579   1.346  10.171 -0.2057 -0.1286  0.1712
 7115TIP3    H142836   1.651   1.393  10.130 -1.4674  1.1464 -0.6939
 7115TIP3    H242837   1.582   1.259  10.132 -0.2321  0.4877 -1.2852
 7116TIP3   OH242838   4.129   0.871  10.599 -0.0636 -0.4159  0.2096
 7116TIP3    H142839   4.050   0.909  10.636 -1.1748 -2.8851  0.6181
 7116TIP3    H242840   4.130   0.901  10.508 -1.2870 -0.0697  0.2914
 7117TIP3   OH242841   3.974   0.529   8.044  0.4442 -0.5181  0.6566
 7117TIP3    H142842   3.982   0.622   8.062 -1.4712 -0.1589 -0.1290
 7117TIP3    H242843   3.886   0.505   8.074 -0.3360 -1.3228 -1.9120
 7118TIP3   OH242844   0.003   4.135  21.940 -0.4038  0.1353 -0.2303
 7118TIP3    H142845   0.041   4.185  22.012 -0.2240 -0.5177  0.1289
 7118TIP3    H242846  -0.059   4.195  21.900  0.7193  1.1002 -0.5939
 7119TIP3   OH242847   3.292   3.998  38.442 -0.2458 -0.0827  0.2378
 7119TIP3    H142848   3.230   4.009  38.514 -0.3114  1.9949 -0.0745
 7119TIP3    H242849   3.377   4.020  38.481 -0.1052 -0.1638 -0.0214
 7120TIP3   OH242850   0.501   0.623  32.328  0.6597  0.1132 -0.1971
 7120TIP3    H142851   0.556   0.599  32.253 -0.1534  0.3043 -0.8757
 7120TIP3    H242852   0.500   0.546  32.384  0.4724 -0.3885 -0.8813
 7121TIP3   OH242853   1.818   3.996   1.874  0.2482  0.3919  0.0553
 7121TIP3    H142854   1.839   3.970   1.784  0.0893  1.1824 -0.2208
 7121TIP3    H242855   1.752   3.934   1.903 -0.2913  0.6219 -0.6630
 7122TIP3   OH242856   1.101   2.428  36.125  0.2439 -0.2593  0.1169
 7122TIP3    H142857   1.053   2.480  36.189  1.5761  1.3153 -0.0825
 7122TIP3    H242858   1.040   2.416  36.052 -0.3320  0.4435  0.4740
 7123TIP3   OH242859   2.792   0.437  29.923 -0.2794 -0.2053 -0.2668
 7123TIP3    H142860   2.724   0.459  29.859 -2.1778 -1.2197  1.2905
 7123TIP3    H242861   2.820   0.521  29.959  2.9489  0.7262 -4.2684
 7124TIP3   OH242862   3.427   3.849  28.887 -0.0163  0.0216  0.3242
 7124TIP3    H142863   3.371   3.925  28.873 -0.5868 -0.2283  1.1857
 7124TIP3    H242864   3.386   3.801  28.958  1.5025  0.0393  1.2749
 7125TIP3   OH242865   3.652   3.522  28.675  0.4058 -0.2718  0.3604
 7125TIP3    H142866   3.726   3.466  28.697 -0.9992 -2.2502  0.2836
 7125TIP3    H242867   3.681   3.571  28.598  3.0214  1.9843  2.5535
 7126TIP3   OH242868   1.769   1.924  29.019  0.5230 -0.1748 -0.6262
 7126TIP3    H142869   1.679   1.901  28.993 -0.5367  1.3354  1.3432
 7126TIP3    H242870   1.799   1.985  28.952 -0.8596  1.0857 -0.1640
 7127TIP3   OH242871   0.395   3.432   3.304 -0.1928 -0.4447 -0.2006
 7127TIP3    H142872   0.428   3.389   3.384 -1.4748 -1.6951 -0.2994
 7127TIP3    H242873   0.437   3.384   3.232  0.6368  0.4113 -0.3071
 7128TIP3   OH242874   3.425   2.011  12.456 -0.0827 -0.1052 -1.1049
 7128TIP3    H142875   3.435   2.030  12.549  1.1347 -2.1346 -0.7536
 7128TIP3    H242876   3.336   1.975  12.448  0.2034 -0.9917 -0.4847
 7129TIP3   OH242877   3.976   1.383  38.693 -0.4463 -0.3886 -0.2000
 7129TIP3    H142878   4.019   1.449  38.748  1.3393  0.1967 -2.1554
 7129TIP3    H242879   3.934   1.434  38.623 -0.3934 -1.2217 -0.8593
 7130TIP3   OH242880   0.954   0.268  41.621 -0.1269  0.9488  0.4281
 7130TIP3    H142881   0.983   0.179  41.642 -1.4575  0.6297  1.0457
 7130TIP3    H242882   1.023   0.303  41.564  0.7321 -0.2439  0.6936
 7131TIP3   OH242883   1.640   0.161   6.861 -0.1753  0.1960  0.4767
 7131TIP3    H142884   1.734   0.147   6.861  0.0449  1.4389  2.5460
 7131TIP3    H242885   1.606   0.098   6.925 -0.7676 -0.2538 -0.2611
 7132TIP3   OH242886   4.368   3.432  26.213  0.2215 -0.0453 -0.5219
 7132TIP3    H142887   4.391   3.497  26.147 -1.2874 -0.3352 -1.3919
 7132TIP3    H242888   4.317   3.480  26.278  1.8298  0.2706  0.5540
 7133TIP3   OH242889   3.553   4.357   7.282  0.4983 -0.3972  0.4211
 7133TIP3    H142890   3.529   4.367   7.189  2.5256 -0.5107 -0.1565
 7133TIP3    H242891   3.539   4.263   7.299  0.0953 -0.3730  0.2385
 7134TIP3   OH242892   0.336   3.351   7.825  0.2442 -0.2728 -0.0099
 7134TIP3    H142893   0.268   3.418   7.833  0.1366 -0.4660  0.7202
 7134TIP3    H242894   0.294   3.280   7.776 -0.5085 -0.9401  1.5511
 7135TIP3   OH242895   0.794   2.753  12.900  0.0238 -0.1191  0.1459
 7135TIP3    H142896   0.723   2.699  12.936 -0.2366  0.0798 -0.0659
 7135TIP3    H242897   0.830   2.701  12.828 -0.1509 -0.0587  0.0159
 7136TIP3   OH242898   2.364   1.286   4.906 -0.4602 -0.4368  0.1179
 7136TIP3    H142899   2.291   1.348   4.908 -0.7762 -0.8114  1.3579
 7136TIP3    H242900   2.421   1.315   4.977 -0.7616 -1.7275  0.9191
 7137TIP3   OH242901   0.623   3.312   5.347  0.4529 -0.1565 -0.0950
 7137TIP3    H142902   0.561   3.240   5.355  1.3103 -0.7744  1.3538
 7137TIP3    H242903   0.688   3.296   5.415  0.3562  2.3015  0.6801
 7138TIP3   OH242904   2.813   1.583  10.751 -0.0673 -0.2746 -0.1618
 7138TIP3    H142905   2.865   1.533  10.688  0.6810  0.9056 -0.5256
 7138TIP3    H242906   2.856   1.669  10.754 -0.1285 -0.2663  1.9128
 7139TIP3   OH242907   0.772   0.885  33.838 -0.3268  0.3222  0.2061
 7139TIP3    H142908   0.692   0.838  33.816 -0.6032  0.5693  0.6594
 7139TIP3    H242909   0.833   0.817  33.867 -0.1288  0.0548 -0.8244
 7140TIP3   OH242910   3.864   1.537  36.895  0.0610 -0.1205  0.2810
 7140TIP3    H142911   3.883   1.504  36.807 -1.3696  0.2818 -0.2221
 7140TIP3    H242912   3.823   1.622  36.880 -2.9294 -1.2712  1.1069
 7141TIP3   OH242913   3.509   3.094   2.062 -0.2146  0.2090  0.1659
 7141TIP3    H142914   3.449   3.020   2.074  0.7845 -0.7271 -0.5417
 7141TIP3    H242915   3.595   3.055   2.055  0.1732  1.2962 -1.8963
 7142TIP3   OH242916   1.621   0.258  29.650 -0.3501  0.5407  0.1066
 7142TIP3    H142917   1.713   0.244  29.624 -0.2521  0.7233  0.3555
 7142TIP3    H242918   1.571   0.245  29.569 -0.2394 -1.0195  0.2528
 7143TIP3   OH242919   2.093   1.549  37.371 -0.1309 -0.0388 -0.7637
 7143TIP3    H142920   2.082   1.471  37.317 -1.9168 -0.6449  0.3624
 7143TIP3    H242921   2.176   1.587  37.343 -0.3959 -0.9871 -3.0332
 7144TIP3   OH242922   3.643   4.224  27.968  0.0137 -0.1478 -0.2408
 7144TIP3    H142923   3.677   4.242  28.056 -0.0715  1.3654 -0.4895
 7144TIP3    H242924   3.549   4.240  27.975  0.1307  0.8601 -0.8007
 7145TIP3   OH242925   0.997   2.294  28.259 -0.6013  0.1449  0.0781
 7145TIP3    H142926   1.028   2.353  28.191 -1.0721  1.3642  0.8693
 7145TIP3    H242927   0.920   2.252  28.221  0.0938 -0.4429 -0.7146
 7146TIP3   OH242928   3.763   0.981  38.798  0.1593  0.2771 -0.1773
 7146TIP3    H142929   3.675   0.949  38.775  0.1476  0.3119 -0.1831
 7146TIP3    H242930   3.777   1.056  38.740 -0.7349  1.6949  1.3354
 7147TIP3   OH242931   1.942   2.629  33.428 -0.2008  0.8428  0.1551
 7147TIP3    H142932   1.908   2.641  33.339 -0.9612 -0.8609  0.1641
 7147TIP3    H242933   2.014   2.567  33.418 -0.1599  0.7970  0.6985
 7148TIP3   OH242934   3.377   1.381   9.153 -0.4136 -0.4914 -0.1270
 7148TIP3    H142935   3.342   1.434   9.224  0.0237  0.4247 -0.5836
 7148TIP3    H242936   3.310   1.314   9.138 -0.2699 -1.0370  1.4857
 7149TIP3   OH242937   2.746   0.358  38.968  0.2478 -0.3159 -0.3462
 7149TIP3    H142938   2.720   0.383  38.879 -1.2739  2.1115  0.6954
 7149TIP3    H242939   2.670   0.312  39.004  0.8259 -1.2145 -0.2412
 7150TIP3   OH242940   3.808   1.135  36.007  0.1478  0.0041  0.6866
 7150TIP3    H142941   3.838   1.216  35.965 -2.7278  0.7820 -0.0974
 7150TIP3    H242942   3.719   1.154  36.036 -0.3462 -2.6454  1.1995
 7151TIP3   OH242943   0.828   1.310  30.084  1.0520  0.3953  0.0423
 7151TIP3    H142944   0.735   1.316  30.104  1.0501  0.7440 -0.0720
 7151TIP3    H242945   0.865   1.259  30.156  0.5240 -1.0589 -0.6662
 7152TIP3   OH242946   0.067   1.782  38.694  0.2916 -0.3345  0.5058
 7152TIP3    H142947   0.056   1.877  38.689  0.8884 -0.2327  1.0266
 7152TIP3    H242948   0.029   1.758  38.779 -0.7671 -0.7099 -0.0489
 7153TIP3   OH242949   4.291   3.418   5.306 -0.0027 -0.1685 -0.7978
 7153TIP3    H142950   4.306   3.393   5.397  0.2763 -1.7242 -1.2347
 7153TIP3    H242951   4.260   3.508   5.310 -1.2660 -0.6265  0.9357
 7154TIP3   OH242952   2.423   4.317  33.478 -0.3026  0.2392  0.1515
 7154TIP3    H142953   2.439   4.376  33.552  1.7303 -1.4609  1.1930
 7154TIP3    H242954   2.362   4.252  33.512  0.0514 -0.1163  0.1241
 7155TIP3   OH242955   3.805   0.765  39.002 -0.0026  0.5902 -0.2904
 7155TIP3    H142956   3.780   0.845  38.955 -0.2598  0.8899  0.3536
 7155TIP3    H242957   3.739   0.701  38.976 -0.7526  1.0405  0.4466
 7156TIP3   OH242958   2.140   0.530  32.761  0.0672 -0.3361  0.4665
 7156TIP3    H142959   2.095   0.576  32.832  2.2479 -1.0598  2.4527
 7156TIP3    H242960   2.127   0.437  32.780 -0.1743 -0.5586 -0.7075
 7157TIP3   OH242961   2.373   1.356   3.449  0.8491 -0.4931 -0.2236
 7157TIP3    H142962   2.441   1.418   3.424  0.0465 -0.2418 -2.0208
 7157TIP3    H242963   2.336   1.391   3.530  0.4032  1.4594 -1.2019
 7158TIP3   OH242964   0.886   1.033   9.153  0.6141  0.1390  0.0600
 7158TIP3    H142965   0.834   1.108   9.181 -1.7517 -0.8445 -1.4299
 7158TIP3    H242966   0.964   1.073   9.114 -0.1472  1.7903  0.1038
 7159TIP3   OH242967   2.462   1.385  31.154 -0.2317  0.0601 -0.4595
 7159TIP3    H142968   2.446   1.464  31.103 -0.9863  0.5173  0.4474
 7159TIP3    H242969   2.482   1.318  31.089 -0.6562  0.7394 -1.3172
 7160TIP3   OH242970   3.036   3.835   1.028  0.7626  0.4299  0.2392
 7160TIP3    H142971   3.046   3.929   1.014 -0.2211  0.3914 -0.9019
 7160TIP3    H242972   3.035   3.825   1.124  0.5553  1.6094  0.3780
 7161TIP3   OH242973   3.429   2.426  37.432  0.1507 -0.0119  0.3133
 7161TIP3    H142974   3.446   2.333  37.448  1.2340 -0.1355 -1.3314
 7161TIP3    H242975   3.399   2.429  37.341 -1.3044  1.1121  0.7969
 7162TIP3   OH242976   1.951   2.507   6.765 -0.0088  0.0086 -0.5569
 7162TIP3    H142977   2.026   2.475   6.816 -1.3641 -1.5966  0.5125
 7162TIP3    H242978   1.991   2.561   6.697  2.2843 -2.0848 -1.0368
 7163TIP3   OH242979   0.402   3.671  31.382 -0.0479  0.1327 -0.0391
 7163TIP3    H142980   0.351   3.653  31.303  1.5006 -1.2349 -0.8000
 7163TIP3    H242981   0.341   3.660  31.454 -1.1593  0.0094 -0.9810
 7164TIP3   OH242982   3.792   1.501  39.380  0.1689  0.4696  0.4343
 7164TIP3    H142983   3.755   1.563  39.443 -0.5797  1.8158 -1.2419
 7164TIP3    H242984   3.859   1.551  39.333 -1.5919  0.6495 -2.0939
 7165TIP3   OH242985   4.329   1.510  41.572  0.1248 -0.0643 -1.0429
 7165TIP3    H142986   4.404   1.463  41.609 -0.8552 -0.4272  0.5411
 7165TIP3    H242987   4.368   1.565  41.503  1.6189 -1.4007 -1.3417
 7166TIP3   OH242988   3.273   3.297  27.179 -0.1202  0.3429 -0.4188
 7166TIP3    H142989   3.340   3.302  27.110  0.9560 -0.2822  0.5518
 7166TIP3    H242990   3.208   3.236  27.144  1.2463 -1.3125 -0.2433
 7167TIP3   OH242991   3.384   3.102  29.796 -0.0683 -0.2327  0.2868
 7167TIP3    H142992   3.292   3.114  29.818  0.5139  0.4910  2.6084
 7167TIP3    H242993   3.398   3.159  29.720 -1.3866  0.0569  0.2381
 7168TIP3   OH242994   1.638   0.504  27.741  0.3495 -0.0249  0.1293
 7168TIP3    H142995   1.649   0.469  27.830 -0.1944 -0.4565  0.0279
 7168TIP3    H242996   1.584   0.582  27.752 -1.8789 -1.4772 -0.0888
 7169TIP3   OH242997   3.011   3.491  34.462 -0.0759  0.3714 -0.0213
 7169TIP3    H142998   3.106   3.483  34.460 -0.1068  0.0151 -0.3588
 7169TIP3    H242999   2.994   3.584  34.473  0.3110  0.5035 -0.5086
 7170TIP3   OH243000   3.774   4.093  13.142 -0.0288 -0.4082  0.2180
 7170TIP3    H143001   3.809   4.005  13.129 -1.4251 -0.6767 -2.3423
 7170TIP3    H243002   3.724   4.087  13.224  0.3679 -1.8160  0.3832
 7171TIP3   OH243003   2.597   1.347  36.238 -0.1240 -0.2672 -0.1344
 7171TIP3    H143004   2.554   1.360  36.322  0.2398  1.9511 -0.2444
 7171TIP3    H243005   2.552   1.406  36.178  0.9070 -0.3515 -1.0284
 7172TIP3   OH243006   3.221   1.486   9.385  0.4120  0.8013  0.0105
 7172TIP3    H143007   3.134   1.457   9.413 -1.5245  2.6472 -3.4237
 7172TIP3    H243008   3.213   1.580   9.375  3.2018  1.1744  0.5452
 7173TIP3   OH243009   1.819   2.518  29.279  0.4615  0.1699 -0.1091
 7173TIP3    H143010   1.730   2.553  29.287  0.2654 -0.1122 -1.0324
 7173TIP3    H243011   1.872   2.595  29.260  0.2187  0.1581 -0.8559
 7174TIP3   OH243012   3.611   0.647  38.601 -0.2086 -0.5646 -0.5034
 7174TIP3    H143013   3.690   0.603  38.631  0.3158 -0.6807 -2.0150
 7174TIP3    H243014   3.540   0.599  38.644  0.5311  1.3294  3.2295
 7175TIP3   OH243015   0.812   0.176   7.616  0.0175 -0.2252 -0.1229
 7175TIP3    H143016   0.759   0.225   7.679  0.1474  2.6914 -2.0601
 7175TIP3    H243017   0.869   0.121   7.669 -1.4444  0.3372  2.1722
 7176TIP3   OH243018   2.270   3.998   6.107 -0.2234  0.0139  0.1175
 7176TIP3    H143019   2.225   4.000   6.191 -2.7154 -1.7006 -1.0560
 7176TIP3    H243020   2.358   3.968   6.128 -0.7060 -0.1291  2.1363
 7177TIP3   OH243021   0.091   3.597  26.443  0.5729 -0.1399  0.0193
 7177TIP3    H143022   0.017   3.554  26.485  0.1816  0.4514 -0.0511
 7177TIP3    H243023   0.166   3.577  26.499  0.1529  0.2122  0.7208
 7178TIP3   OH243024   1.226   0.731  10.851  0.0714 -0.8411  0.1912
 7178TIP3    H143025   1.192   0.671  10.916 -1.5295  0.0914  0.2842
 7178TIP3    H243026   1.148   0.774  10.815  1.1236  1.1732  0.1427
 7179TIP3   OH243027   2.453   1.288  38.106 -0.6552  0.1883 -0.5399
 7179TIP3    H143028   2.438   1.324  38.194  2.5200 -0.0242  0.1986
 7179TIP3    H243029   2.367   1.258  38.078 -2.3042  2.7038  1.3513
 7180TIP3   OH243030   2.746   0.570  40.933 -0.5236  0.2499  1.2921
 7180TIP3    H143031   2.757   0.490  40.881  0.5084  0.6976  0.7807
 7180TIP3    H243032   2.673   0.551  40.992 -0.6853 -0.8481  0.7623
 7181TIP3   OH243033   3.472   1.701  12.733 -0.2416 -0.2998  0.4713
 7181TIP3    H143034   3.522   1.670  12.657 -1.3952  0.0180 -0.4578
 7181TIP3    H243035   3.487   1.636  12.800  2.5691  0.4903  0.7520
 7182TIP3   OH243036   1.644   2.076   0.543 -0.3523 -0.0271 -0.0873
 7182TIP3    H143037   1.628   2.053   0.634 -0.5698 -0.2289 -0.1770
 7182TIP3    H243038   1.680   1.996   0.504  0.4254  0.2662 -0.0066
 7183TIP3   OH243039   0.809   2.431  12.333  0.0061  0.1274 -0.1359
 7183TIP3    H143040   0.802   2.388  12.248 -0.6826  2.4527 -1.3465
 7183TIP3    H243041   0.724   2.416  12.375  0.4791 -1.3433  0.3452
 7184TIP3   OH243042   2.996   1.742  29.502 -0.8791  0.7386  0.4656
 7184TIP3    H143043   2.994   1.775  29.592  0.2672  0.2291  0.6945
 7184TIP3    H243044   2.936   1.799  29.454 -1.9300  0.6667  1.6638
 7185TIP3   OH243045   0.398   3.405  40.042 -0.1299 -0.4886 -0.3586
 7185TIP3    H143046   0.469   3.423  40.103  0.3468  0.6766 -1.2283
 7185TIP3    H243047   0.431   3.434  39.957 -1.5374 -0.2137 -0.8338
 7186TIP3   OH243048   1.407   4.100   8.236  0.2243 -0.2747 -0.0500
 7186TIP3    H143049   1.466   4.175   8.248 -0.7566  0.7687 -1.4161
 7186TIP3    H243050   1.339   4.112   8.302 -0.6819  0.8524 -1.1419
 7187TIP3   OH243051   3.424   0.710   0.269 -0.1349 -0.1684 -0.2187
 7187TIP3    H143052   3.513   0.727   0.235 -1.2101  2.4729 -2.1105
 7187TIP3    H243053   3.403   0.622   0.237  0.8088  0.2634 -2.2402
 7188TIP3   OH243054   1.213   2.647  28.899 -0.1404  0.1765  0.0105
 7188TIP3    H143055   1.271   2.680  28.968  1.7196 -0.6703 -1.0745
 7188TIP3    H243056   1.180   2.726  28.856  0.0329  0.6796  0.7713
 7189TIP3   OH243057   4.150   4.283  33.889  0.3230 -0.5807 -0.2053
 7189TIP3    H143058   4.076   4.281  33.829  0.5070 -1.2465 -0.4191
 7189TIP3    H243059   4.178   4.375  33.889 -0.0299 -0.4660 -0.6920
 7190TIP3   OH243060   2.981   0.584  12.551  0.2056 -0.0175 -0.0253
 7190TIP3    H143061   2.898   0.560  12.510  0.6849 -1.5879 -0.1345
 7190TIP3    H243062   3.023   0.501  12.570  2.0575  0.7378 -0.5884
 7191TIP3   OH243063   0.782   3.065  40.171 -0.5177 -0.0667 -0.1697
 7191TIP3    H143064   0.694   3.103  40.160 -0.7211 -0.2307  0.7693
 7191TIP3    H243065   0.813   3.051  40.082 -0.6414  1.8203 -0.5586
 7192TIP3   OH243066   2.565   3.722  38.785 -0.5826  0.2119  0.5927
 7192TIP3    H143067   2.605   3.725  38.872 -0.4299 -2.0286  0.6739
 7192TIP3    H243068   2.608   3.792  38.736  1.0525 -0.0046  1.6463
 7193TIP3   OH243069   0.712   2.095  30.185  0.1005 -0.0874 -0.0783
 7193TIP3    H143070   0.628   2.061  30.214  0.1082 -0.4170 -0.4409
 7193TIP3    H243071   0.697   2.127  30.097  0.3058  0.0384 -0.0691
 7194TIP3   OH243072   1.144   0.344  34.541  0.5883 -0.0082  0.2109
 7194TIP3    H143073   1.094   0.344  34.623 -0.5400  1.1204 -0.4472
 7194TIP3    H243074   1.235   0.353  34.569  0.1806  0.8679  1.3504
 7195TIP3   OH243075   3.588   2.684  34.137 -0.1712  0.3258 -0.0475
 7195TIP3    H143076   3.563   2.633  34.060 -0.8785  0.3002  0.1946
 7195TIP3    H243077   3.575   2.775  34.109 -2.7159  0.2745  0.7859
 7196TIP3   OH243078   1.163   3.546  35.391  0.9090  0.4178 -0.1269
 7196TIP3    H143079   1.087   3.488  35.382  0.2506  1.3650 -0.9949
 7196TIP3    H243080   1.204   3.519  35.473 -1.8904  1.5841  1.8087
 7197TIP3   OH243081   0.105   2.602  31.292 -0.1016 -0.5463 -0.2263
 7197TIP3    H143082   0.180   2.546  31.312  1.1794  1.1864  0.0503
 7197TIP3    H243083   0.113   2.622  31.199 -1.1247 -1.5705 -0.5625
 7198TIP3   OH243084   3.473   4.269  27.023 -0.4240 -0.5056  0.4537
 7198TIP3    H143085   3.404   4.328  26.994 -0.6480 -1.1422 -0.3378
 7198TIP3    H243086   3.427   4.192  27.058 -0.1640  0.1675  2.4297
 7199TIP3   OH243087   0.969   2.919  13.020  0.2062  0.7710  0.7268
 7199TIP3    H143088   0.963   2.866  12.940  1.3562  0.6568  0.6991
 7199TIP3    H243089   0.910   2.876  13.082  1.0609 -0.5298  0.6770
 7200TIP3   OH243090   0.046   2.749  28.863  0.3006 -0.7513  0.0930
 7200TIP3    H143091   0.060   2.840  28.836  0.4279 -0.5947  0.6771
 7200TIP3    H243092   0.130   2.722  28.900  0.7000 -1.5531 -1.2979
 7201TIP3   OH243093   1.742   3.148  39.389 -0.2323  0.2610 -0.5741
 7201TIP3    H143094   1.678   3.197  39.337 -1.0332  0.8418  0.9043
 7201TIP3    H243095   1.790   3.215  39.437 -1.1788 -0.3320  1.2911
 7202TIP3   OH243096   0.038   2.924   7.678 -0.0801 -0.4753  0.0336
 7202TIP3    H143097   0.034   2.850   7.618 -1.2298  0.3849 -0.9908
 7202TIP3    H243098  -0.051   2.930   7.714  0.5146 -0.8255  1.6897
 7203TIP3   OH243099   4.228   2.390  38.102 -0.3357 -0.3248  0.7149
 7203TIP3    H143100   4.209   2.298  38.085  0.6685 -0.3603 -0.4323
 7203TIP3    H243101   4.314   2.404  38.061 -0.0516  0.8981  1.6636
 7204TIP3   OH243102   0.567   0.166  39.624  0.4744 -1.2235 -0.6543
 7204TIP3    H143103   0.509   0.115  39.680  1.3934 -0.9592  0.5698
 7204TIP3    H243104   0.637   0.105  39.600  1.6395 -0.5687  0.9105
 7205TIP3   OH243105   1.503   3.304  39.245  0.1757 -0.1199 -0.3925
 7205TIP3    H143106   1.436   3.249  39.205 -2.5591  1.6827  1.2957
 7205TIP3    H243107   1.485   3.392  39.211 -0.4169  0.9530  2.4116
 7206TIP3   OH243108   2.929   1.542   1.756 -0.1025 -0.4153  0.0495
 7206TIP3    H143109   2.944   1.515   1.847 -1.4520 -0.2129  0.3508
 7206TIP3    H243110   2.982   1.622   1.746  3.0598 -2.3947 -0.5237
 7207TIP3   OH243111   2.509   2.997   7.070 -0.4692 -0.1959  0.5414
 7207TIP3    H143112   2.465   2.914   7.090  0.3224 -0.5758  0.7525
 7207TIP3    H243113   2.440   3.053   7.034 -1.1608 -0.7097  1.0468
 7208TIP3   OH243114   3.224   4.047  29.781 -0.7406 -0.3702 -0.4646
 7208TIP3    H143115   3.248   4.139  29.795 -1.5558 -0.2412  0.1295
 7208TIP3    H243116   3.308   4.001  29.779 -0.3388  0.3506 -0.4901
 7209TIP3   OH243117   2.242   0.677  34.061 -0.3465  0.0599  0.1783
 7209TIP3    H143118   2.213   0.702  34.149  0.5655  0.8693  0.2732
 7209TIP3    H243119   2.330   0.642  34.074 -1.7898 -4.1403  0.1607
 7210TIP3   OH243120   1.430   0.512  35.655 -0.1035 -0.5611  0.2700
 7210TIP3    H143121   1.393   0.557  35.731  0.6867  1.3665 -0.4007
 7210TIP3    H243122   1.488   0.446  35.692  0.6890  0.7075  1.3898
 7211TIP3   OH243123   1.694   1.054   1.347 -0.0583  0.2407  0.0281
 7211TIP3    H143124   1.711   1.086   1.436 -4.7900  0.4394  1.1346
 7211TIP3    H243125   1.674   0.961   1.359  0.3282  0.0144 -1.0290
 7212TIP3   OH243126   3.908   3.997  10.276  0.0126  0.4216 -0.9000
 7212TIP3    H143127   3.974   4.061  10.301 -0.5217  0.7306 -0.2312
 7212TIP3    H243128   3.852   4.044  10.214  0.4481  0.1415 -1.5113
 7213TIP3   OH243129   4.312   2.435  29.480  0.3157  0.3220  0.5077
 7213TIP3    H143130   4.290   2.373  29.409 -0.1762 -0.1518  1.0597
 7213TIP3    H243131   4.235   2.432  29.538  0.7859  0.5776  1.1492
 7214TIP3   OH243132   1.704   0.729  35.375  0.2001  0.5610 -0.5415
 7214TIP3    H143133   1.795   0.747  35.350  0.0391  0.3936 -1.2665
 7214TIP3    H243134   1.683   0.798  35.438  2.2084 -1.8582  3.1542
 7215TIP3   OH243135   1.971   3.943  34.948 -0.2707 -0.5901  0.0448
 7215TIP3    H143136   1.930   3.947  34.862  0.7733 -0.7429 -0.4696
 7215TIP3    H243137   1.908   3.986  35.006 -1.3218 -1.1341 -0.6480
 7216TIP3   OH243138   1.866   0.368  41.590  1.1507 -0.0609  0.0874
 7216TIP3    H143139   1.791   0.400  41.539  1.3839  0.8065  0.2694
 7216TIP3    H243140   1.887   0.284  41.550  0.7719  0.1958 -0.6908
 7217TIP3   OH243141   2.592   3.390  35.386  0.2712  0.2224 -0.2795
 7217TIP3    H143142   2.535   3.422  35.455  0.3159 -0.8947  0.3125
 7217TIP3    H243143   2.533   3.361  35.317  0.1602  0.0043 -0.0931
 7218TIP3   OH243144   3.959   1.376  36.282  0.5176  0.2211  0.0665
 7218TIP3    H143145   3.921   1.288  36.285 -0.5216  0.5935 -1.4265
 7218TIP3    H243146   3.893   1.433  36.321  1.3422  0.3374  1.3786
 7219TIP3   OH243147   1.277   2.264  29.480 -0.4344  0.4763 -0.2970
 7219TIP3    H143148   1.349   2.227  29.430  1.6820 -0.9105  3.3614
 7219TIP3    H243149   1.215   2.191  29.492  0.6988 -0.2349  1.7046
 7220TIP3   OH243150   2.643   4.209   2.269  0.0586 -0.3548 -0.5386
 7220TIP3    H143151   2.696   4.245   2.197  0.2242  0.8730  0.1707
 7220TIP3    H243152   2.561   4.258   2.265  0.0249 -0.3607  0.0440
 7221TIP3   OH243153   2.226   3.696  27.845 -0.5427 -0.1329  0.1638
 7221TIP3    H143154   2.134   3.699  27.818  0.0029  2.4510 -1.7236
 7221TIP3    H243155   2.236   3.770  27.905  0.7450  0.9922 -1.3625
 7222TIP3   OH243156   0.473   0.770  29.242 -0.3374 -0.5309 -0.6361
 7222TIP3    H143157   0.560   0.774  29.282 -0.6587  1.1888 -0.0222
 7222TIP3    H243158   0.459   0.677  29.225  1.0714 -0.9902  0.4873
 7223TIP3   OH243159   1.245   0.107  29.583 -0.0893  0.2372  0.3645
 7223TIP3    H143160   1.259   0.198  29.608 -1.6379  0.8064 -0.6527
 7223TIP3    H243161   1.169   0.110  29.525  0.2493 -1.6287 -0.2430
 7224TIP3   OH243162   1.237   1.027  30.480  0.4250 -0.2069  0.3932
 7224TIP3    H143163   1.223   1.121  30.489  0.8513 -0.1124  0.0517
 7224TIP3    H243164   1.199   0.990  30.560 -0.8717  0.1395 -0.0371
 7225TIP3   OH243165   0.091   2.193   5.972  0.5525 -0.0683  0.1238
 7225TIP3    H143166   0.138   2.227   5.896 -0.9474  0.1458 -0.7458
 7225TIP3    H243167   0.094   2.265   6.036  1.2677 -0.0109  0.0324
 7226TIP3   OH243168   1.922   4.096  10.171 -0.0747 -0.0218  0.1415
 7226TIP3    H143169   1.969   4.154  10.111 -0.7707  1.6530  1.1531
 7226TIP3    H243170   1.867   4.155  10.222 -0.6294 -1.5750  1.3823
 7227TIP3   OH243171   2.681   0.929  38.800  0.0678 -0.1197 -0.8622
 7227TIP3    H143172   2.617   0.904  38.733 -1.1073 -0.4004  0.3054
 7227TIP3    H243173   2.687   0.853  38.857 -0.1084  0.6174  0.1839
 7228TIP3   OH243174   0.184   2.860  26.035  0.6016  0.3399 -0.3238
 7228TIP3    H143175   0.200   2.776  26.079  0.9064  0.4950 -0.1313
 7228TIP3    H243176   0.148   2.916  26.104  0.1024  0.2762 -0.5290
 7229TIP3   OH243177   2.606   1.455  11.523  0.0511 -0.7252 -0.4938
 7229TIP3    H143178   2.631   1.469  11.432  1.5549  0.0330  0.0118
 7229TIP3    H243179   2.637   1.367  11.544  2.8777  0.3325  0.2400
 7230TIP3   OH243180   2.832   3.855   4.530  0.2518 -0.0542 -0.1334
 7230TIP3    H143181   2.764   3.897   4.478 -1.0910 -1.6411  0.2886
 7230TIP3    H243182   2.816   3.762   4.521  3.1496 -0.5932 -1.0299
 7231TIP3   OH243183   2.189   4.349   2.022  0.1892  0.3410  0.2173
 7231TIP3    H143184   2.238   4.287   1.968  0.1897  0.4570  0.0852
 7231TIP3    H243185   2.151   4.411   1.960 -3.7285 -2.1153 -0.2142
 7232TIP3   OH243186   1.093   3.837   9.082 -0.7822  0.7142  0.4722
 7232TIP3    H143187   1.135   3.864   9.164 -0.7348  0.3453  0.5709
 7232TIP3    H243188   1.164   3.829   9.020 -0.8585  1.3467  0.2938
 7233TIP3   OH243189   0.102   0.990  31.745 -0.0651  0.0283 -0.1744
 7233TIP3    H143190   0.059   0.972  31.829 -0.5567 -0.2592 -0.4847
 7233TIP3    H243191   0.125   1.083  31.750 -0.4372  0.1084  0.1259
 7234TIP3   OH243192   3.045   0.641   6.513  0.4183 -0.1111 -0.8218
 7234TIP3    H143193   3.086   0.570   6.463  1.2969 -0.6658  0.6344
 7234TIP3    H243194   2.988   0.596   6.575 -1.1619  0.5950 -1.7130
 7235TIP3   OH243195   0.364   4.056  25.602 -0.2210  0.3268  0.2644
 7235TIP3    H143196   0.332   4.123  25.543 -1.9950 -0.8014 -0.1212
 7235TIP3    H243197   0.403   4.104  25.675  1.8250  1.7531 -1.6213
 7236TIP3   OH243198   1.169   1.240  10.002 -0.1302  0.2237  0.2923
 7236TIP3    H143199   1.191   1.245   9.909  1.1935  0.4293  0.5956
 7236TIP3    H243200   1.173   1.331  10.033  2.9019 -0.1297  1.2565
 7237TIP3   OH243201   3.678   1.266  37.283  0.2984 -0.6808 -0.0244
 7237TIP3    H143202   3.662   1.243  37.192 -1.4118  0.3017 -0.0156
 7237TIP3    H243203   3.729   1.347  37.279 -0.8776  0.0795 -0.1571
 7238TIP3   OH243204   3.154   2.461   5.971 -0.2805  0.0816  0.0146
 7238TIP3    H143205   3.211   2.491   5.900  0.8973 -0.0664  0.8667
 7238TIP3    H243206   3.211   2.407   6.027 -1.1133  0.3749  1.1949
 7239TIP3   OH243207   2.290   3.676  12.061  0.2300 -0.8019  0.5612
 7239TIP3    H143208   2.350   3.693  12.134 -0.2429 -2.4883  1.4037
 7239TIP3    H243209   2.293   3.756  12.008  2.8951 -0.6742  0.7827
 7240TIP3   OH243210   4.255   2.811   3.803  0.3071  0.2027  0.3081
 7240TIP3    H143211   4.250   2.794   3.897  0.1081  0.5852  0.3717
 7240TIP3    H243212   4.196   2.747   3.764 -1.2942  1.3912  0.6351
 7241TIP3   OH243213   4.176   2.221  34.016  0.3669 -0.2074  0.3600
 7241TIP3    H143214   4.101   2.269  34.053  0.0372  0.9778 -1.6792
 7241TIP3    H243215   4.139   2.138  33.987 -0.9873  1.4359 -3.2254
 7242TIP3   OH243216   0.985   3.691  11.732 -0.0227 -0.3781  0.1140
 7242TIP3    H143217   1.054   3.630  11.756  1.6892  0.3291 -2.5485
 7242TIP3    H243218   0.937   3.646  11.663  0.5512  0.7795 -1.0785
 7243TIP3   OH243219   1.073   0.278  16.244  0.4830  0.4852  0.2168
 7243TIP3    H143220   1.092   0.209  16.181 -0.0506  0.0553  0.5240
 7243TIP3    H243221   1.010   0.334  16.200  1.7215  1.4084 -0.4552
 7244TIP3   OH243222   2.211   3.110   4.719 -0.3958 -0.1194 -0.4785
 7244TIP3    H143223   2.234   3.017   4.713  2.0562  0.4996 -1.6178
 7244TIP3    H243224   2.127   3.117   4.674 -0.2947 -1.6800 -0.9640
 7245TIP3   OH243225   2.882   0.874   6.410  0.0307  0.3184 -0.6251
 7245TIP3    H143226   2.798   0.886   6.454  1.6010  1.5931  2.2990
 7245TIP3    H243227   2.924   0.802   6.457 -0.1594 -1.8170 -3.4470
 7246TIP3   OH243228   1.861   0.454  15.610 -0.2042 -0.2715  0.5514
 7246TIP3    H143229   1.896   0.383  15.663  1.4221 -0.2469 -0.4291
 7246TIP3    H243230   1.920   0.528  15.627 -0.6332  0.2159 -0.0391
 7247TIP3   OH243231   0.389   0.599  11.109 -0.5192  0.2959 -0.3794
 7247TIP3    H143232   0.439   0.664  11.059 -0.9292  1.4763  0.6951
 7247TIP3    H243233   0.299   0.609  11.079 -1.3634  3.1097  2.4950
 7248TIP3   OH243234   0.753   1.737  31.060 -1.0426  0.0036 -0.3372
 7248TIP3    H143235   0.676   1.756  31.115 -1.5916 -0.6068 -0.8783
 7248TIP3    H243236   0.828   1.757  31.116 -1.5818  1.4810 -0.0947
 7249TIP3   OH243237   1.116   2.397   9.785 -0.6046  0.5713 -0.5669
 7249TIP3    H143238   1.044   2.460   9.775 -1.1797  0.3668  1.7368
 7249TIP3    H243239   1.074   2.318   9.819  0.3840 -0.4322 -1.6121
 7250TIP3   OH243240   3.626   0.533  32.807  0.3700 -0.5226  0.3400
 7250TIP3    H143241   3.601   0.592  32.877 -0.4259  0.2379 -0.5653
 7250TIP3    H243242   3.561   0.463  32.810  0.8707 -0.9811  0.9236
 7251TIP3   OH243243   0.144   1.024   9.000  0.3625 -0.3682  0.1040
 7251TIP3    H143244   0.219   1.002   8.945 -0.1969 -1.2617 -0.3348
 7251TIP3    H243245   0.071   1.033   8.938 -0.0148 -0.1237  0.5764
 7252TIP3   OH243246   0.117   0.261  29.202 -0.0243 -0.5323  0.3130
 7252TIP3    H143247   0.076   0.346  29.184  0.9058 -0.2952 -0.7360
 7252TIP3    H243248   0.197   0.283  29.249  0.7932 -0.7388 -0.9492
 7253TIP3   OH243249   3.750   4.277  10.629  0.3600  0.1114 -0.1745
 7253TIP3    H143250   3.735   4.212  10.698 -1.1995  0.4405 -0.1612
 7253TIP3    H243251   3.752   4.361  10.675 -0.6295  0.3277 -0.5043
 7254TIP3   OH243252   0.000   2.984  38.430  0.4352 -0.4779 -0.1273
 7254TIP3    H143253   0.013   2.962  38.338  0.0885  3.3839 -1.2690
 7254TIP3    H243254   0.089   2.988  38.466  0.6349 -0.9592 -0.5445
 7255TIP3   OH243255   0.383   0.508  39.088  0.1697  0.1697 -0.5163
 7255TIP3    H143256   0.313   0.447  39.064  0.9294 -0.5982 -0.8468
 7255TIP3    H243257   0.460   0.477  39.039  1.0599  0.2219  0.7855
 7256TIP3   OH243258   1.173   2.140   2.263 -0.0835  0.0443  0.2814
 7256TIP3    H143259   1.152   2.137   2.356 -1.8538 -1.2243 -0.1111
 7256TIP3    H243260   1.265   2.168   2.260  0.1751 -0.4096  2.4134
 7257TIP3   OH243261   1.551   1.918  15.714 -0.3592  0.0748  0.0234
 7257TIP3    H143262   1.511   1.918  15.801 -1.5619  1.0037 -0.4943
 7257TIP3    H243263   1.485   1.879  15.657  0.3199 -0.3079 -0.5169
 7258TIP3   OH243264   1.686   3.965  33.012  0.3863  0.2040  0.4440
 7258TIP3    H143265   1.708   3.960  33.105 -0.7084 -0.8647  0.6801
 7258TIP3    H243266   1.590   3.960  33.010  0.4542 -1.8660 -0.8145
 7259TIP3   OH243267   0.995   0.671  32.182  0.1983 -0.1633 -0.0493
 7259TIP3    H143268   1.061   0.737  32.204  0.5583 -0.6925  0.4915
 7259TIP3    H243269   1.019   0.595  32.234 -0.1982 -0.7376 -0.6832
 7260TIP3   OH243270   3.985   0.134  36.489  0.0248  0.3136  0.1451
 7260TIP3    H143271   3.990   0.230  36.490  1.6565  0.2834  2.2980
 7260TIP3    H243272   3.908   0.114  36.542 -1.9392  0.3968 -2.5264
 7261TIP3   OH243273   3.164   0.644  41.104  0.1210  0.3241  0.5694
 7261TIP3    H143274   3.185   0.551  41.114 -0.5792 -0.0489 -1.0302
 7261TIP3    H243275   3.081   0.654  41.150 -1.1861 -0.5122 -1.4328
 7262TIP3   OH243276   1.775   3.468   7.534  0.0898 -0.2543 -0.1283
 7262TIP3    H143277   1.724   3.507   7.605 -0.2246 -0.6379 -0.1319
 7262TIP3    H243278   1.842   3.416   7.578 -0.1055 -0.4927 -0.1041
 7263TIP3   OH243279   0.300   0.340  21.511  0.5448  0.1936  0.1919
 7263TIP3    H143280   0.283   0.425  21.550  0.8345  1.4764 -2.2537
 7263TIP3    H243281   0.234   0.331  21.443  0.7216 -1.4026  0.1849
 7264TIP3   OH243282   1.113   1.057  33.096  0.0490  0.2354 -0.0512
 7264TIP3    H143283   1.177   1.122  33.128 -0.2068 -0.0014  0.9809
 7264TIP3    H243284   1.031   1.082  33.138  0.0187 -0.9566  0.6521
 7265TIP3   OH243285   1.727   3.005  10.851  0.2070 -0.0169 -0.3483
 7265TIP3    H143286   1.816   2.969  10.853 -0.9106 -3.0519  0.7257
 7265TIP3    H243287   1.686   2.964  10.776 -0.9711 -0.5530  0.5671
 7266TIP3   OH243288   3.967   1.220   7.878  0.0319 -0.0182  0.5580
 7266TIP3    H143289   4.016   1.158   7.931  3.9729  1.3323 -1.0559
 7266TIP3    H243290   4.005   1.212   7.790 -2.4218  1.5761 -0.7792
 7267TIP3   OH243291   2.886   4.362   5.422 -0.0985  0.5126 -0.0145
 7267TIP3    H143292   2.861   4.422   5.352 -1.7303  0.8126  0.7736
 7267TIP3    H243293   2.809   4.306   5.435  1.2088 -1.4954 -0.4268
 7268TIP3   OH243294   0.759   2.015   1.110  0.5578  0.0101  0.3174
 7268TIP3    H143295   0.758   2.081   1.041  1.0521  0.7171  0.9802
 7268TIP3    H243296   0.679   2.031   1.160  0.5179 -0.1015  0.2900
 7269TIP3   OH243297   1.279   0.920   6.068 -0.8226 -0.1440 -0.1260
 7269TIP3    H143298   1.362   0.966   6.063 -1.9170  1.8821 -0.8207
 7269TIP3    H243299   1.299   0.831   6.039  1.2858 -0.0308  0.7993
 7270TIP3   OH243300   0.734   3.914  31.757 -0.5564  0.3745 -0.3841
 7270TIP3    H143301   0.740   3.968  31.836 -0.1457 -0.8542  0.4505
 7270TIP3    H243302   0.672   3.961  31.701 -1.1355  1.0824  0.8119
 7271TIP3   OH243303   1.248   4.387   8.853  0.0247  0.4382  0.4880
 7271TIP3    H143304   1.334   4.417   8.824  0.5765 -0.1901  1.3908
 7271TIP3    H243305   1.215   4.459   8.908  1.0214 -0.2407  2.0478
 7272TIP3   OH243306   3.195   3.858  27.507  0.5400 -0.7633 -0.0978
 7272TIP3    H143307   3.201   3.887  27.598  1.7286  0.6283 -0.5745
 7272TIP3    H243308   3.250   3.780  27.504 -0.3225 -1.4188  0.5757
 7273TIP3   OH243309   0.572   1.629   0.271  0.1133  0.2979 -0.7371
 7273TIP3    H143310   0.495   1.671   0.233 -1.6317  0.2517  2.4631
 7273TIP3    H243311   0.602   1.568   0.203 -1.2555  1.8977 -2.9151
 7274TIP3   OH243312   2.755   2.963  13.672 -0.3005  0.1562 -0.0186
 7274TIP3    H143313   2.844   2.966  13.637 -0.0927 -1.7296  0.2269
 7274TIP3    H243314   2.745   3.045  13.719  1.4147  0.2958  0.1699
 7275TIP3   OH243315   0.750   3.769   2.958  0.3863 -0.1797  0.2144
 7275TIP3    H143316   0.721   3.730   2.875  0.6982  1.9235 -0.9342
 7275TIP3    H243317   0.791   3.851   2.933  0.7669  0.3678  2.4541
 7276TIP3   OH243318   1.563   1.092  37.859 -0.4100 -0.7198 -0.2998
 7276TIP3    H143319   1.583   1.035  37.933  0.4764  0.3614  0.3048
 7276TIP3    H243320   1.471   1.074  37.840 -0.7730 -0.7087  1.3229
 7277TIP3   OH243321   2.380   2.716  11.375  0.1300 -0.4747  0.4824
 7277TIP3    H143322   2.383   2.808  11.349  1.8342 -0.8449 -0.8081
 7277TIP3    H243323   2.461   2.678  11.341 -0.7494 -2.5724  0.5288
 7278TIP3   OH243324   3.141   0.103  38.171 -0.6517  0.6357 -0.3623
 7278TIP3    H143325   3.131   0.153  38.252 -0.5417 -0.6267  0.4567
 7278TIP3    H243326   3.236   0.098  38.157 -0.6568  0.5335 -0.3608
 7279TIP3   OH243327   4.187   0.408  31.812  0.4445 -0.1893  0.5475
 7279TIP3    H143328   4.148   0.394  31.726 -0.5163  0.0948  0.9302
 7279TIP3    H243329   4.217   0.321  31.839 -1.5730 -0.7759  1.0304
 7280TIP3   OH243330   2.517   1.211  13.859 -0.5096 -0.0655  0.3685
 7280TIP3    H143331   2.569   1.282  13.822  0.7708 -1.1237  0.0554
 7280TIP3    H243332   2.572   1.133  13.848 -2.2350 -1.2701 -0.1207
 7281TIP3   OH243333   0.998   2.592  36.312 -0.2895  0.8796  0.0217
 7281TIP3    H143334   0.937   2.664  36.297 -1.8746 -0.0669  1.5921
 7281TIP3    H243335   0.998   2.579  36.406 -0.2982 -1.3741 -0.2374
 7282TIP3   OH243336   2.926   3.232  41.302 -0.4816 -0.5781 -0.1253
 7282TIP3    H143337   2.850   3.220  41.245 -0.8432 -0.9156  0.4230
 7282TIP3    H243338   2.890   3.239  41.390  0.0866 -0.2112  0.0819
 7283TIP3   OH243339   2.131   1.264  36.884 -0.4567 -0.3547  0.5089
 7283TIP3    H143340   2.142   1.229  36.972  0.3731 -2.3346 -0.2948
 7283TIP3    H243341   2.168   1.352  36.887 -2.1681  0.3693  2.5513
 7284TIP3   OH243342   1.604   3.495  11.312  0.1670 -0.0643  0.2074
 7284TIP3    H143343   1.522   3.455  11.284 -0.1353  0.3681  0.4510
 7284TIP3    H243344   1.668   3.423  11.312  0.0591 -0.1739 -1.0608
 7285TIP3   OH243345   1.578   3.246  32.447 -0.3534 -0.4688 -0.2241
 7285TIP3    H143346   1.616   3.159  32.432 -1.4020 -1.1453  0.7883
 7285TIP3    H243347   1.626   3.280  32.523  0.0928 -0.1220 -0.6524
 7286TIP3   OH243348   3.447   1.927  40.552 -0.5068 -0.4824  0.1823
 7286TIP3    H143349   3.396   1.846  40.554  0.2930 -1.0154  2.6828
 7286TIP3    H243350   3.529   1.905  40.596  0.9680  0.9693 -1.6816
 7287TIP3   OH243351   3.332   3.010  13.122 -0.1728 -0.2534  0.4435
 7287TIP3    H143352   3.282   3.070  13.177  1.4754  0.3619  1.3517
 7287TIP3    H243353   3.378   3.067  13.061  0.3707 -0.6920  0.4388
 7288TIP3   OH243354   0.872   2.118  13.440 -0.4302  0.4036 -0.4706
 7288TIP3    H143355   0.957   2.087  13.471 -0.8532 -1.2175 -0.8436
 7288TIP3    H243356   0.811   2.094  13.510 -0.5975  1.6455 -0.1591
 7289TIP3   OH243357   3.505   2.092  39.312 -0.1184  0.5697  1.0697
 7289TIP3    H143358   3.475   2.125  39.396  0.0595  1.1665  0.9091
 7289TIP3    H243359   3.600   2.108  39.313  0.2331 -1.2752  1.5738
 7290TIP3   OH243360   3.008   3.055  36.250  0.2610  0.0205  0.2602
 7290TIP3    H143361   2.981   3.147  36.251  1.3874  0.3818 -0.5031
 7290TIP3    H243362   3.092   3.054  36.296 -0.1831 -0.7999  1.0917
 7291TIP3   OH243363   0.280   3.596   4.933 -0.0559 -0.4124 -0.2121
 7291TIP3    H143364   0.266   3.515   4.981 -0.1902 -0.8978 -1.0642
 7291TIP3    H243365   0.202   3.649   4.951  0.8493  0.3353  1.8824
 7292TIP3   OH243366   1.307   1.622  28.690  0.4898  0.2449  0.1280
 7292TIP3    H143367   1.286   1.715  28.680  0.7263  0.2796 -0.0330
 7292TIP3    H243368   1.226   1.583  28.724  0.1789  0.3878 -0.4465
 7293TIP3   OH243369   1.597   4.347  12.856 -0.3474  0.5677  0.0336
 7293TIP3    H143370   1.571   4.262  12.822  2.5788  0.2760 -1.8003
 7293TIP3    H243371   1.610   4.332  12.950  0.3007 -1.0836 -0.2835
 7294TIP3   OH243372   2.553   3.356  27.411 -0.4024  0.2726 -0.0698
 7294TIP3    H143373   2.530   3.364  27.503 -2.9721 -0.1327 -0.6102
 7294TIP3    H243374   2.573   3.445  27.383 -1.3159  0.6508  0.4754
 7295TIP3   OH243375   1.356   0.126  32.802 -0.1757 -0.2303 -0.0623
 7295TIP3    H143376   1.381   0.150  32.891  1.5071 -0.0806 -0.5539
 7295TIP3    H243377   1.413   0.053  32.780 -1.1498 -0.8042 -0.7414
 7296TIP3   OH243378   3.737   2.002  34.099  0.1939 -0.1914 -0.1689
 7296TIP3    H143379   3.658   1.949  34.094 -1.8522  2.6225  0.2056
 7296TIP3    H243380   3.749   2.035  34.010  0.0723  0.5576  0.0894
 7297TIP3   OH243381   3.568   2.999  33.919  0.0047 -0.6040  0.3082
 7297TIP3    H143382   3.662   3.010  33.903 -0.0049  0.4169  0.8464
 7297TIP3    H243383   3.555   3.034  34.008 -0.4174 -3.2817  1.4029
 7298TIP3   OH243384   2.948   4.237  36.673  0.1795 -0.0414 -0.6814
 7298TIP3    H143385   2.879   4.272  36.617  0.3312  0.7215 -0.4035
 7298TIP3    H243386   3.018   4.212  36.611 -0.4873 -1.1787 -0.9917
 7299TIP3   OH243387   2.828   3.319   8.903  0.0285  0.3929 -0.0435
 7299TIP3    H143388   2.807   3.257   8.974 -1.4316  0.7413 -0.1339
 7299TIP3    H243389   2.817   3.405   8.943 -0.5906  0.5895 -0.6295
 7300TIP3   OH243390   1.094   1.443  10.509  0.5325 -0.1544  0.1642
 7300TIP3    H143391   1.039   1.391  10.567  0.7849 -0.2852  0.2890
 7300TIP3    H243392   1.044   1.523  10.493  1.0332  0.4832  1.6513
 7301TIP3   OH243393   1.766   1.771  10.920  0.0785 -0.6671  0.7252
 7301TIP3    H143394   1.759   1.716  10.843 -0.3633 -0.1039  0.3558
 7301TIP3    H243395   1.675   1.789  10.945  0.2083  0.5688  0.3477
 7302TIP3   OH243396   2.093   1.516   1.167 -0.1916  0.6413 -0.1890
 7302TIP3    H143397   2.154   1.479   1.103  1.4668  0.1701  1.5784
 7302TIP3    H243398   2.036   1.574   1.115  1.1166  0.3578 -2.0523
 7303TIP3   OH243399   2.151   0.738  12.848  0.0130  0.1407  0.1266
 7303TIP3    H143400   2.127   0.765  12.760 -2.1877  0.7774  0.8565
 7303TIP3    H243401   2.216   0.803  12.876  0.2329  0.3188 -0.7750
 7304TIP3   OH243402   4.404   0.937  39.127 -0.1721  0.0589  0.2341
 7304TIP3    H143403   4.466   0.865  39.133  0.3594  0.2803 -2.0187
 7304TIP3    H243404   4.456   1.013  39.103 -1.2451  0.2756 -1.5855
 7305TIP3   OH243405   3.531   1.765  23.974  0.4613 -0.3250  0.0218
 7305TIP3    H143406   3.591   1.795  23.906  0.0431 -0.5813 -0.4682
 7305TIP3    H243407   3.564   1.678  23.999  2.0513  0.7499  1.8955
 7306TIP3   OH243408   4.396   3.635   8.599  0.8199 -0.5124  0.4181
 7306TIP3    H143409   4.415   3.721   8.638  0.0774 -0.0459 -0.2213
 7306TIP3    H243410   4.347   3.655   8.519 -1.9172 -1.5898  1.7000
 7307TIP3   OH243411   3.291   2.580   9.770  0.2353 -0.0229 -0.5513
 7307TIP3    H143412   3.219   2.531   9.731  0.2160 -1.5554  1.2608
 7307TIP3    H243413   3.250   2.634   9.837  0.7451 -0.9405  0.5216
 7308TIP3   OH243414   0.406   2.498  35.025  0.3940 -0.2999 -0.9753
 7308TIP3    H143415   0.498   2.475  35.043  0.5007  1.1342  0.5609
 7308TIP3    H243416   0.411   2.569  34.962  0.3958  0.3936 -0.2048
 7309TIP3   OH243417   3.245   0.360   0.148 -0.2173 -0.2866 -0.3930
 7309TIP3    H143418   3.187   0.289   0.122  0.5213 -0.5779 -1.3175
 7309TIP3    H243419   3.295   0.325   0.222 -0.3004 -0.5008 -0.4376
 7310TIP3   OH243420   4.319   4.063  35.020 -0.2836  0.2068 -0.4809
 7310TIP3    H143421   4.364   3.996  34.970  0.3973  0.7411 -0.5968
 7310TIP3    H243422   4.313   4.138  34.961 -2.1668 -0.1351 -0.8068
 7311TIP3   OH243423   3.310   3.981   0.940 -0.2007  0.2043  0.0595
 7311TIP3    H143424   3.363   3.919   0.990 -0.9895 -0.7659 -0.2673
 7311TIP3    H243425   3.332   4.067   0.977 -0.7903 -0.4606  2.1190
 7312TIP3   OH243426   4.367   2.648  37.203  0.4150 -0.0055  0.1431
 7312TIP3    H143427   4.406   2.579  37.151 -0.1995 -0.3581  0.1410
 7312TIP3    H243428   4.298   2.685  37.147  1.2317  1.1275 -0.1538
 7313TIP3   OH243429   3.582   2.868   4.153  0.0006  0.4314  0.1735
 7313TIP3    H143430   3.556   2.947   4.199  0.3562 -1.3229  3.7238
 7313TIP3    H243431   3.677   2.867   4.158 -0.0491 -1.0249  1.8470
 7314TIP3   OH243432   3.396   4.103  33.912  0.5709  1.0059  0.0161
 7314TIP3    H143433   3.369   4.018  33.948  2.9233 -0.2128 -0.8848
 7314TIP3    H243434   3.441   4.147  33.984  1.5640  0.3706 -0.1921
 7315TIP3   OH243435   0.508   3.013  34.426  0.2747 -0.5380  0.0421
 7315TIP3    H143436   0.413   3.008  34.435 -0.0805 -1.6747 -3.1874
 7315TIP3    H243437   0.523   3.085  34.365  1.5535 -0.0608  0.8810
 7316TIP3   OH243438   0.380   0.533  23.157  0.1348  0.4430  0.3083
 7316TIP3    H143439   0.385   0.616  23.204 -1.1181  1.2718 -0.9419
 7316TIP3    H243440   0.428   0.548  23.076  0.6707 -0.3619  0.4633
 7317TIP3   OH243441   0.988   0.687  29.361  0.1724 -0.0495 -0.3532
 7317TIP3    H143442   0.910   0.633  29.354 -0.6547  0.6238  2.2632
 7317TIP3    H243443   1.009   0.712  29.271 -0.0311 -3.7183 -1.5786
 7318TIP3   OH243444   2.031   2.098  31.658  0.2142  0.3029 -0.3900
 7318TIP3    H143445   2.040   2.021  31.714 -2.2391 -0.7259 -1.2708
 7318TIP3    H243446   2.055   2.172  31.715 -0.7723 -0.8142  1.5896
 7319TIP3   OH243447   0.293   2.337  31.585 -0.6046  0.0052 -0.0639
 7319TIP3    H143448   0.382   2.340  31.549 -1.2295  0.3412 -1.6412
 7319TIP3    H243449   0.279   2.424  31.623 -0.3523  0.0337 -0.0345
 7320TIP3   OH243450   3.975   0.775  27.604  0.7434 -0.2017 -0.3686
 7320TIP3    H143451   4.025   0.702  27.641  0.7305 -0.1966 -0.3405
 7320TIP3    H243452   3.898   0.733  27.564  0.2899 -0.1255  0.4125
 7321TIP3   OH243453   1.770   3.982  34.351 -0.4926  0.0390  0.4187
 7321TIP3    H143454   1.852   4.030  34.365 -0.2716  0.0265 -0.7152
 7321TIP3    H243455   1.782   3.899  34.398  0.7978 -0.6208 -0.9679
 7322TIP3   OH243456   2.767   1.437  12.463 -0.4239 -0.2883 -0.1201
 7322TIP3    H143457   2.855   1.404  12.484  0.6366  1.8012 -1.0394
 7322TIP3    H243458   2.782   1.507  12.400 -2.9264 -1.0978 -1.7626
 7323TIP3   OH243459   3.378   1.036   0.262 -0.4768 -0.4194 -0.2528
 7323TIP3    H143460   3.285   1.035   0.237 -0.6189 -0.4096  0.2728
 7323TIP3    H243461   3.382   1.092   0.340 -0.0414 -0.4896 -0.2205
 7324TIP3   OH243462   1.774   3.498  33.700 -0.0889 -0.0183  0.0412
 7324TIP3    H143463   1.809   3.483  33.788 -1.9789 -1.7783  0.5557
 7324TIP3    H243464   1.744   3.589  33.702 -0.3404 -0.1048  1.3178
 7325TIP3   OH243465   2.551   2.630  34.120  0.2466  0.1836 -0.7401
 7325TIP3    H143466   2.494   2.697  34.158 -0.2414 -1.2001  1.0823
 7325TIP3    H243467   2.493   2.556  34.101  1.1984 -0.8053  0.0268
 7326TIP3   OH243468   0.812   1.020   3.643 -0.1624  0.1246  0.1072
 7326TIP3    H143469   0.908   1.016   3.646 -0.1681  0.0544  0.1772
 7326TIP3    H243470   0.783   0.934   3.674 -0.2525  0.2123  0.2672
 7327TIP3   OH243471   3.122   1.311   1.178  0.1224  0.5389 -0.3346
 7327TIP3    H143472   3.036   1.277   1.202 -0.7307  2.7814  0.1119
 7327TIP3    H243473   3.110   1.349   1.091  0.6969  0.7054 -0.3466
 7328TIP3   OH243474   1.461   0.328   2.009  0.3865 -0.2658 -0.0556
 7328TIP3    H143475   1.505   0.282   1.938 -1.8287 -0.2795 -1.5296
 7328TIP3    H243476   1.489   0.419   2.000  0.6801 -0.4000 -0.4821
 7329TIP3   OH243477   1.295   3.169  10.541 -0.0405 -0.1049  0.6252
 7329TIP3    H143478   1.245   3.089  10.559 -2.2491  1.3907  1.5976
 7329TIP3    H243479   1.281   3.186  10.448 -0.0169 -0.5508  0.5367
 7330TIP3   OH243480   3.745   1.399  39.847 -0.2636 -0.3702 -0.3140
 7330TIP3    H143481   3.827   1.375  39.806 -0.5259 -0.7485 -0.6137
 7330TIP3    H243482   3.684   1.330  39.823 -1.0957  0.7211 -1.4219
 7331TIP3   OH243483   1.188   0.133   1.710 -0.1159  0.1826  0.0573
 7331TIP3    H143484   1.272   0.100   1.741 -0.2709  0.0264  0.3125
 7331TIP3    H243485   1.182   0.102   1.620  0.7666  1.4282 -0.4598
 7332TIP3   OH243486   3.522   3.320  35.743 -0.3312 -0.2847 -0.3395
 7332TIP3    H143487   3.548   3.387  35.680  0.5286  1.3530  1.6221
 7332TIP3    H243488   3.529   3.364  35.828 -0.5341 -2.6440  0.9761
 7333TIP3   OH243489   1.849   0.626  35.642 -0.1153 -0.6281 -0.3838
 7333TIP3    H143490   1.827   0.595  35.554  1.0619 -2.6765 -0.0216
 7333TIP3    H243491   1.815   0.558  35.700 -2.8144  1.7062  0.9964
 7334TIP3   OH243492   1.114   3.849  37.782 -0.5012 -0.2512  0.0113
 7334TIP3    H143493   1.021   3.861  37.801 -0.5059 -1.5831  0.9634
 7334TIP3    H243494   1.116   3.778  37.717 -0.1087 -1.4497  1.2804
 7335TIP3   OH243495   0.855   1.708  39.563 -0.0497  0.1805  0.1040
 7335TIP3    H143496   0.777   1.762  39.554 -0.9489 -0.8428  1.4186
 7335TIP3    H243497   0.840   1.635  39.503 -0.0591  0.0375  0.2789
 7336TIP3   OH243498   2.916   2.100  29.214 -0.5636  0.0279 -0.5890
 7336TIP3    H143499   2.929   2.124  29.122  3.4080 -0.7247 -0.3889
 7336TIP3    H243500   2.923   2.183  29.261 -3.2007  0.5035 -0.9042
 7337TIP3   OH243501   0.228   2.034  39.579  0.1363 -0.5920  0.3447
 7337TIP3    H143502   0.232   2.124  39.549  0.6011 -0.8935 -0.5626
 7337TIP3    H243503   0.236   1.982  39.499 -1.6436 -1.4445  0.6639
 7338TIP3   OH243504   3.319   4.079  27.410 -0.1801  0.4086 -0.7694
 7338TIP3    H143505   3.318   4.078  27.314 -0.9531  0.4918 -0.7671
 7338TIP3    H243506   3.255   4.014  27.436 -0.6556  1.0372 -0.3200
 7339TIP3   OH243507   0.984   4.279  37.628 -0.2908 -0.1027 -0.4838
 7339TIP3    H143508   1.029   4.227  37.695 -0.6866 -0.3943 -0.4394
 7339TIP3    H243509   0.962   4.216  37.560  0.5044  0.2754 -1.1055
 7340TIP3   OH243510   3.607   3.703  24.780 -0.2989 -0.0231  0.2078
 7340TIP3    H143511   3.677   3.730  24.839 -1.2250 -1.5067  2.1070
 7340TIP3    H243512   3.652   3.664  24.706  0.9028  1.3510  0.1687
 7341TIP3   OH243513   3.544   1.208  38.315  0.3614  0.2375  0.3393
 7341TIP3    H143514   3.503   1.136  38.364 -1.2988  1.1343  0.3680
 7341TIP3    H243515   3.500   1.206  38.230  1.2164  0.4414 -0.1135
 7342TIP3   OH243516   3.654   1.919   1.305  0.0533  0.0419 -0.2368
 7342TIP3    H143517   3.637   2.006   1.270 -2.1060  0.6322  1.9717
 7342TIP3    H243518   3.734   1.890   1.261 -0.3261  2.2265 -2.5850
 7343TIP3   OH243519   1.020   4.396  14.002  0.2905  0.4296  0.8913
 7343TIP3    H143520   1.066   4.335  14.059 -0.2653 -1.0740 -0.1965
 7343TIP3    H243521   0.968   4.450  14.061  1.9360  0.8883  1.9983
 7344TIP3   OH243522   1.648   3.119  29.984  0.1342  0.6840 -0.4829
 7344TIP3    H143523   1.628   3.159  30.069 -1.1441 -0.3764 -0.2486
 7344TIP3    H243524   1.741   3.137  29.970  0.0650  1.9625  0.5407
 7345TIP3   OH243525   0.061   3.545  39.698 -0.0340  0.2869  0.1007
 7345TIP3    H143526   0.097   3.594  39.771  1.1586  0.8642 -0.8346
 7345TIP3    H243527   0.086   3.454  39.715 -1.1729  0.1566  1.2057
 7346TIP3   OH243528   1.431   4.081   2.730  0.6483 -0.3851 -0.1817
 7346TIP3    H143529   1.356   4.114   2.780  0.9056 -0.6405  0.3761
 7346TIP3    H243530   1.422   3.986   2.733 -0.2295 -0.4212 -1.9923
 7347TIP3   OH243531   4.008   0.441  29.936  0.3512 -0.1810 -0.1256
 7347TIP3    H143532   4.038   0.527  29.964  0.9372 -0.9703  1.8296
 7347TIP3    H243533   3.925   0.457  29.892 -1.1771  1.1588  2.9329
 7348TIP3   OH243534   1.285   3.542  30.718 -0.0378 -0.0724 -0.3077
 7348TIP3    H143535   1.352   3.610  30.712 -0.6493  0.5785  0.0767
 7348TIP3    H243536   1.322   3.476  30.777 -0.4037  1.1042  1.2974
 7349TIP3   OH243537   1.780   4.008  29.734  0.1137 -0.2320  0.3979
 7349TIP3    H143538   1.829   3.943  29.684 -2.1358 -1.8420  0.1509
 7349TIP3    H243539   1.722   3.956  29.790 -0.8304  1.5737  1.1782
 7350TIP3   OH243540   4.144   3.366   1.041 -0.6351 -0.2783  0.1150
 7350TIP3    H143541   4.096   3.434   1.086 -0.0987 -0.2543  0.6725
 7350TIP3    H243542   4.078   3.302   1.016 -0.8029 -1.1188  2.4120
 7351TIP3   OH243543   0.082   2.087   7.825 -0.3136 -0.2099 -0.2470
 7351TIP3    H143544   0.001   2.136   7.808 -2.6829 -2.7085  2.6292
 7351TIP3    H243545   0.115   2.125   7.906  0.9337  0.1251 -0.8860
 7352TIP3   OH243546   1.744   2.451  31.748 -0.0064  0.2440 -0.2242
 7352TIP3    H143547   1.710   2.407  31.826  0.9946  1.6012  1.0349
 7352TIP3    H243548   1.822   2.497  31.778  1.5348 -0.7172 -2.4525
 7353TIP3   OH243549   1.509   1.904  33.014  0.3110  0.4648  0.2023
 7353TIP3    H143550   1.543   1.846  32.946 -1.0089  1.1166 -1.0602
 7353TIP3    H243551   1.484   1.845  33.085  0.6584 -0.3484 -0.3380
 7354TIP3   OH243552   1.084   0.816  40.537 -0.1219  0.0821 -0.0541
 7354TIP3    H143553   1.122   0.896  40.573  1.1895 -1.1737  1.4905
 7354TIP3    H243554   1.134   0.801  40.456 -0.0808  0.5895 -0.1240
 7355TIP3   OH243555   1.208   1.924  33.523 -0.0546 -0.5018 -0.1158
 7355TIP3    H143556   1.130   1.943  33.470  0.5150 -2.1588 -1.6398
 7355TIP3    H243557   1.175   1.870  33.595 -0.6707  0.8928  0.6924
 7356TIP3   OH243558   2.210   3.161   2.180  0.3819 -0.5909  0.5079
 7356TIP3    H143559   2.206   3.111   2.262  0.2004 -0.5800  0.5055
 7356TIP3    H243560   2.216   3.094   2.112 -0.3213 -0.6270  0.4736
 7357TIP3   OH243561   2.095   3.742  41.428  0.2541 -0.2383  1.0380
 7357TIP3    H143562   2.019   3.798  41.410  0.0446 -1.0204 -0.7521
 7357TIP3    H243563   2.160   3.770  41.363  0.0316 -2.2273 -0.1107
 7358TIP3   OH243564   3.194   0.914   8.320  0.7405  0.5763 -0.5672
 7358TIP3    H143565   3.121   0.861   8.352  1.0621  0.9033  0.7369
 7358TIP3    H243566   3.153   0.979   8.263  0.1000  0.3014 -0.4315
 7359TIP3   OH243567   0.661   4.192  30.008 -0.0304  0.0282  0.0601
 7359TIP3    H143568   0.717   4.186  29.931 -0.3554  0.0194 -0.1768
 7359TIP3    H243569   0.722   4.192  30.082  0.4656  2.6437 -0.2511
 7360TIP3   OH243570   0.378   2.329   0.284 -0.0242 -0.5763  0.1246
 7360TIP3    H143571   0.441   2.387   0.326 -1.7821  1.4222  0.1154
 7360TIP3    H243572   0.377   2.251   0.341  1.9454 -0.4421  0.4480
 7361TIP3   OH243573   0.170   1.534  22.707 -0.4548  0.0228 -0.0209
 7361TIP3    H143574   0.102   1.531  22.774 -0.5046  1.5798  0.0222
 7361TIP3    H243575   0.242   1.583  22.748 -0.1338  0.2107 -0.7964
 7362TIP3   OH243576   0.243   3.799   6.399 -0.6998  0.2431 -0.0948
 7362TIP3    H143577   0.234   3.891   6.424 -0.9183  0.1830  0.0567
 7362TIP3    H243578   0.291   3.759   6.472 -2.1024 -0.1170  0.6894
 7363TIP3   OH243579   1.867   4.000  11.133  0.2056 -0.3530 -0.0809
 7363TIP3    H143580   1.960   3.983  11.113  0.2830 -0.3198  0.2506
 7363TIP3    H243581   1.859   4.095  11.130 -0.1130 -0.4044 -1.4167
 7364TIP3   OH243582   4.030   3.017  13.156 -0.0637  0.1567  0.2382
 7364TIP3    H143583   4.076   2.991  13.076 -0.7869  0.7367 -0.3784
 7364TIP3    H243584   3.945   3.049  13.125 -0.4578  0.1221  1.2660
 7365TIP3   OH243585   1.661   4.224  17.686 -0.0623  0.6401  0.2354
 7365TIP3    H143586   1.690   4.133  17.682 -0.8171  0.3406  1.2715
 7365TIP3    H243587   1.637   4.237  17.778 -0.6422  1.6740 -0.0546
 7366TIP3   OH243588   1.796   3.896  38.455 -0.4371  0.0909  0.0213
 7366TIP3    H143589   1.851   3.901  38.377 -0.0077  2.3568  0.3975
 7366TIP3    H243590   1.815   3.976  38.503 -2.6406  0.0220  1.1585
 7367TIP3   OH243591   0.361   1.887  12.579 -0.2621  0.3482 -0.2341
 7367TIP3    H143592   0.456   1.877  12.585 -0.2177 -0.4645 -1.9195
 7367TIP3    H243593   0.327   1.798  12.573 -1.1250  0.6384  0.0867
 7368TIP3   OH243594   1.810   1.475  31.060 -0.3997  0.1711  0.2999
 7368TIP3    H143595   1.810   1.507  31.151  0.6628  0.8534  0.0820
 7368TIP3    H243596   1.741   1.526  31.017 -0.7477  0.0146  0.6612
 7369TIP3   OH243597   3.712   1.671  34.224  0.4732  0.6434 -0.4229
 7369TIP3    H143598   3.805   1.659  34.240  0.7634  0.3720 -2.1482
 7369TIP3    H243599   3.706   1.748  34.168 -0.4660  1.4635  0.7541
 7370TIP3   OH243600   0.621   1.783  22.296  0.0344 -0.1620  0.4256
 7370TIP3    H143601   0.615   1.755  22.387  2.1146  0.3222  0.7810
 7370TIP3    H243602   0.616   1.879  22.300 -4.2253 -0.1371 -0.4957
 7371TIP3   OH243603   2.513   0.211   0.291  0.0581  0.4474  0.1539
 7371TIP3    H143604   2.472   0.219   0.378  0.7351 -2.5179  0.8782
 7371TIP3    H243605   2.449   0.163   0.239  0.7791 -0.2810 -0.0843
 7372TIP3   OH243606   2.470   0.639  10.223  0.3565  0.0867 -0.6458
 7372TIP3    H143607   2.536   0.691  10.269 -0.4196  0.9977 -0.5135
 7372TIP3    H243608   2.510   0.553  10.212  1.4575  0.5422 -0.3469
 7373TIP3   OH243609   3.092   3.574  28.583 -0.4462  0.2708 -0.0039
 7373TIP3    H143610   3.011   3.595  28.629 -1.0546 -2.1847  0.1674
 7373TIP3    H243611   3.149   3.536  28.649  0.0966  0.1327 -0.5379
 7374TIP3   OH243612   2.599   0.679  29.181 -0.1380  0.3482 -0.2392
 7374TIP3    H143613   2.516   0.699  29.225 -0.4980 -0.4253 -0.5511
 7374TIP3    H243614   2.621   0.760  29.134 -1.1199  0.3117 -0.7890
 7375TIP3   OH243615   1.311   0.490  39.359 -0.0903  0.7115 -0.0140
 7375TIP3    H143616   1.269   0.515  39.442  0.8982  1.2413  0.3457
 7375TIP3    H243617   1.241   0.450  39.308 -0.8907  1.0254  0.8014
 7376TIP3   OH243618   2.694   4.084   5.394 -0.2675  0.3450 -0.0607
 7376TIP3    H143619   2.647   4.012   5.435  0.6369  0.2999  0.9341
 7376TIP3    H243620   2.655   4.163   5.432  0.1868  0.3191  0.4605
 7377TIP3   OH243621   0.132   3.021  32.905 -0.0563  0.6129  0.3069
 7377TIP3    H143622   0.060   3.083  32.916  0.2617  1.4881 -1.9463
 7377TIP3    H243623   0.093   2.945  32.862 -0.0289  0.1574  1.0716
 7378TIP3   OH243624   2.485   3.452   3.553 -0.3526  0.5424 -0.2970
 7378TIP3    H143625   2.539   3.529   3.567  0.4694 -0.2959  1.4804
 7378TIP3    H243626   2.545   3.386   3.518 -0.5633  0.0754  0.2119
 7379TIP3   OH243627   1.805   2.263  40.116  0.1002  0.5541  0.3993
 7379TIP3    H143628   1.763   2.348  40.128 -1.6277 -0.0522 -0.9524
 7379TIP3    H243629   1.898   2.279  40.134 -0.3574  2.4451  1.3070
 7380TIP3   OH243630   4.406   3.078  29.850  0.1815 -0.5309  0.1269
 7380TIP3    H143631   4.385   3.157  29.900  0.3979  0.3109 -1.0652
 7380TIP3    H243632   4.465   3.108  29.782  0.8766 -1.8795  0.1023
 7381TIP3   OH243633   4.349   2.839   4.376 -0.3856  0.1709 -0.0435
 7381TIP3    H143634   4.332   2.745   4.367  0.1003  0.1114 -0.3135
 7381TIP3    H243635   4.373   2.850   4.468 -0.5398  0.0472  0.0118
 7382TIP3   OH243636   0.697   3.438  28.444  0.0893 -0.0995 -0.4809
 7382TIP3    H143637   0.647   3.485  28.377  0.2788  0.5517 -0.1744
 7382TIP3    H243638   0.635   3.424  28.515  0.5474  1.5115  0.2793
 7383TIP3   OH243639   0.032   0.353   4.537  0.5255 -0.4527  0.5172
 7383TIP3    H143640   0.031   0.363   4.632  0.0849  0.5972  0.4161
 7383TIP3    H243641  -0.055   0.383   4.509 -0.8960 -4.3720  0.0879
 7384TIP3   OH243642   0.724   3.004   2.397 -0.0495  0.0789  0.0659
 7384TIP3    H143643   0.692   2.931   2.450  0.4733 -0.4090 -0.2645
 7384TIP3    H243644   0.738   3.075   2.459 -0.6214 -0.0857  0.3868
 7385TIP3   OH243645   4.027   2.749  10.925  0.2728  0.1215  0.2959
 7385TIP3    H143646   4.046   2.840  10.950  2.4472  0.0433 -0.8254
 7385TIP3    H243647   4.089   2.697  10.975  0.5253 -0.5379 -0.6769
 7386TIP3   OH243648   3.019   3.903   0.131  0.2859 -0.5248 -0.3498
 7386TIP3    H143649   3.022   3.993   0.099  1.3248 -0.7567 -0.9109
 7386TIP3    H243650   3.069   3.852   0.068  1.6506 -1.1371  1.1398
 7387TIP3   OH243651   1.567   2.160  14.984 -0.2365  0.0295  0.2534
 7387TIP3    H143652   1.564   2.255  14.999 -0.0506 -0.0208  0.6380
 7387TIP3    H243653   1.498   2.144  14.920 -1.4554  0.2066  1.4455
 7388TIP3   OH243654   3.816   3.461   0.915 -0.2834  0.5320  0.0354
 7388TIP3    H143655   3.879   3.524   0.950 -0.9966  0.1829  2.0528
 7388TIP3    H243656   3.830   3.464   0.820  2.0194  1.2398  0.3239
 7389TIP3   OH243657   2.722   1.788  34.442 -0.4072 -0.1843 -0.5017
 7389TIP3    H143658   2.756   1.778  34.531 -0.2433 -0.1491 -0.5608
 7389TIP3    H243659   2.798   1.779  34.386 -0.2065  1.5629 -0.5558
 7390TIP3   OH243660   1.244   0.501   0.067  0.3689  0.2651 -0.5035
 7390TIP3    H143661   1.210   0.497   0.157 -1.1295 -0.6913 -1.0775
 7390TIP3    H243662   1.280   0.413   0.051  1.6500  0.7690 -0.4770
 7391TIP3   OH243663   0.944   1.800  37.205  0.3389 -0.5651 -0.1857
 7391TIP3    H143664   0.883   1.836  37.141  1.2554 -0.5522 -1.0695
 7391TIP3    H243665   1.030   1.817  37.168  0.9852  0.8486  1.7488
 7392TIP3   OH243666   2.072   1.706  33.337  0.3322  0.0606 -0.4373
 7392TIP3    H143667   2.143   1.644  33.318 -0.9551 -1.5206 -0.2263
 7392TIP3    H243668   1.992   1.656  33.326 -0.7512  1.5716  0.2235
 7393TIP3   OH243669   3.151   0.160   1.878 -0.2092  0.2281  0.0162
 7393TIP3    H143670   3.202   0.240   1.867  1.8514 -0.8830  1.0748
 7393TIP3    H243671   3.061   0.191   1.890  0.3299  2.2901 -0.8942
 7394TIP3   OH243672   3.389   1.087  28.831 -0.2560  0.0563  0.7410
 7394TIP3    H143673   3.294   1.076  28.820 -0.0170 -3.5754  1.1287
 7394TIP3    H243674   3.427   1.032  28.763  1.5251 -0.6181  2.2161
 7395TIP3   OH243675   2.679   0.809   6.196 -0.0035 -0.2055  0.3613
 7395TIP3    H143676   2.722   0.878   6.247  1.4681 -1.6624  1.1898
 7395TIP3    H243677   2.611   0.774   6.255  1.0832 -1.2661  1.0344
 7396TIP3   OH243678   1.562   2.276  13.719  0.1541  0.2718 -0.1937
 7396TIP3    H143679   1.569   2.321  13.803 -1.0845 -0.4284  0.3040
 7396TIP3    H243680   1.653   2.267  13.689  0.4959  2.6087 -0.0745
 7397TIP3   OH243681   2.088   1.382  31.060  0.3088 -0.1857 -0.2636
 7397TIP3    H143682   1.994   1.400  31.056  0.3445  0.5151  1.4068
 7397TIP3    H243683   2.126   1.437  30.992 -0.3235  0.8538  0.2039
 7398TIP3   OH243684   1.119   3.193  41.285 -0.3222 -0.3605  0.1634
 7398TIP3    H143685   1.147   3.228  41.200 -0.2572 -1.4286 -0.2720
 7398TIP3    H243686   1.123   3.269  41.344 -0.0371  0.3273 -0.7015
 7399TIP3   OH243687   0.727   0.183  40.392  0.2766 -0.6149 -0.3812
 7399TIP3    H143688   0.641   0.218  40.368  0.9487  1.9859  0.5876
 7399TIP3    H243689   0.756   0.239  40.464  1.5950 -3.2335  1.2896
 7400TIP3   OH243690   1.640   0.689  39.042 -0.5515  0.3132  0.1536
 7400TIP3    H143691   1.652   0.673  38.949 -0.0133  1.5424  0.0017
 7400TIP3    H243692   1.626   0.783  39.049 -2.4343  0.0106  1.1416
 7401TIP3   OH243693   4.340   1.274   4.899 -0.4280 -0.4108  0.0297
 7401TIP3    H143694   4.382   1.220   4.966 -1.9601 -1.0386  0.5251
 7401TIP3    H243695   4.378   1.362   4.912 -1.4042 -0.2688  2.4235
 7402TIP3   OH243696   4.142   0.282  12.324 -0.0381  0.0188 -0.1786
 7402TIP3    H143697   4.190   0.360  12.296  1.9176 -1.3689 -0.9332
 7402TIP3    H243698   4.149   0.283  12.419  1.4831 -0.0939 -0.2618
 7403TIP3   OH243699   3.974   0.554  37.547 -0.2836  0.0742  0.2420
 7403TIP3    H143700   3.947   0.564  37.456  0.2455  0.7428  0.1536
 7403TIP3    H243701   4.032   0.478  37.547  1.2884  1.2242 -0.3459
 7404TIP3   OH243702   1.871   2.603  12.990 -0.8772  1.0409  0.3255
 7404TIP3    H143703   1.873   2.698  12.978 -0.8820  0.8310 -1.6741
 7404TIP3    H243704   1.785   2.576  12.959 -0.8614  0.3700  0.8372
 7405TIP3   OH243705   4.015   3.223  35.239  0.3565 -0.1488  0.1435
 7405TIP3    H143706   4.044   3.271  35.317  0.2719  1.0718 -0.5578
 7405TIP3    H243707   4.025   3.285  35.167  1.0274 -1.4550 -0.9379
 7406TIP3   OH243708   1.801   2.334  11.672 -0.0521  0.5116  0.1241
 7406TIP3    H143709   1.756   2.337  11.587 -1.7858  0.8343  1.0098
 7406TIP3    H243710   1.732   2.315  11.735  1.3454 -0.5537  1.3985
 7407TIP3   OH243711   3.837   1.932  32.748  0.3370  0.3523 -0.3976
 7407TIP3    H143712   3.887   1.892  32.677 -0.4129  0.7669 -1.1752
 7407TIP3    H243713   3.745   1.920  32.722  0.0717  1.0015  0.2255
 7408TIP3   OH243714   1.169   3.290  11.578 -0.8015  0.4970 -0.1652
 7408TIP3    H143715   1.094   3.257  11.529 -1.2093 -1.4885  1.6369
 7408TIP3    H243716   1.134   3.361  11.631 -1.2089  0.1446  0.0386
 7409TIP3   OH243717   0.578   2.445  40.965 -0.3686 -0.5509 -0.5000
 7409TIP3    H143718   0.485   2.423  40.964 -0.9779  1.4709  2.0700
 7409TIP3    H243719   0.593   2.491  40.883 -2.1980  1.0037 -0.0246
 7410TIP3   OH243720   0.932   1.689   1.720 -0.2595  0.5537 -0.1745
 7410TIP3    H143721   0.838   1.670   1.726  0.3105 -2.7083  0.2987
 7410TIP3    H243722   0.948   1.752   1.791 -2.2589  2.4698 -1.2762
 7411TIP3   OH243723   3.426   0.435   8.814  0.2150  0.3062 -0.3748
 7411TIP3    H143724   3.478   0.506   8.775  0.8695  2.1410  3.3939
 7411TIP3    H243725   3.480   0.403   8.886  0.1698 -4.6065 -2.1645
 7412TIP3   OH243726   0.189   1.480  27.931  0.4119 -0.1940  0.2590
 7412TIP3    H143727   0.139   1.444  27.859 -0.7014 -1.1312  1.4544
 7412TIP3    H243728   0.164   1.572  27.935  0.1947 -0.2298 -0.3022
 7413TIP3   OH243729   2.383   2.515   8.855  0.3461 -0.5283  0.8795
 7413TIP3    H143730   2.413   2.589   8.907 -0.4407  0.2116  0.2925
 7413TIP3    H243731   2.361   2.552   8.770 -0.1293 -1.4276  0.5989
 7414TIP3   OH243732   2.329   2.654  33.000 -0.3448  0.4742 -0.1266
 7414TIP3    H143733   2.402   2.687  32.949 -0.4804  1.2361  0.1601
 7414TIP3    H243734   2.342   2.691  33.088 -0.2298 -0.6394  0.3470
 7415TIP3   OH243735   0.538   0.816  13.459  0.3690  0.5261  0.5497
 7415TIP3    H143736   0.469   0.860  13.509 -0.0932  0.9266 -0.4297
 7415TIP3    H243737   0.533   0.724  13.487 -0.8631  0.4669  0.1465
 7416TIP3   OH243738   3.266   3.978  29.132  0.8526 -0.2145  0.0887
 7416TIP3    H143739   3.208   3.997  29.058  1.3466 -1.2229 -0.5748
 7416TIP3    H243740   3.280   4.063  29.173  1.5603  0.5917 -1.7032
 7417TIP3   OH243741   0.841   4.207  28.306  0.3178  0.3606 -0.3708
 7417TIP3    H143742   0.784   4.271  28.349  0.7281  0.7643 -0.4235
 7417TIP3    H243743   0.876   4.253  28.230  1.9223  0.6426  0.4943
 7418TIP3   OH243744   0.275   2.374   7.071  0.1167  0.4518 -0.6417
 7418TIP3    H143745   0.232   2.459   7.058  0.8906  0.8331 -0.7264
 7418TIP3    H243746   0.332   2.388   7.146  1.4009  0.4601 -1.5958
 7419TIP3   OH243747   4.277   3.487  40.133 -0.3928 -0.2013 -0.0458
 7419TIP3    H143748   4.198   3.462  40.085 -0.1579 -0.5660 -0.2491
 7419TIP3    H243749   4.254   3.568  40.176 -0.3833  0.5463 -1.3798
 7420TIP3   OH243750   2.414   3.006  39.255  0.2485  0.5321  0.2815
 7420TIP3    H143751   2.414   3.027  39.162  0.5548 -0.0351  0.1534
 7420TIP3    H243752   2.339   2.947  39.266  0.6779 -0.0164  0.2579
 7421TIP3   OH243753   2.426   0.398  28.802  0.0534  0.1241 -0.1792
 7421TIP3    H143754   2.489   0.361  28.865  0.7619  0.5203 -0.6371
 7421TIP3    H243755   2.382   0.467  28.851  2.0209  1.8210 -0.6350
 7422TIP3   OH243756   3.875   0.565  30.588 -0.2739 -0.6843 -0.5479
 7422TIP3    H143757   3.940   0.554  30.658 -1.2615  1.1101  0.7747
 7422TIP3    H243758   3.847   0.476  30.566  1.7758 -1.4193 -0.3471
 7423TIP3   OH243759   1.695   2.412   3.072  0.1706  0.3052 -0.1552
 7423TIP3    H143760   1.751   2.424   2.995 -1.0593 -0.9484 -1.3064
 7423TIP3    H243761   1.724   2.328   3.108 -0.1068  0.2775  0.0014
 7424TIP3   OH243762   2.978   0.280  34.414  0.3110  0.1301  0.7176
 7424TIP3    H143763   2.990   0.373  34.395  0.0710  0.0930  0.3862
 7424TIP3    H243764   3.032   0.235  34.349 -0.6975 -0.0022 -0.0463
 7425TIP3   OH243765   1.260   1.206   5.869 -0.3460 -0.7004  0.2030
 7425TIP3    H143766   1.249   1.283   5.926  0.0322 -0.0625 -0.5583
 7425TIP3    H243767   1.174   1.164   5.868 -0.1344 -1.2817  2.0008
 7426TIP3   OH243768   0.562   3.648  32.919 -0.0209 -0.6317  0.2250
 7426TIP3    H143769   0.509   3.673  32.994 -0.9697  1.5412 -1.0698
 7426TIP3    H243770   0.588   3.558  32.937 -0.0959 -0.1723  3.1875
 7427TIP3   OH243771   3.614   0.558  36.406 -0.0416  0.6077  0.1592
 7427TIP3    H143772   3.549   0.607  36.356  0.1922  1.1265  0.3523
 7427TIP3    H243773   3.681   0.535  36.342  0.6111  1.8850  0.3465
 7428TIP3   OH243774   0.985   1.249   0.772 -0.2035  0.1602 -0.1962
 7428TIP3    H143775   0.909   1.260   0.828 -1.3295  2.6862 -2.0345
 7428TIP3    H243776   0.951   1.200   0.696  0.7525 -1.2379  0.2365
 7429TIP3   OH243777   3.617   2.053  29.654 -0.0350 -0.1241  0.0931
 7429TIP3    H143778   3.663   1.970  29.656  1.6134  0.6112 -2.2334
 7429TIP3    H243779   3.526   2.030  29.634  0.3276 -1.3812 -0.1964
 7430TIP3   OH243780   1.996   1.986   0.199 -0.1152 -0.2348 -0.6045
 7430TIP3    H143781   2.067   1.981   0.263  1.9927  0.2034 -2.7279
 7430TIP3    H243782   1.925   2.031   0.244  1.3085  0.1620  1.3483
 7431TIP3   OH243783   2.977   1.371  30.869  0.1562 -0.3581 -0.0095
 7431TIP3    H143784   2.901   1.313  30.878 -0.0078  0.0193  1.3856
 7431TIP3    H243785   2.972   1.404  30.780 -1.7305  0.1980  0.2611
 7432TIP3   OH243786   1.821   3.433  30.213 -0.6191  0.0658 -0.3864
 7432TIP3    H143787   1.890   3.425  30.280  2.7021  4.3696 -2.7921
 7432TIP3    H243788   1.855   3.383  30.139 -0.7377  1.1165 -1.1591
 7433TIP3   OH243789   3.058   2.249  32.009  0.3983 -0.1320  0.2426
 7433TIP3    H143790   3.064   2.271  31.916 -0.5209  0.9934  0.4317
 7433TIP3    H243791   3.044   2.154  32.011 -0.6647 -0.0186 -0.8217
 7434TIP3   OH243792   3.482   1.855   8.262  1.1245 -0.0419 -0.6823
 7434TIP3    H143793   3.568   1.823   8.236  1.0779 -0.4077 -0.3776
 7434TIP3    H243794   3.448   1.790   8.323  0.6666  0.1425 -0.7297
 7435TIP3   OH243795   1.449   1.133  30.101  0.6514 -0.0611 -0.0351
 7435TIP3    H143796   1.412   1.208  30.055  0.9850  0.2498  0.1996
 7435TIP3    H243797   1.460   1.067  30.033 -0.1797 -0.1073 -0.1402
 7436TIP3   OH243798   1.440   2.256  28.319  0.8923  0.9493 -0.3865
 7436TIP3    H143799   1.354   2.251  28.277 -0.0989  0.1942  1.6355
 7436TIP3    H243800   1.501   2.274  28.247 -0.6144 -1.0082 -2.2475
 7437TIP3   OH243801   1.278   1.199  31.649  0.1764  0.1665  0.0252
 7437TIP3    H143802   1.233   1.123  31.686  0.4631 -0.1960 -0.3542
 7437TIP3    H243803   1.240   1.209  31.562  1.2211 -0.5042 -0.5256
 7438TIP3   OH243804   4.356   0.344  40.198  0.2308  0.0317 -0.0126
 7438TIP3    H143805   4.296   0.347  40.124 -0.5920  1.5194  0.6668
 7438TIP3    H243806   4.355   0.433  40.233  1.8061 -0.2520  0.8462
 7439TIP3   OH243807   2.186   2.277  28.949 -0.0326 -0.5402  0.0501
 7439TIP3    H143808   2.241   2.333  29.004 -0.1124 -1.1593  0.7802
 7439TIP3    H243809   2.097   2.308  28.966 -0.1657 -1.4345  1.1530
 7440TIP3   OH243810   0.637   0.421  22.976  0.0047 -0.1177  0.1057
 7440TIP3    H143811   0.672   0.354  23.034  1.4370  1.3551  1.0572
 7440TIP3    H243812   0.665   0.394  22.888  1.0893 -0.4704  0.5444
 7441TIP3   OH243813   2.341   3.469  11.343 -0.3666  0.2028  0.0505
 7441TIP3    H143814   2.253   3.482  11.310  0.0741  0.0958 -1.2231
 7441TIP3    H243815   2.376   3.397  11.291  1.0001  1.2473 -0.5405
 7442TIP3   OH243816   0.678   2.894  14.169 -0.3632  0.7488 -0.1191
 7442TIP3    H143817   0.593   2.919  14.133 -0.2496 -0.2513 -1.1426
 7442TIP3    H243818   0.694   2.806  14.134 -0.0028 -0.1020  2.0042
 7443TIP3   OH243819   0.580   4.031  26.347 -0.4552  0.0768  0.0412
 7443TIP3    H143820   0.538   4.055  26.430  0.1803 -2.1861  1.1063
 7443TIP3    H243821   0.671   4.059  26.357 -0.6600  0.9491 -0.4401
 7444TIP3   OH243822   2.631   4.375  34.182 -0.1275  0.1236 -0.1631
 7444TIP3    H143823   2.538   4.395  34.167 -0.3167  0.9303  1.7514
 7444TIP3    H243824   2.634   4.341  34.272  1.5894  1.5568  0.3770
 7445TIP3   OH243825   0.173   2.723   7.836  0.0019  0.3052 -0.4411
 7445TIP3    H143826   0.265   2.736   7.813  0.0757  1.4889  0.4300
 7445TIP3    H243827   0.128   2.799   7.800 -0.5774 -0.0896 -0.5582
 7446TIP3   OH243828   1.051   3.150   7.844 -0.3368  0.3375 -0.2698
 7446TIP3    H143829   1.015   3.218   7.787  1.8425  0.2774 -1.8555
 7446TIP3    H243830   1.123   3.192   7.890  1.1560 -0.8466 -1.4004
 7447TIP3   OH243831   4.225   1.496  37.736 -0.5731  0.5889 -0.4963
 7447TIP3    H143832   4.162   1.530  37.672 -1.9837 -1.1076 -0.0830
 7447TIP3    H243833   4.204   1.541  37.817 -1.4961 -0.1924 -0.2851
 7448TIP3   OH243834   0.714   0.693  12.803  0.7569 -0.1953  0.0955
 7448TIP3    H143835   0.750   0.719  12.718  0.1085  0.1460 -0.0810
 7448TIP3    H243836   0.641   0.753  12.818  0.1617 -0.9769  0.3747
 7449TIP3   OH243837   2.715   1.823  35.385  0.2073  0.5931  0.3154
 7449TIP3    H143838   2.707   1.918  35.392 -2.3370  0.5604 -0.9921
 7449TIP3    H243839   2.626   1.790  35.399  0.9465 -1.5778  0.3411
 7450TIP3   OH243840   3.702   1.581  32.643  0.9821 -0.5043  0.3138
 7450TIP3    H143841   3.686   1.673  32.624  3.5490 -0.2858 -1.3594
 7450TIP3    H243842   3.616   1.546  32.666 -0.4430  1.8594 -0.9498
 7451TIP3   OH243843   2.624   3.121  39.918  0.1254  0.1135  0.2087
 7451TIP3    H143844   2.687   3.094  39.985  0.2950  0.0724  0.0369
 7451TIP3    H243845   2.597   3.209  39.944  1.0448  0.5549 -0.2634
 7452TIP3   OH243846   3.734   4.394  39.846 -0.2313 -0.1680 -0.1462
 7452TIP3    H143847   3.805   4.437  39.798 -0.3257  1.6457  1.2458
 7452TIP3    H243848   3.654   4.437  39.816 -0.3752  0.3614  0.9378
 7453TIP3   OH243849   1.448   3.549   2.824 -0.6111  0.0845  0.4792
 7453TIP3    H143850   1.540   3.540   2.849 -0.3120  0.4426 -0.4393
 7453TIP3    H243851   1.400   3.537   2.906  0.2014 -0.8761  0.8427
 7454TIP3   OH243852   3.533   2.075  12.745  0.3975 -0.0237 -0.5009
 7454TIP3    H143853   3.624   2.050  12.756  0.8296  1.5815 -0.2181
 7454TIP3    H243854   3.528   2.164  12.779 -1.3463 -0.1884 -0.2302
 7455TIP3   OH243855   0.756   1.537   0.632  0.1508 -0.3856 -0.3232
 7455TIP3    H143856   0.669   1.528   0.669  0.5477 -1.4729  0.3824
 7455TIP3    H243857   0.761   1.469   0.565  0.5298 -0.4645 -0.2180
 7456TIP3   OH243858   4.071   4.393   9.573 -0.0287  0.4783  0.0894
 7456TIP3    H143859   4.128   4.455   9.528 -0.1515  0.5972  0.0982
 7456TIP3    H243860   3.985   4.436   9.576 -0.9197 -0.9315 -2.6182
 7457TIP3   OH243861   0.655   3.905  33.564  0.0558  0.1499 -0.0270
 7457TIP3    H143862   0.665   3.882  33.656  0.0204 -0.2617 -0.1264
 7457TIP3    H243863   0.634   3.999  33.566  0.4473  0.2340  0.3595
 7458TIP3   OH243864   2.412   2.628  37.668 -0.6617 -0.2673 -0.4217
 7458TIP3    H143865   2.396   2.590  37.581  1.2769 -1.0852 -0.4654
 7458TIP3    H243866   2.427   2.721  37.651  0.2205 -0.5082 -1.0606
 7459TIP3   OH243867   3.764   1.177   1.202  0.6886 -0.3382 -1.0327
 7459TIP3    H143868   3.691   1.238   1.187  1.8386  1.5003  0.4981
 7459TIP3    H243869   3.721   1.094   1.221 -0.9782  0.2954 -1.8117
 7460TIP3   OH243870   4.183   1.784  27.233  0.1544 -0.3348  0.6182
 7460TIP3    H143871   4.228   1.734  27.164  1.8615 -0.2194  1.6066
 7460TIP3    H243872   4.246   1.850  27.260 -1.7774  1.9520 -0.1158
 7461TIP3   OH243873   0.466   4.094   6.277 -0.1092 -0.3079 -0.4297
 7461TIP3    H143874   0.524   4.125   6.207  0.2766  1.1336  0.4754
 7461TIP3    H243875   0.402   4.039   6.233  2.5447 -2.9110 -1.3444
 7462TIP3   OH243876   1.248   3.432   2.545 -0.5089 -0.2556 -0.1629
 7462TIP3    H143877   1.326   3.437   2.601 -0.0290 -1.0207 -0.7338
 7462TIP3    H243878   1.282   3.403   2.460 -1.3924 -0.3678 -0.4846
 7463TIP3   OH243879   1.484   4.302  28.614 -0.1730 -0.0159 -0.3461
 7463TIP3    H143880   1.468   4.313  28.708  0.4222 -2.4164  0.1250
 7463TIP3    H243881   1.421   4.234  28.588  1.4277 -1.3109 -1.0246
 7464TIP3   OH243882   1.962   2.830  13.796 -0.5046 -0.5409  0.4034
 7464TIP3    H143883   1.965   2.909  13.849 -1.1381 -1.0576  1.2263
 7464TIP3    H243884   2.050   2.823  13.758 -0.7163  1.0626 -0.4560
 7465TIP3   OH243885   2.382   2.678  39.101 -0.3436 -0.1108 -0.1585
 7465TIP3    H143886   2.452   2.729  39.060 -0.2576  0.1090  0.2542
 7465TIP3    H243887   2.426   2.607  39.145 -0.2894  0.5424  0.8687
 7466TIP3   OH243888   0.058   3.820  23.075 -0.4780  0.1035  0.3175
 7466TIP3    H143889   0.012   3.855  23.151 -1.0749  0.7935 -0.3385
 7466TIP3    H243890   0.002   3.845  23.000  0.5277  0.2023 -0.4175
 7467TIP3   OH243891   1.491   0.757   0.546  0.0146  0.1432  0.5112
 7467TIP3    H143892   1.532   0.774   0.461 -1.4402  1.5914  0.0662
 7467TIP3    H243893   1.526   0.671   0.572  0.3436 -0.4290 -1.6187
 7468TIP3   OH243894   0.719   1.200  38.491  0.1344  0.5265 -0.3018
 7468TIP3    H143895   0.781   1.265  38.457 -1.5128  1.1069 -2.3464
 7468TIP3    H243896   0.682   1.241  38.569 -0.6600  1.9466 -1.3990
 7469TIP3   OH243897   2.657   1.260  33.799 -0.1095 -0.4720  0.3565
 7469TIP3    H143898   2.569   1.285  33.772  0.1038 -0.3359 -0.2235
 7469TIP3    H243899   2.701   1.343  33.817  0.0910 -0.5047  0.0335
 7470TIP3   OH243900   1.299   0.316  34.087  0.3337  0.3415 -0.2745
 7470TIP3    H143901   1.332   0.404  34.101  0.7517 -0.3286  4.1039
 7470TIP3    H243902   1.343   0.287  34.007  1.8025  3.3165 -0.6772
 7471TIP3   OH243903   3.703   0.147  25.290  0.4061 -0.4420  0.3078
 7471TIP3    H143904   3.708   0.236  25.325  3.6894 -0.9235  1.3828
 7471TIP3    H243905   3.775   0.141  25.228 -2.1468 -1.2608 -2.8446
 7472TIP3   OH243906   1.825   1.751   1.302 -0.0262  0.0590 -0.1408
 7472TIP3    H143907   1.734   1.775   1.287  0.0670  0.0516 -0.7535
 7472TIP3    H243908   1.846   1.787   1.388 -0.1428  1.4194 -0.6573
 7473TIP3   OH243909   2.078   2.873  29.713  0.4779  0.5210  0.7389
 7473TIP3    H143910   2.019   2.811  29.669 -0.0435  1.5922 -0.1342
 7473TIP3    H243911   2.066   2.855  29.806  0.9741 -1.2485  0.5000
 7474TIP3   OH243912   0.496   4.012   2.890  0.8348  0.0613  0.2063
 7474TIP3    H143913   0.549   3.968   2.824  0.1954  0.1474 -0.3842
 7474TIP3    H243914   0.432   4.063   2.839  0.9831  0.9540  0.8823
 7475TIP3   OH243915   4.050   0.192  38.336  0.1882  0.5748 -0.3843
 7475TIP3    H143916   4.050   0.202  38.432 -0.9912 -3.0866  0.1618
 7475TIP3    H243917   4.131   0.145  38.317 -1.1823 -1.8983 -0.5798
 7476TIP3   OH243918   0.337   3.227   9.711  0.4013  0.0127  0.2474
 7476TIP3    H143919   0.390   3.163   9.759  0.3430 -1.2657 -1.2965
 7476TIP3    H243920   0.399   3.296   9.687  0.2219  1.2453  2.9739
 7477TIP3   OH243921   0.214   4.275  25.494 -0.1848 -0.2822  0.2565
 7477TIP3    H143922   0.229   4.350  25.436  1.9886 -0.5945  0.3172
 7477TIP3    H243923   0.120   4.274  25.508 -0.6806  0.4538 -2.4070
 7478TIP3   OH243924   1.264   1.212  30.765  0.6165 -0.7744  0.5467
 7478TIP3    H143925   1.295   1.280  30.825  0.5268 -1.1292  0.9963
 7478TIP3    H243926   1.215   1.152  30.820 -1.7261  0.2698 -0.2756
 7479TIP3   OH243927   1.377   1.341   8.118 -0.1178 -0.6618 -0.1847
 7479TIP3    H143928   1.306   1.324   8.056 -0.1993  0.2295 -0.3595
 7479TIP3    H243929   1.334   1.348   8.203 -0.4534  1.0832 -0.4453
 7480TIP3   OH243930   2.102   0.015  28.637 -0.4190  0.1155  0.0840
 7480TIP3    H143931   2.195   0.009  28.661 -0.2865 -0.0910 -0.4690
 7480TIP3    H243932   2.089  -0.057  28.576 -0.8713  0.3430 -0.0860
 7481TIP3   OH243933   4.227   0.065  35.972  0.1318 -0.1182 -0.0849
 7481TIP3    H143934   4.196   0.155  35.970 -0.0060 -0.1612 -2.0836
 7481TIP3    H243935   4.322   0.073  35.985  0.0635  0.2822  0.1954
 7482TIP3   OH243936   1.959   1.857  28.252 -0.3160  0.1571 -0.2491
 7482TIP3    H143937   1.884   1.833  28.306 -0.6603 -1.2281 -1.2972
 7482TIP3    H243938   1.969   1.785  28.191  1.0159  0.9720 -1.0473
 7483TIP3   OH243939   4.326   0.383  13.252 -0.4377  0.3844 -0.3938
 7483TIP3    H143940   4.278   0.463  13.274  2.7089  2.1076  0.8709
 7483TIP3    H243941   4.418   0.405  13.268  0.8527 -2.6719 -2.6014
 7484TIP3   OH243942   1.573   4.385  40.728  0.4499  0.0829  0.3471
 7484TIP3    H143943   1.555   4.458  40.787 -0.3186  0.7084 -0.6247
 7484TIP3    H243944   1.487   4.357  40.697  0.8304 -0.1455 -0.5586
 7485TIP3   OH243945   2.801   3.479  28.979  0.0638  0.1406  0.4811
 7485TIP3    H143946   2.851   3.400  28.958  0.5568  0.5701 -0.0023
 7485TIP3    H243947   2.717   3.447  29.010  0.2283 -0.5738  0.2131
 7486TIP3   OH243948   0.919   0.741  35.568 -0.0571 -0.0742 -0.4345
 7486TIP3    H143949   0.890   0.670  35.625  0.2476 -0.6214 -0.9357
 7486TIP3    H243950   0.852   0.808  35.576 -0.0880 -0.2013  0.4484
 7487TIP3   OH243951   0.873   1.586   3.286 -0.2317 -0.0826  0.0910
 7487TIP3    H143952   0.780   1.570   3.300 -0.0400 -0.0644  1.4695
 7487TIP3    H243953   0.892   1.545   3.201 -1.7418  0.9809 -0.8119
 7488TIP3   OH243954   2.466   0.438  40.268 -0.3714  0.1620  0.2477
 7488TIP3    H143955   2.473   0.467  40.359  3.2164 -0.3283  0.2731
 7488TIP3    H243956   2.417   0.509  40.225 -0.9514  1.0729  2.2620
 7489TIP3   OH243957   3.816   1.526  23.587  0.5338  0.2054  0.0026
 7489TIP3    H143958   3.830   1.518  23.681  0.2242 -3.2851 -0.1416
 7489TIP3    H243959   3.735   1.576  23.579 -0.3183 -0.8305  1.6697
 7490TIP3   OH243960   3.390   4.310  37.565  0.4790  0.5215 -0.1394
 7490TIP3    H143961   3.477   4.326  37.529 -0.2239  0.2608 -2.0703
 7490TIP3    H243962   3.404   4.248  37.637  1.8185  0.1102 -0.7386
 7491TIP3   OH243963   2.372   2.669   4.270 -0.3417  0.3244  0.2375
 7491TIP3    H143964   2.313   2.733   4.230 -2.4874 -1.4535  0.3686
 7491TIP3    H243965   2.433   2.646   4.200  1.5006  3.5039  0.6064
 7492TIP3   OH243966   3.881   1.883   8.821  0.0005 -0.2535 -0.4422
 7492TIP3    H143967   3.940   1.817   8.856  3.0455  0.1708 -4.1860
 7492TIP3    H243968   3.900   1.962   8.873 -2.0095 -1.5220  2.4995
 7493TIP3   OH243969   1.489   3.826   0.294 -0.4993 -0.1081  0.4092
 7493TIP3    H143970   1.452   3.889   0.232 -1.2732 -0.1076  0.8596
 7493TIP3    H243971   1.449   3.849   0.378 -0.2383 -0.7566  0.7134
 7494TIP3   OH243972   2.040   2.829  15.966  0.4323  0.0273  0.3114
 7494TIP3    H143973   2.018   2.834  16.059 -1.0474  1.0114 -0.0674
 7494TIP3    H243974   1.965   2.786  15.926  0.8648  0.0225 -0.5135
 7495TIP3   OH243975   1.400   0.112  27.405 -0.5101  0.3659  0.5335
 7495TIP3    H143976   1.461   0.039  27.398 -0.8847  0.1174 -0.3683
 7495TIP3    H243977   1.349   0.093  27.484  0.1631  0.2569  0.9459
 7496TIP3   OH243978   3.022   2.005  32.257  0.0790 -0.1138 -0.3314
 7496TIP3    H143979   2.968   1.991  32.335 -0.8973 -0.0658 -0.9877
 7496TIP3    H243980   3.009   2.097  32.234 -1.4311 -0.6472 -1.8248
 7497TIP3   OH243981   3.185   3.995  11.178  0.5223  0.1088 -0.2485
 7497TIP3    H143982   3.255   3.936  11.205 -1.6577 -1.2534  3.1857
 7497TIP3    H243983   3.148   3.954  11.100  0.4642 -1.9367  0.7874
 7498TIP3   OH243984   2.592   3.088  35.522  0.1462 -0.4618  0.0199
 7498TIP3    H143985   2.581   3.183  35.526 -1.6878 -0.6184 -0.4107
 7498TIP3    H243986   2.532   3.059  35.454  2.0232 -1.7806 -1.2005
 7499TIP3   OH243987   1.491   2.809  40.339  0.3052  0.6047 -0.2139
 7499TIP3    H143988   1.455   2.885  40.293 -0.3734 -0.4470 -1.4783
 7499TIP3    H243989   1.440   2.804  40.420  1.0606  2.0859  0.3936
 7500TIP3   OH243990   2.841   0.407  41.311 -0.4690 -0.0304  0.0750
 7500TIP3    H143991   2.869   0.480  41.256 -0.4078  0.1900  0.3963
 7500TIP3    H243992   2.745   0.413  41.314 -0.4751 -0.0692 -0.0426
 7501TIP3   OH243993   4.310   1.879  41.500 -0.2065 -0.5744  0.2327
 7501TIP3    H143994   4.256   1.821  41.554 -0.6112  0.5374  1.0548
 7501TIP3    H243995   4.264   1.963  41.502  1.2609  0.2440  0.4754
 7502TIP3   OH243996   1.000   2.367   8.563  0.5351  0.1495 -0.1919
 7502TIP3    H143997   0.920   2.407   8.529  0.0484  0.0348  0.7968
 7502TIP3    H243998   1.026   2.305   8.495  0.5620  1.1686 -1.1414
 7503TIP3   OH243999   1.841   0.810   2.630  0.4029 -0.0074  0.2730
 7503TIP3    H144000   1.922   0.858   2.648  0.0590  0.3999  0.7681
 7503TIP3    H244001   1.777   0.878   2.610  0.0565 -0.2982  0.3919
 7504TIP3   OH244002   1.304   0.104  28.043 -0.0264  0.5103  0.2044
 7504TIP3    H144003   1.273   0.046  27.973 -1.3796 -0.1005  1.2496
 7504TIP3    H244004   1.385   0.141  28.009  0.5629 -1.5111 -0.7888
 7505TIP3   OH244005   3.813   4.032  36.164  0.5636  0.1619  0.1338
 7505TIP3    H144006   3.740   3.999  36.217  0.1208  0.1768 -0.4650
 7505TIP3    H244007   3.818   3.973  36.089  0.2160  1.0320 -0.5884
 7506TIP3   OH244008   4.091   3.903  26.825 -0.0975 -0.6194 -0.3695
 7506TIP3    H144009   4.163   3.949  26.870  0.8411 -0.7162 -1.7172
 7506TIP3    H244010   4.133   3.827  26.785 -1.1844 -1.3116 -0.2228
 7507TIP3   OH244011   1.615   0.151  17.918  0.6716 -0.6789  0.2988
 7507TIP3    H144012   1.568   0.186  17.994  1.6162  1.4773 -0.0413
 7507TIP3    H244013   1.665   0.078  17.952  0.5349 -0.1824  1.6181
 7508TIP3   OH244014   4.157   2.147   2.704  0.6025 -0.1314 -0.0556
 7508TIP3    H144015   4.230   2.085   2.702 -0.3740 -1.2903 -0.6042
 7508TIP3    H244016   4.079   2.093   2.690 -0.5390  0.8269  2.1184
 7509TIP3   OH244017   3.471   2.989   3.682  0.7691  0.4722 -0.1080
 7509TIP3    H144018   3.516   3.065   3.716  0.4285  0.8626 -0.5150
 7509TIP3    H244019   3.403   3.025   3.624  0.7264 -0.1377 -0.4492
 7510TIP3   OH244020   3.122   2.920  27.208 -0.1900  0.2288 -0.6552
 7510TIP3    H144021   3.183   2.922  27.282 -0.8042 -0.1009 -0.1347
 7510TIP3    H244022   3.143   2.839  27.161  0.9059  0.9406 -1.4707
 7511TIP3   OH244023   3.071   3.810   8.053  0.8680 -0.3462  0.1407
 7511TIP3    H144024   3.139   3.872   8.026  0.4643  0.1483  0.2419
 7511TIP3    H244025   3.016   3.800   7.976  0.6503 -0.1958  0.2750
 7512TIP3   OH244026   2.862   1.157  32.743 -0.4080 -0.2458 -0.0231
 7512TIP3    H144027   2.846   1.068  32.712  0.8635 -0.3685 -0.4058
 7512TIP3    H244028   2.919   1.195  32.676  1.2780 -0.0453  1.4452
 7513TIP3   OH244029   1.122   1.495   4.891 -0.2269 -0.0938 -0.8973
 7513TIP3    H144030   1.110   1.457   4.804 -0.2001 -0.8022 -0.5969
 7513TIP3    H244031   1.083   1.582   4.884 -0.4006 -0.2166 -1.5645
 7514TIP3   OH244032   4.276   1.465   2.301  0.0992 -0.3078 -0.7144
 7514TIP3    H144033   4.256   1.406   2.228 -1.5846  0.4720 -0.9477
 7514TIP3    H244034   4.278   1.552   2.261 -0.9685  0.1435  0.1483
 7515TIP3   OH244035   2.252   2.400  34.359  0.0449 -0.2362  0.0485
 7515TIP3    H144036   2.202   2.319  34.350 -0.1538 -0.0179 -0.8330
 7515TIP3    H244037   2.219   2.440  34.440  0.1856 -1.0560  0.5146
 7516TIP3   OH244038   3.525   2.213  40.644  0.3427  0.3429  0.2809
 7516TIP3    H144039   3.520   2.192  40.550  1.1615 -1.5679  0.6291
 7516TIP3    H244040   3.556   2.304  40.646  1.3860  0.0565 -1.2901
 7517TIP3   OH244041   1.938   2.954  32.550 -0.3448 -0.0252 -0.0719
 7517TIP3    H144042   1.913   2.961  32.642 -1.4698  1.9145 -0.4518
 7517TIP3    H244043   1.966   2.863  32.539 -0.6105 -0.4197  2.0651
 7518TIP3   OH244044   0.066   0.145   5.347 -0.5751  0.0484  0.3454
 7518TIP3    H144045   0.113   0.063   5.335 -0.0915  0.3238  0.3592
 7518TIP3    H244046   0.119   0.211   5.302 -1.2930  0.2457 -0.2319
 7519TIP3   OH244047   3.779   1.651  32.981  0.2058  0.8330 -0.4532
 7519TIP3    H144048   3.733   1.707  33.044 -0.5246  1.6484 -1.6507
 7519TIP3    H244049   3.752   1.685  32.895  4.2301  2.3833 -1.3306
 7520TIP3   OH244050   3.147   3.423  29.207  0.3054  0.2895  0.0538
 7520TIP3    H144051   3.152   3.508  29.164 -1.5443 -0.0051 -0.8343
 7520TIP3    H244052   3.083   3.374  29.156  1.7400 -1.8719  0.1799
 7521TIP3   OH244053   3.444   0.231  32.231  0.2168  0.0563  0.0840
 7521TIP3    H144054   3.517   0.180  32.197 -0.5011  1.1182 -3.4630
 7521TIP3    H244055   3.481   0.318  32.248 -0.0147  0.3908 -1.0305
 7522TIP3   OH244056   3.841   1.095  12.967  0.2968  0.1778 -0.6816
 7522TIP3    H144057   3.809   1.034  12.901  0.7979 -1.2319  0.3109
 7522TIP3    H244058   3.931   1.068  12.982  0.5735  1.2698 -0.3028
 7523TIP3   OH244059   1.176   0.434  36.109 -0.2496 -0.2690 -0.3216
 7523TIP3    H144060   1.102   0.486  36.141  0.2399  0.7368 -0.8154
 7523TIP3    H244061   1.189   0.368  36.178 -0.6334  0.4829  0.4924
 7524TIP3   OH244062   3.220   1.007   5.265  0.1628  0.0567  0.2517
 7524TIP3    H144063   3.262   1.000   5.179 -2.1725 -1.6188 -0.8441
 7524TIP3    H244064   3.220   0.918   5.299 -0.8396  0.3382  1.0422
 7525TIP3   OH244065   2.236   2.080  34.514 -0.4650  0.4093 -0.0628
 7525TIP3    H144066   2.239   2.056  34.422 -0.8489  0.5321 -0.1076
 7525TIP3    H244067   2.155   2.041  34.547 -1.3566  2.0158 -0.2525
 7526TIP3   OH244068   0.539   3.855  30.314 -0.4469 -0.2583 -0.3658
 7526TIP3    H144069   0.555   3.810  30.231  0.0779 -1.3377  0.2847
 7526TIP3    H244070   0.563   3.790  30.381 -1.0585  0.5110  0.6283
 7527TIP3   OH244071   3.991   1.359   8.629  0.3181  0.6764 -0.0677
 7527TIP3    H144072   3.907   1.359   8.676 -0.5058  0.4523 -1.4761
 7527TIP3    H244073   3.994   1.444   8.585  0.3953  0.3267 -0.7497
 7528TIP3   OH244074   0.833   0.025   6.554  0.2234  0.0700 -0.3996
 7528TIP3    H144075   0.883   0.062   6.482  0.3586 -0.2614 -0.4754
 7528TIP3    H244076   0.742   0.044   6.532  0.2948  0.4273 -0.3987
 7529TIP3   OH244077   4.209   3.578  11.459  0.5045 -0.2547  0.6093
 7529TIP3    H144078   4.194   3.667  11.492 -0.0893 -0.6533  1.4429
 7529TIP3    H244079   4.210   3.588  11.364  2.1959  0.9133  0.7106
 7530TIP3   OH244080   3.550   2.607  26.813  0.1919 -0.2831 -0.2191
 7530TIP3    H144081   3.497   2.630  26.889  1.3983  1.7497  0.0867
 7530TIP3    H244082   3.488   2.569  26.751 -0.8353 -1.8723  1.6697
 7531TIP3   OH244083   1.505   4.258  18.195  0.5266  0.2156  0.1542
 7531TIP3    H144084   1.527   4.297  18.280  1.9064  0.2667 -0.2111
 7531TIP3    H244085   1.460   4.176  18.217  1.0582  0.1248  0.9418
 7532TIP3   OH244086   0.178   2.985   2.752  0.2749  0.1037  0.1304
 7532TIP3    H144087   0.261   2.953   2.786  0.7430  1.5822  0.4794
 7532TIP3    H244088   0.113   2.925   2.787  1.1934 -1.2044 -0.3271
 7533TIP3   OH244089   2.370   0.699  34.796 -0.4452  0.0643  0.2795
 7533TIP3    H144090   2.375   0.770  34.860 -1.6133 -0.7120  1.2677
 7533TIP3    H244091   2.276   0.688  34.780 -0.5477 -2.9918  2.1951
 7534TIP3   OH244092   3.605   0.864  27.857  0.4128  0.1139  0.3108
 7534TIP3    H144093   3.584   0.908  27.775 -0.7415  1.4368  1.2696
 7534TIP3    H244094   3.619   0.772  27.832 -0.8431  0.2923 -1.2294
 7535TIP3   OH244095   2.406   3.753  29.490 -0.0468  0.5920 -0.5117
 7535TIP3    H144096   2.345   3.825  29.506  1.5045  1.8938 -0.1702
 7535TIP3    H244097   2.447   3.776  29.406  0.2488 -0.0527 -0.5431
 7536TIP3   OH244098   0.089   0.764  28.216  0.0115 -0.1756 -1.0169
 7536TIP3    H144099   0.111   0.704  28.288  2.3497 -0.3799 -1.8171
 7536TIP3    H244100   0.149   0.837  28.226 -0.9182  0.7080 -1.6911
 7537TIP3   OH244101   3.056   2.282   3.895  0.2280 -0.4653 -0.4560
 7537TIP3    H144102   3.010   2.271   3.978  0.4959 -0.0470 -0.2492
 7537TIP3    H244103   3.041   2.373   3.870  0.0541 -0.6161 -0.9286
 7538TIP3   OH244104   0.511   2.223  12.245  0.1497 -0.3213 -0.3650
 7538TIP3    H144105   0.495   2.317  12.254  2.0333 -0.0688  0.9354
 7538TIP3    H244106   0.479   2.202  12.157 -0.2947  1.5240 -0.6926
 7539TIP3   OH244107   1.126   4.393  28.540 -0.1243 -0.1310 -0.0742
 7539TIP3    H144108   1.122   4.412  28.446 -0.1757  0.0014 -0.0466
 7539TIP3    H244109   1.153   4.301  28.545  1.2742  0.2499 -0.1952
 7540TIP3   OH244110   0.826   1.269  37.881 -0.1970 -0.0011 -0.5495
 7540TIP3    H144111   0.837   1.182  37.920 -0.9430  0.4448  0.7391
 7540TIP3    H244112   0.810   1.326  37.956 -1.5267  0.9375 -1.5072
 7541TIP3   OH244113   1.696   4.399  11.251  0.2268  0.3091  0.8978
 7541TIP3    H144114   1.754   4.346  11.304  0.6472  0.2410  0.3786
 7541TIP3    H244115   1.609   4.362  11.266  0.4425 -0.1707  0.9649
 7542TIP3   OH244116   2.399   1.234   0.057  0.6043 -0.1933 -0.5519
 7542TIP3    H144117   2.392   1.146   0.020  0.5162  0.0695 -1.1672
 7542TIP3    H244118   2.493   1.253   0.056  0.6092 -0.2190 -0.5731
 7543TIP3   OH244119   3.637   3.092  29.007  0.4037 -0.2301 -0.4092
 7543TIP3    H144120   3.685   3.119  28.929 -1.8044  1.0561 -1.3871
 7543TIP3    H244121   3.704   3.054  29.064  2.0659 -1.4117 -2.9683
 7544TIP3   OH244122   3.174   2.539  35.310 -0.2603  0.1996  0.2304
 7544TIP3    H144123   3.208   2.530  35.399 -1.7404 -0.7052  0.7433
 7544TIP3    H244124   3.239   2.593  35.265  0.3087  1.0619  1.9716
 7545TIP3   OH244125   0.974   0.554  12.953  0.2106  0.2710 -0.1060
 7545TIP3    H144126   0.964   0.552  13.048 -1.5925 -2.7096 -0.2278
 7545TIP3    H244127   0.901   0.608  12.921  0.9424  1.4523  0.1483
 7546TIP3   OH244128   0.955   4.260   2.902  0.0189  0.3268 -0.1435
 7546TIP3    H144129   0.933   4.325   2.835  1.1593  2.7601  1.6554
 7546TIP3    H244130   0.901   4.285   2.978  1.0659 -0.3291  0.8549
 7547TIP3   OH244131   2.737   0.300  35.561  0.1510 -0.1595 -0.0037
 7547TIP3    H144132   2.644   0.290  35.583  0.2248 -1.8063 -0.2972
 7547TIP3    H244133   2.763   0.380  35.605 -0.9594 -0.6611  1.6921
 7548TIP3   OH244134   1.399   1.319   3.274  0.6163 -0.0139 -0.1456
 7548TIP3    H144135   1.467   1.293   3.338  1.2545 -1.1737 -1.2379
 7548TIP3    H244136   1.331   1.360   3.327  0.6227 -1.9177  1.4617
 7549TIP3   OH244137   0.465   3.658  11.646 -0.1219 -0.0652  0.1465
 7549TIP3    H144138   0.502   3.705  11.571 -0.1537  0.4835  0.4648
 7549TIP3    H244139   0.370   3.667  11.635 -0.1138  1.0552  0.8843
 7550TIP3   OH244140   3.971   4.011  26.542  0.6067  0.1672 -0.1093
 7550TIP3    H144141   3.889   3.991  26.588  2.0164 -0.0749  2.4923
 7550TIP3    H244142   3.982   3.941  26.479 -1.8951  1.0097 -1.6185
 7551TIP3   OH244143   3.643   3.286  11.009  0.0738 -0.3155 -0.0965
 7551TIP3    H144144   3.602   3.287  10.923 -1.8342 -1.9423  0.7059
 7551TIP3    H244145   3.571   3.303  11.070  0.8448 -1.7594  1.2966
 7552TIP3   OH244146   1.402   3.320   6.928  0.0049 -0.1201 -0.2713
 7552TIP3    H144147   1.480   3.269   6.903 -0.4679 -1.2323  0.4348
 7552TIP3    H244148   1.387   3.297   7.019 -0.2739  1.2722  0.0433
 7553TIP3   OH244149   4.285   1.790  33.211  0.4260 -0.5007  0.7564
 7553TIP3    H144150   4.373   1.802  33.246 -0.1635  0.0875  2.1294
 7553TIP3    H244151   4.228   1.830  33.276 -0.8940 -1.2787  0.1245
 7554TIP3   OH244152   3.176   4.143  12.517 -0.0417  0.1813 -0.2794
 7554TIP3    H144153   3.096   4.187  12.488 -0.5608  1.3127  2.5144
 7554TIP3    H244154   3.147   4.056  12.544 -0.0838  0.1240 -0.5078
 7555TIP3   OH244155   0.886   1.978  17.416  0.4318  0.1496  0.1826
 7555TIP3    H144156   0.898   2.052  17.357 -2.3080  1.4091  1.0689
 7555TIP3    H244157   0.942   1.999  17.491  2.8965 -0.8215 -1.2412
 7556TIP3   OH244158   1.638   2.490   6.897 -0.1654  0.4503  0.4412
 7556TIP3    H144159   1.574   2.526   6.835 -0.4907  0.2233  0.6396
 7556TIP3    H244160   1.720   2.533   6.874 -0.0467 -0.3823 -0.8303
 7557TIP3   OH244161   3.044   0.308  34.817 -0.1335  0.3994 -0.1184
 7557TIP3    H144162   2.983   0.334  34.886  1.3958 -1.0292  1.8834
 7557TIP3    H244163   3.034   0.213  34.810  2.3450 -0.0032  0.8499
 7558TIP3   OH244164   2.933   2.678  37.914 -0.0613 -0.0895 -0.5579
 7558TIP3    H144165   2.874   2.720  37.976 -1.9041 -2.4970 -0.5531
 7558TIP3    H244166   3.015   2.727  37.922 -1.3900  2.0329  0.9913
 7559TIP3   OH244167   0.575   2.803   4.989  0.6004  0.3312  0.2927
 7559TIP3    H144168   0.604   2.890   5.018 -0.1423  1.6376 -2.5327
 7559TIP3    H244169   0.480   2.808   4.989  0.5539  0.0866 -1.2300
 7560TIP3   OH244170   2.191   2.879  29.138 -0.6893 -0.7920  0.7107
 7560TIP3    H144171   2.184   2.929  29.056  0.6146  1.9443  2.1386
 7560TIP3    H244172   2.285   2.868  29.151 -0.8925 -1.5115  1.6391
 7561TIP3   OH244173   3.902   3.491   3.282  0.1146  0.1160 -0.3221
 7561TIP3    H144174   3.870   3.520   3.368  1.4179  0.8351 -0.0386
 7561TIP3    H244175   3.944   3.569   3.245 -0.7771 -0.0682 -1.8134
 7562TIP3   OH244176   1.110   4.080  32.334 -0.2103  0.5308  0.1082
 7562TIP3    H144177   1.186   4.077  32.392 -0.1604  0.3365  0.0351
 7562TIP3    H244178   1.120   4.162  32.285  0.9964 -0.4017 -1.2971
 7563TIP3   OH244179   0.729   0.963   1.271  0.6583  0.3893  0.4595
 7563TIP3    H144180   0.693   0.885   1.313  0.6460  0.6351  0.9062
 7563TIP3    H244181   0.776   0.929   1.195 -1.5210  0.1391 -0.8737
 7564TIP3   OH244182   2.286   1.194  30.115 -0.1460  0.1196 -0.3945
 7564TIP3    H144183   2.241   1.204  30.031  2.3258  0.8164 -1.7267
 7564TIP3    H244184   2.374   1.162  30.092  0.0576 -1.3765  2.0759
 7565TIP3   OH244185   1.542   1.223  40.994 -0.2059  0.1715  0.8587
 7565TIP3    H144186   1.556   1.132  41.019  0.5511  0.4433  1.4409
 7565TIP3    H244187   1.625   1.266  41.011  0.0689  0.5723 -1.3013
 7566TIP3   OH244188   2.342   1.035   1.838 -0.6323  0.7419  0.0272
 7566TIP3    H144189   2.254   1.069   1.854 -1.3308  0.4447 -2.6338
 7566TIP3    H244190   2.335   0.942   1.857 -0.7092  0.8425  0.4904
 7567TIP3   OH244191   2.762   1.916  12.223 -0.3722 -0.4351 -0.2062
 7567TIP3    H144192   2.759   1.876  12.310  4.0557  0.5364  0.6105
 7567TIP3    H244193   2.787   1.846  12.164 -1.0657 -0.5898 -0.3298
 7568TIP3   OH244194   0.928   0.618   3.886  0.1026 -0.1016 -0.8704
 7568TIP3    H144195   0.988   0.545   3.902 -0.7264 -0.9958 -1.6902
 7568TIP3    H244196   0.841   0.582   3.905 -0.2040  1.1728  0.3126
 7569TIP3   OH244197   2.346   4.026   0.987 -0.2892 -0.3536 -0.3809
 7569TIP3    H144198   2.398   4.017   0.908 -1.5470  0.0283 -1.2770
 7569TIP3    H244199   2.354   3.941   1.031 -0.5863 -1.0072 -1.5622
 7570TIP3   OH244200   2.067   4.258  17.071 -0.5610  0.7116  0.7280
 7570TIP3    H144201   2.042   4.208  16.993 -1.6892  1.9845  0.2451
 7570TIP3    H244202   2.069   4.192  17.141  1.0407 -0.5624 -0.4415
 7571TIP3   OH244203   0.728   3.404  33.974  0.4881 -0.3548 -0.5105
 7571TIP3    H144204   0.782   3.446  33.907 -0.4772  1.9114  0.0328
 7571TIP3    H244205   0.791   3.366  34.035  1.4321  0.4011 -0.9836
 7572TIP3   OH244206   0.653   3.715  38.636 -0.1504 -0.2543  0.6355
 7572TIP3    H144207   0.617   3.632  38.604 -0.0784 -0.0737  0.0902
 7572TIP3    H244208   0.669   3.699  38.729  0.6410 -1.1237  0.3669
 7573TIP3   OH244209   3.135   4.059  34.672  0.4048  0.1496  0.1100
 7573TIP3    H144210   3.120   4.146  34.637  0.7532  0.6781  1.2252
 7573TIP3    H244211   3.131   4.001  34.596  2.4556  1.3927 -1.0337
 7574TIP3   OH244212   4.395   2.371  10.993 -0.5635 -0.2359  0.1524
 7574TIP3    H144213   4.402   2.296  11.052 -0.5737 -1.6241 -1.5524
 7574TIP3    H244214   4.485   2.402  10.983 -0.4734 -0.4332  0.3413
 7575TIP3   OH244215   4.034   0.415  11.809  0.3133  0.2315 -0.6458
 7575TIP3    H144216   4.030   0.423  11.904  0.0515 -0.2250 -0.6157
 7575TIP3    H244217   4.082   0.492  11.780  2.9255 -1.0183  0.0642
 7576TIP3   OH244218   0.759   1.611  33.523 -0.4659  0.0037  0.3841
 7576TIP3    H144219   0.850   1.614  33.491 -0.3172 -0.5909  0.7373
 7576TIP3    H244220   0.718   1.541  33.472 -0.7623  0.3494  0.1445
 7577TIP3   OH244221   4.081   2.012  30.447 -0.9952  0.2948  0.5371
 7577TIP3    H144222   4.000   2.022  30.496 -0.0903  2.4047  1.7266
 7577TIP3    H244223   4.058   2.034  30.357 -1.3027  3.4859  1.2835
 7578TIP3   OH244224   0.199   0.206  10.112  0.0891 -0.5251  0.3000
 7578TIP3    H144225   0.153   0.289  10.123  1.2709  0.3998 -1.2824
 7578TIP3    H244226   0.131   0.139  10.118 -1.1698  0.6780 -0.1831
 7579TIP3   OH244227   1.340   2.030  34.178  0.0444  0.1836  0.2591
 7579TIP3    H144228   1.315   2.083  34.103  1.0911  0.0062 -0.2290
 7579TIP3    H244229   1.427   2.062  34.202 -0.4306  0.5004  1.6474
 7580TIP3   OH244230   0.207   2.294  10.681 -0.2846  0.0276 -0.0706
 7580TIP3    H144231   0.236   2.340  10.602 -0.7579  1.1118  0.3686
 7580TIP3    H244232   0.229   2.354  10.753  1.0564 -1.3668  0.7336
 7581TIP3   OH244233   0.177   2.771   4.783 -0.0990  0.0045  0.5249
 7581TIP3    H144234   0.151   2.679   4.789 -1.2292  0.2228 -0.6832
 7581TIP3    H244235   0.218   2.779   4.697  2.5916  0.0563  1.7196
 7582TIP3   OH244236   1.814   0.112  17.292  0.1668  0.0871 -0.0290
 7582TIP3    H144237   1.794   0.018  17.290  1.3829 -0.2859  2.0592
 7582TIP3    H244238   1.797   0.137  17.383 -1.3481  2.2135 -0.8388
 7583TIP3   OH244239   3.725   2.578  36.171  0.3968  0.1690  0.4111
 7583TIP3    H144240   3.703   2.563  36.079  0.6600 -0.4353  0.4429
 7583TIP3    H244241   3.783   2.506  36.194  1.2868  0.9735  0.7284
 7584TIP3   OH244242   0.296   3.954   6.732 -0.4627  0.1924  0.4670
 7584TIP3    H144243   0.315   3.866   6.699 -1.6123 -0.4635  1.4544
 7584TIP3    H244244   0.372   3.975   6.787  0.9878  0.8878 -1.7067
 7585TIP3   OH244245   4.269   1.601  39.874  0.4610  0.6515  0.1379
 7585TIP3    H144246   4.197   1.645  39.829  0.1263  2.3676  2.1928
 7585TIP3    H244247   4.280   1.651  39.956  3.1005 -0.3775  0.4940
 7586TIP3   OH244248   1.840   1.222  40.079 -0.1670 -0.1656  0.3914
 7586TIP3    H144249   1.854   1.316  40.087  1.6407 -0.2778 -0.8627
 7586TIP3    H244250   1.757   1.206  40.125 -1.2948  2.2464 -0.6178
 7587TIP3   OH244251   3.138   1.248  37.717 -0.5177  0.4133  0.3366
 7587TIP3    H144252   3.086   1.205  37.649 -1.8554  0.6899  1.1454
 7587TIP3    H244253   3.181   1.322  37.673 -1.5923  0.7563 -0.1502
 7588TIP3   OH244254   4.053   1.736   7.124  0.2751 -0.0345  0.0920
 7588TIP3    H144255   4.069   1.830   7.120  0.5188 -0.0748  0.1513
 7588TIP3    H244256   3.990   1.725   7.195 -1.5170  0.3289 -1.3584
 7589TIP3   OH244257   2.966   3.501   0.429 -0.2293  0.4946 -0.3541
 7589TIP3    H144258   2.991   3.412   0.454  3.7679  2.0607  2.0689
 7589TIP3    H244259   2.914   3.532   0.503  1.2843  1.2069  0.4436
 7590TIP3   OH244260   0.434   0.545   9.341  0.3390 -1.0570 -0.3426
 7590TIP3    H144261   0.369   0.614   9.334  1.2972 -0.0595  0.3141
 7590TIP3    H244262   0.386   0.470   9.376 -0.3576 -0.1737  0.6397
 7591TIP3   OH244263   2.625   3.294   5.243  0.4221 -0.5253  0.0618
 7591TIP3    H144264   2.610   3.386   5.267 -0.0610 -0.7725  0.7670
 7591TIP3    H244265   2.643   3.296   5.149  0.7927  0.3294  0.1396
 7592TIP3   OH244266   0.949   2.354  16.049  0.0544  0.6878 -0.3469
 7592TIP3    H144267   0.902   2.325  16.127  0.0650 -1.7927 -1.1768
 7592TIP3    H244268   0.936   2.283  15.986  1.6071  1.7707 -1.9709
 7593TIP3   OH244269   2.650   1.102   3.403 -0.0114  0.1627 -0.1186
 7593TIP3    H144270   2.711   1.042   3.446 -0.9398 -1.1611 -0.5885
 7593TIP3    H244271   2.573   1.101   3.460 -0.4975 -0.0639 -0.7801
 7594TIP3   OH244272   4.006   3.771   0.375  0.0145 -0.0085  0.5471
 7594TIP3    H144273   4.088   3.755   0.421  0.4661  0.0508 -0.2272
 7594TIP3    H244274   4.032   3.800   0.288 -0.8069 -1.1159 -0.1037
 7595TIP3   OH244275   0.563   1.745  28.168 -0.7014  0.1206 -0.0688
 7595TIP3    H144276   0.631   1.680  28.151  0.0895  1.0437 -0.5703
 7595TIP3    H244277   0.512   1.709  28.241 -0.6082 -1.2794 -0.6826
 7596TIP3   OH244278   3.930   2.789  13.299 -0.4083  0.7485  0.2012
 7596TIP3    H144279   3.955   2.860  13.240 -1.3254  0.0939 -1.0191
 7596TIP3    H244280   3.835   2.784  13.292 -0.3910 -0.3941  0.4831
 7597TIP3   OH244281   1.298   0.458   6.332  0.4291 -0.3743  0.3729
 7597TIP3    H144282   1.262   0.418   6.252 -0.1075  1.5766 -0.4160
 7597TIP3    H244283   1.380   0.498   6.303  0.5029 -0.1274  0.9227
 7598TIP3   OH244284   1.279   2.221   1.369 -0.2285 -0.1028  0.1333
 7598TIP3    H144285   1.262   2.173   1.450 -1.2308 -0.8777 -0.4981
 7598TIP3    H244286   1.238   2.306   1.383 -0.7736 -0.3839  0.2942
 7599TIP3   OH244287   4.318   0.649   1.088 -0.2285 -0.0052  0.0699
 7599TIP3    H144288   4.328   0.744   1.087 -0.0625 -0.0216  0.0997
 7599TIP3    H244289   4.378   0.618   1.020  1.0350 -0.2082  1.2382
 7600TIP3   OH244290   2.692   1.103   3.130  0.5554  0.1610  0.1834
 7600TIP3    H144291   2.739   1.054   3.197  0.1366 -1.4433 -0.6482
 7600TIP3    H244292   2.638   1.165   3.179 -0.1399 -1.3292  1.3918
 7601TIP3   OH244293   1.752   2.622  28.144  0.6660  0.1509 -0.3696
 7601TIP3    H144294   1.825   2.560  28.152 -1.9541 -3.0553  1.2430
 7601TIP3    H244295   1.736   2.652  28.234 -0.7089 -0.1843 -0.4752
 7602TIP3   OH244296   1.668   0.296  30.381 -0.3035 -0.1940  0.0848
 7602TIP3    H144297   1.688   0.318  30.291  0.2417  0.1446  0.2844
 7602TIP3    H244298   1.720   0.217  30.398 -0.9111 -0.6436 -0.0933
 7603TIP3   OH244299   0.692   3.391  39.063 -0.1674  0.4885  0.2501
 7603TIP3    H144300   0.654   3.313  39.104  1.4395 -0.5886 -0.1937
 7603TIP3    H244301   0.733   3.439  39.135 -1.6901  1.2832  0.6209
 7604TIP3   OH244302   3.348   1.281  40.566  0.0547 -0.3387  0.3673
 7604TIP3    H144303   3.311   1.287  40.478  0.5816  0.9154  0.2043
 7604TIP3    H244304   3.277   1.313  40.623  0.2888  0.4964  0.2114
 7605TIP3   OH244305   0.152   1.245  29.769 -0.0826 -0.0243 -0.0264
 7605TIP3    H144306   0.120   1.223  29.681  0.4369 -1.1479  0.0552
 7605TIP3    H244307   0.143   1.164  29.819 -2.0022  1.0263  1.4721
 7606TIP3   OH244308   0.549   1.325  29.513 -0.9345 -0.4076  0.5272
 7606TIP3    H144309   0.483   1.392  29.530 -0.1902  0.2564  0.8686
 7606TIP3    H244310   0.515   1.276  29.439 -0.6498  1.5239 -0.9642
 7607TIP3   OH244311   3.460   3.313   3.377  0.1695  0.1864 -0.1899
 7607TIP3    H144312   3.476   3.362   3.458  0.1553  1.2551 -0.8153
 7607TIP3    H244313   3.524   3.348   3.315  2.4422 -2.8934  0.2039
 7608TIP3   OH244314   1.893   3.500  11.834  0.4386 -0.1820  0.0738
 7608TIP3    H144315   1.839   3.579  11.837  1.7147  0.7986 -1.2071
 7608TIP3    H244316   1.970   3.526  11.783  1.6150 -1.8326  0.9214
 7609TIP3   OH244317   1.212   1.232  41.088 -0.0630 -0.9637  0.0212
 7609TIP3    H144318   1.242   1.211  41.000 -0.9393 -1.7477 -0.1031
 7609TIP3    H244319   1.292   1.257  41.135  0.4183 -0.5751 -0.9675
 7610TIP3   OH244320   1.300   4.092  12.963 -0.0587 -0.0940 -0.1433
 7610TIP3    H144321   1.345   4.104  12.880  0.5200 -1.6664 -0.0928
 7610TIP3    H244322   1.230   4.030  12.944 -1.4038  1.2836  0.0763
 7611TIP3   OH244323   0.364   2.563  29.271 -0.1152 -0.3176 -0.7550
 7611TIP3    H144324   0.415   2.508  29.331 -0.5453  0.0581 -0.0246
 7611TIP3    H244325   0.418   2.640  29.256 -0.6501  0.3290  0.4424
 7612TIP3   OH244326   2.311   1.367  35.087 -0.0837  0.2091  0.2384
 7612TIP3    H144327   2.378   1.420  35.044  1.7428  0.0221  2.6150
 7612TIP3    H244328   2.314   1.394  35.179  0.2190 -3.1697  1.3686
 7613TIP3   OH244329   4.363   3.268  34.812 -0.4135  0.7542 -0.3007
 7613TIP3    H144330   4.315   3.242  34.733  1.3665  0.0085 -1.1697
 7613TIP3    H244331   4.294   3.294  34.874 -2.1684 -2.7323 -0.5388
 7614TIP3   OH244332   0.428   1.117  38.768 -0.0458 -0.3773  0.3005
 7614TIP3    H144333   0.471   1.035  38.746  0.7937 -0.2478  1.3195
 7614TIP3    H244334   0.335   1.096  38.773  0.3328 -1.8626  2.8109
 7615TIP3   OH244335   1.289   2.343   3.190  0.2496  0.7706  0.2623
 7615TIP3    H144336   1.323   2.360   3.102 -0.5589 -0.1175 -0.2382
 7615TIP3    H244337   1.200   2.310   3.176 -0.7538  2.7222  1.5201
 7616TIP3   OH244338   1.727   2.474   5.088 -0.1646 -0.0393  0.0321
 7616TIP3    H144339   1.823   2.481   5.089 -0.1296 -0.1781 -1.0397
 7616TIP3    H244340   1.701   2.514   5.006 -0.9685 -0.6950 -0.0468
 7617TIP3   OH244341   4.092   4.003  31.815 -0.3963 -0.5709 -0.3719
 7617TIP3    H144342   4.121   3.943  31.745  2.4454 -0.4510  0.5538
 7617TIP3    H244343   4.172   4.020  31.865 -0.2972  5.8500 -1.8329
 7618TIP3   OH244344   3.648   2.487  35.928  0.4871 -0.7523  0.1894
 7618TIP3    H144345   3.717   2.420  35.920  0.7990 -0.3845 -0.2622
 7618TIP3    H244346   3.658   2.541  35.850  1.0515  0.5914  1.1433
 7619TIP3   OH244347   3.111   2.765  13.087 -0.2753  0.3311  0.1649
 7619TIP3    H144348   3.052   2.825  13.135  0.6028  0.9053  0.5569
 7619TIP3    H244349   3.061   2.684  13.080 -0.3529  0.1203  2.3350
 7620TIP3   OH244350   0.178   1.202   0.175  0.7134  0.2475  0.1379
 7620TIP3    H144351   0.198   1.287   0.214  1.0470 -0.6273  2.0169
 7620TIP3    H244352   0.175   1.218   0.081 -0.7999  2.6261  0.5231
 7621TIP3   OH244353   3.588   0.080  31.051  0.3208  0.0355 -0.3332
 7621TIP3    H144354   3.521   0.148  31.058  0.3570  0.1864 -1.3044
 7621TIP3    H244355   3.554   0.008  31.104 -0.5276  0.1858 -0.6555
 7622TIP3   OH244356   0.106   1.039  11.769  0.0021 -0.3959 -0.1292
 7622TIP3    H144357   0.149   1.124  11.752 -0.6711  0.1586  0.8354
 7622TIP3    H244358   0.113   0.992  11.687 -0.3172  0.9192 -0.9436
 7623TIP3   OH244359   3.995   3.337  35.506 -0.0575 -0.2115  0.3136
 7623TIP3    H144360   4.028   3.318  35.594  0.2420 -0.2204  0.1971
 7623TIP3    H244361   3.909   3.295  35.504  1.2136 -3.0242 -0.4802
 7624TIP3   OH244362   2.050   1.728  30.147  0.0312 -0.3067  0.6269
 7624TIP3    H144363   1.997   1.696  30.220 -0.0526  0.7517  1.0516
 7624TIP3    H244364   2.094   1.650  30.113 -2.5551 -1.4360 -0.4175
 7625TIP3   OH244365   0.120   2.075  41.632  0.1233  0.4630  0.6050
 7625TIP3    H144366   0.098   2.032  41.549  0.6436 -0.4029  0.9022
 7625TIP3    H244367   0.168   2.154  41.606 -1.4684  1.3026  0.0271
 7626TIP3   OH244368   1.195   1.661  34.213  0.6534 -0.2615 -0.1498
 7626TIP3    H144369   1.124   1.610  34.251 -0.4416 -0.8168 -2.7307
 7626TIP3    H244370   1.267   1.651  34.275 -1.3079 -0.0143  2.3885
 7627TIP3   OH244371   0.565   3.149   7.231  0.0283 -0.3674  0.1952
 7627TIP3    H144372   0.574   3.244   7.223  0.0498 -0.2430  1.5541
 7627TIP3    H244373   0.501   3.126   7.163 -0.2696  0.6629  0.1036
 7628TIP3   OH244374   0.338   2.376   6.348  0.4307 -0.2366  0.0899
 7628TIP3    H144375   0.344   2.285   6.376  0.3593 -0.7607 -1.5035
 7628TIP3    H244376   0.247   2.400   6.366  0.5452 -0.3523  0.8588
 7629TIP3   OH244377   3.304   2.752   7.862  0.1367  0.5404 -0.3571
 7629TIP3    H144378   3.354   2.802   7.926 -0.3578  1.6157 -0.7933
 7629TIP3    H244379   3.340   2.664   7.867  1.0674  0.9505  0.3835
 7630TIP3   OH244380   0.301   2.133  33.055  0.5976  0.3806 -0.2638
 7630TIP3    H144381   0.390   2.165  33.067  0.9344  0.0341 -1.6084
 7630TIP3    H244382   0.275   2.100  33.141  2.2414 -0.7024 -0.1396
 7631TIP3   OH244383   0.945   0.767  38.476  0.0671 -0.1053  0.1051
 7631TIP3    H144384   0.878   0.716  38.430  1.4825 -1.7284 -0.2232
 7631TIP3    H244385   1.028   0.740  38.437  1.0222  1.2623  1.0596
 7632TIP3   OH244386   2.575   1.403   7.835  0.0216 -0.0588 -0.3484
 7632TIP3    H144387   2.576   1.412   7.931 -2.6946  2.4917 -0.4377
 7632TIP3    H244388   2.577   1.493   7.802  2.0078 -0.8854 -2.8234
 7633TIP3   OH244389   0.869   0.283  29.169 -0.7153  0.4644  0.0418
 7633TIP3    H144390   0.842   0.198  29.205 -1.5444  0.6747 -0.0513
 7633TIP3    H244391   0.847   0.346  29.238 -0.7465  0.6807 -0.1661
 7634TIP3   OH244392   0.422   0.952  21.223  0.6939  0.6210  0.2062
 7634TIP3    H144393   0.398   1.035  21.183  1.6654  0.6310 -0.3963
 7634TIP3    H244394   0.444   0.895  21.149  0.1955 -0.1229  0.6212
 7635TIP3   OH244395   1.748   4.389  35.056 -0.1305  0.4276  0.5625
 7635TIP3    H144396   1.681   4.342  35.104 -0.1563 -2.2413 -1.8226
 7635TIP3    H244397   1.831   4.357  35.092 -0.1297 -2.1543 -1.3789
 7636TIP3   OH244398   4.028   3.697  10.994 -0.3300  0.0450  0.1392
 7636TIP3    H144399   3.940   3.661  10.979 -0.8926  0.6912  1.6889
 7636TIP3    H244400   4.013   3.790  11.010  0.7100  0.2722 -0.1762
 7637TIP3   OH244401   3.602   3.812  12.879  0.0364 -0.2521  0.8341
 7637TIP3    H144402   3.691   3.783  12.902 -0.5222 -1.6359  1.3566
 7637TIP3    H244403   3.554   3.731  12.863 -1.3055  0.4480  1.1901
 7638TIP3   OH244404   0.720   1.329  33.084 -1.6017 -0.1879 -0.1375
 7638TIP3    H144405   0.638   1.325  33.035 -0.1179 -0.5470 -2.7606
 7638TIP3    H244406   0.779   1.382  33.029 -0.0333  0.0016  1.6120
 7639TIP3   OH244407   1.568   2.994  38.926 -0.5409 -0.1544 -0.1108
 7639TIP3    H144408   1.498   2.935  38.954 -0.1940 -0.7484 -0.4875
 7639TIP3    H244409   1.539   3.080  38.956 -0.6482 -0.6216  1.2242
 7640TIP3   OH244410   2.322   4.318  41.407  0.6224 -0.1682 -0.8802
 7640TIP3    H144411   2.360   4.317  41.495  0.8596 -1.8678 -0.9561
 7640TIP3    H244412   2.279   4.403  41.400 -0.1932 -0.3396  1.2322
 7641TIP3   OH244413   3.310   1.144   9.020  0.0722 -0.0523  0.1272
 7641TIP3    H144414   3.401   1.173   9.024  0.6295 -1.8517  1.4091
 7641TIP3    H244415   3.304   1.095   8.938  0.3772 -0.2894  0.2441
 7642TIP3   OH244416   4.108   3.317   8.710  0.3472  0.4145  0.2286
 7642TIP3    H144417   4.044   3.248   8.696  0.3455 -0.0713  2.3257
 7642TIP3    H244418   4.190   3.272   8.728  0.6269  0.9855  0.4296
 7643TIP3   OH244419   2.631   4.223   8.836  0.6245 -0.0019 -0.1365
 7643TIP3    H144420   2.661   4.313   8.833  2.0825 -0.4662 -0.4243
 7643TIP3    H244421   2.618   4.199   8.745 -0.7551  0.2123 -0.0123
 7644TIP3   OH244422   2.418   1.562   8.619  0.3253 -0.3440 -0.0691
 7644TIP3    H144423   2.476   1.555   8.695  0.3860 -0.5742 -0.1363
 7644TIP3    H244424   2.351   1.625   8.646  1.1194  0.6439 -0.3200
 7645TIP3   OH244425   1.909   3.914  38.187  0.0318 -0.4905  0.2300
 7645TIP3    H144426   1.855   3.861  38.129 -0.0029 -1.0260  0.7375
 7645TIP3    H244427   1.999   3.900  38.156  0.1825 -2.0368  1.2467
 7646TIP3   OH244428   2.403   0.305  35.745 -0.4260  0.3317  0.5129
 7646TIP3    H144429   2.472   0.329  35.807 -0.2286 -2.0650  1.3249
 7646TIP3    H244430   2.330   0.277  35.800 -1.0300  0.1570 -0.3616
 7647TIP3   OH244431   0.956   1.999  28.536 -0.2848  0.2617 -0.2444
 7647TIP3    H144432   0.908   1.984  28.455  0.8284  1.3502 -1.1463
 7647TIP3    H244433   0.916   2.077  28.574 -0.1112  0.3753 -0.2946
 7648TIP3   OH244434   3.493   1.453  29.359 -0.0486 -0.3165 -0.2633
 7648TIP3    H144435   3.464   1.544  29.354  3.7721  1.0779 -0.8290
 7648TIP3    H244436   3.489   1.422  29.269  0.9256  0.1830 -0.4958
 7649TIP3   OH244437   2.287   0.785   4.127  0.5765  0.3924  0.2086
 7649TIP3    H144438   2.379   0.798   4.150  0.7725 -1.4530  0.6618
 7649TIP3    H244439   2.245   0.868   4.147  1.9246  0.8825  1.1759
 7650TIP3   OH244440   2.538   1.925   4.320  0.2703 -0.3892  0.3798
 7650TIP3    H144441   2.532   2.003   4.376  2.6600 -0.2648  0.5558
 7650TIP3    H244442   2.574   1.958   4.237  0.2526 -1.1340  0.0681
 7651TIP3   OH244443   1.932   0.946   0.489 -0.4350  0.4890  0.0256
 7651TIP3    H144444   1.917   0.857   0.459 -0.2619  0.2512  0.6214
 7651TIP3    H244445   1.922   1.001   0.411  1.7177 -0.2565 -0.8212
 7652TIP3   OH244446   0.390   2.335  40.105  0.2619  0.5547  0.3422
 7652TIP3    H144447   0.414   2.273  40.037 -1.3723  1.2554 -0.9322
 7652TIP3    H244448   0.405   2.421  40.066  1.7805  1.0140  1.8223
 7653TIP3   OH244449   4.062   3.742   8.586 -0.0022 -0.1686 -0.1918
 7653TIP3    H144450   3.982   3.793   8.577 -1.1967 -1.9877 -0.4057
 7653TIP3    H244451   4.084   3.748   8.679  0.0638  0.9520 -0.2658
 7654TIP3   OH244452   2.777   3.509   1.685  0.5706 -0.8593 -0.2999
 7654TIP3    H144453   2.817   3.441   1.740  0.3631 -1.6103 -1.0702
 7654TIP3    H244454   2.844   3.578   1.682  0.7455 -0.9744  0.5663
 7655TIP3   OH244455   0.883   3.731  27.687 -0.8096  0.2041  0.2922
 7655TIP3    H144456   0.838   3.812  27.713  1.0578  2.2665 -2.2744
 7655TIP3    H244457   0.975   3.748  27.707 -0.6284 -2.3942  2.0236
 7656TIP3   OH244458   3.177   0.484  12.729  0.1363 -0.4202  0.2669
 7656TIP3    H144459   3.163   0.390  12.741 -2.9887 -0.1411 -0.4296
 7656TIP3    H244460   3.144   0.524  12.809  0.7027  0.1563  0.2244
 7657TIP3   OH244461   3.946   3.489   7.324 -0.2005  0.3314 -0.0417
 7657TIP3    H144462   3.964   3.502   7.418  0.5013  0.9738 -0.2537
 7657TIP3    H244463   3.880   3.556   7.303  1.4911  1.9006 -0.5496
 7658TIP3   OH244464   2.447   4.024  27.832  0.1335 -0.4107  0.1885
 7658TIP3    H144465   2.491   4.031  27.917 -1.0148 -0.1537  0.7863
 7658TIP3    H244466   2.395   3.944  27.839 -0.8487  0.2081  0.1704
 7659TIP3   OH244467   2.217   2.864   9.095  0.3420 -0.4393 -0.2071
 7659TIP3    H144468   2.286   2.798   9.095  0.1002 -0.7028 -0.8547
 7659TIP3    H244469   2.189   2.870   9.003  0.1108  0.3009 -0.0948
 7660TIP3   OH244470   4.212   0.326  27.128 -0.3063 -0.0250 -0.4774
 7660TIP3    H144471   4.301   0.299  27.107 -0.4873 -1.3962  0.4314
 7660TIP3    H244472   4.208   0.329  27.223 -1.2602 -0.0764 -0.4974
 7661TIP3   OH244473   4.218   1.186  25.909  0.9275  0.5592  0.0497
 7661TIP3    H144474   4.280   1.160  25.840 -0.8923 -2.0744 -0.7618
 7661TIP3    H244475   4.183   1.102  25.942 -1.7400  1.8978  0.8938
 7662TIP3   OH244476   0.906   2.421  38.160  0.5426 -0.3303 -0.7502
 7662TIP3    H144477   0.985   2.435  38.212 -0.2365 -0.7751  0.5946
 7662TIP3    H244478   0.853   2.499  38.175 -0.5644 -1.3147  0.8104
 7663TIP3   OH244479   1.243   0.766  29.718  0.0732  0.3713  0.0524
 7663TIP3    H144480   1.250   0.794  29.810  1.4545 -0.3962  0.2087
 7663TIP3    H244481   1.298   0.688  29.713 -0.2967  0.1839 -1.3538
 7664TIP3   OH244482   3.932   0.474  41.063 -0.4077  0.2032 -0.4232
 7664TIP3    H144483   4.024   0.502  41.065 -0.4543  0.6415 -2.4117
 7664TIP3    H244484   3.936   0.379  41.071  0.2820  0.1547 -1.2046
 7665TIP3   OH244485   0.818   3.028  10.593  0.5107 -0.2141 -1.1223
 7665TIP3    H144486   0.877   2.961  10.560  0.8000 -0.7976  0.5038
 7665TIP3    H244487   0.749   3.034  10.526  2.1876  0.2620 -2.8927
 7666TIP3   OH244488   3.630   3.712   0.720 -0.6451 -0.3614 -0.4579
 7666TIP3    H144489   3.716   3.730   0.758 -0.7203 -1.4130  0.2696
 7666TIP3    H244490   3.649   3.675   0.634 -0.3171 -1.2335 -0.0290
 7667TIP3   OH244491   4.282   0.665  41.494 -0.2520  0.2363  0.8225
 7667TIP3    H144492   4.301   0.755  41.521  0.5295 -0.4616  2.8066
 7667TIP3    H244493   4.198   0.671  41.450  0.3535  2.1148 -0.2110
 7668TIP3   OH244494   4.011   0.248  12.045 -0.3682 -0.6980  0.2131
 7668TIP3    H144495   4.051   0.272  12.128  0.3480  0.2983 -0.4038
 7668TIP3    H244496   3.920   0.229  12.068  0.2377 -2.3195  1.5165
 7669TIP3   OH244497   0.332   3.028   8.704  0.6921 -0.8260 -0.6335
 7669TIP3    H144498   0.422   3.047   8.679  1.3602 -1.0225  1.4756
 7669TIP3    H244499   0.330   2.934   8.720  0.4118 -0.6470  0.4315
 7670TIP3   OH244500   2.417   2.989  11.503  0.3583  0.1176 -0.8872
 7670TIP3    H144501   2.332   3.026  11.526 -0.1129 -0.4541 -1.6731
 7670TIP3    H244502   2.434   2.922  11.569  0.9825  1.3470  0.2474
 7671TIP3   OH244503   1.464   4.236  31.513  0.2549  0.4415 -0.5469
 7671TIP3    H144504   1.531   4.260  31.449 -1.9045  1.5770 -2.5516
 7671TIP3    H244505   1.424   4.156  31.477  0.1281  0.1330  0.2732
 7672TIP3   OH244506   1.766   0.601   2.239 -0.1139  0.2193 -0.3923
 7672TIP3    H144507   1.747   0.646   2.321 -2.7215  0.0563 -0.8259
 7672TIP3    H244508   1.815   0.523   2.265  0.8340  1.1694  0.7691
 7673TIP3   OH244509   3.512   1.536   0.166 -0.0279  0.2373 -0.2905
 7673TIP3    H144510   3.502   1.631   0.179  0.5475  0.3278 -0.5181
 7673TIP3    H244511   3.556   1.528   0.082  0.8477 -0.1997  0.2031
 7674TIP3   OH244512   2.586   4.218  28.422 -0.2092 -0.3093 -0.3364
 7674TIP3    H144513   2.592   4.128  28.390 -1.0817 -0.2647 -0.6577
 7674TIP3    H244514   2.511   4.217  28.481 -1.5953  0.6697 -1.9919
 7675TIP3   OH244515   2.991   1.774  35.385  0.0451  0.2685 -0.1695
 7675TIP3    H144516   2.903   1.799  35.355  0.8524  0.2988 -2.6888
 7675TIP3    H244517   2.975   1.710  35.454 -1.9557  1.1375  0.2587
 7676TIP3   OH244518   1.729   3.891   7.631  0.2342  0.0479  0.3071
 7676TIP3    H144519   1.665   3.945   7.584  1.1623  2.2485  1.4489
 7676TIP3    H244520   1.789   3.859   7.563 -0.9634 -0.5180 -0.5223
 7677TIP3   OH244521   1.396   0.110   0.992 -0.4550 -0.1143  0.0873
 7677TIP3    H144522   1.404   0.014   0.991  0.7366 -0.0279  0.4541
 7677TIP3    H244523   1.486   0.142   0.982 -0.8303  0.9745  0.0872
 7678TIP3   OH244524   0.379   3.958  31.912  0.4435  0.0051  0.6798
 7678TIP3    H144525   0.297   4.008  31.911 -0.3832 -1.3118 -0.4791
 7678TIP3    H244526   0.352   3.867  31.911  1.8939 -0.4689 -1.0531
 7679TIP3   OH244527   3.999   1.498  29.062  0.5408  0.1067  0.3667
 7679TIP3    H144528   3.963   1.573  29.014 -1.6413 -0.4314  1.0308
 7679TIP3    H244529   4.093   1.499  29.043  0.1504  1.4417 -1.7586
 7680TIP3   OH244530   0.627   0.235  37.526  0.5687 -0.5087 -0.4742
 7680TIP3    H144531   0.584   0.274  37.601  0.9637 -1.4680  0.2720
 7680TIP3    H244532   0.672   0.158  37.561 -0.2878 -1.7181 -1.8912
 7681TIP3   OH244533   1.579   2.829  13.459  0.2194 -0.3884  0.5289
 7681TIP3    H144534   1.663   2.838  13.504  1.0324  2.9798 -1.3672
 7681TIP3    H244535   1.543   2.917  13.456 -2.9472 -1.5556  0.3099
 7682TIP3   OH244536   3.193   1.490  32.451  0.2302  0.1686 -0.0039
 7682TIP3    H144537   3.163   1.541  32.375  1.7340  1.9556  0.5387
 7682TIP3    H244538   3.189   1.399  32.421 -0.0927  0.7536 -1.9132
 7683TIP3   OH244539   1.535   0.534   0.114 -0.2916 -0.6926 -0.2094
 7683TIP3    H144540   1.444   0.554   0.094  0.2674  0.8501 -1.4598
 7683TIP3    H244541   1.534   0.445   0.149 -2.1823 -0.9583 -0.8653
 7684TIP3   OH244542   3.092   3.605  10.607  0.5096 -1.0996 -0.1824
 7684TIP3    H144543   3.016   3.663  10.602 -0.3309 -2.1184  0.3512
 7684TIP3    H244544   3.165   3.663  10.630  0.0690  0.0199 -1.4796
 7685TIP3   OH244545   0.307   1.790  30.494  0.0773 -0.1294 -0.2846
 7685TIP3    H144546   0.329   1.724  30.561 -0.7922  0.0034  0.1451
 7685TIP3    H244547   0.214   1.775  30.476 -0.1124  0.9215 -0.2446
 7686TIP3   OH244548   3.574   1.817   3.460  0.6351 -0.0686 -0.1601
 7686TIP3    H144549   3.523   1.829   3.380  0.9733  0.1637 -0.3429
 7686TIP3    H244550   3.540   1.736   3.499 -2.0598  1.6256  1.3375
 7687TIP3   OH244551   3.437   1.347   6.682  0.0945  0.2337 -0.0435
 7687TIP3    H144552   3.383   1.280   6.640 -0.5703  0.8134 -0.1336
 7687TIP3    H244553   3.489   1.299   6.746 -1.5223 -0.1883  1.0293
 7688TIP3   OH244554   0.166   1.603   9.591  0.4036 -0.0971  0.1213
 7688TIP3    H144555   0.128   1.604   9.679 -0.9968 -0.3928 -0.4586
 7688TIP3    H244556   0.093   1.623   9.532  1.4664  0.8440 -0.9399
 7689TIP3   OH244557   2.006   0.815  11.113  0.1100 -0.0720 -0.7058
 7689TIP3    H144558   2.002   0.809  11.018  0.0787  3.0490 -1.0169
 7689TIP3    H244559   2.042   0.731  11.141  0.4978 -0.9332 -3.4884
 7690TIP3   OH244560   0.501   0.896  12.768  0.1338 -0.0871 -0.3173
 7690TIP3    H144561   0.443   0.972  12.779  0.7374  0.2215  0.9875
 7690TIP3    H244562   0.535   0.904  12.679 -0.2819  0.8408 -0.4015
 7691TIP3   OH244563   0.578   1.770   8.649 -0.3183 -0.5224  0.1340
 7691TIP3    H144564   0.558   1.829   8.722 -0.6159  0.5840 -0.8194
 7691TIP3    H244565   0.648   1.714   8.683 -0.1757  0.2235  1.1392
 7692TIP3   OH244566   0.844   0.761  40.702  0.1369  0.3114  0.4407
 7692TIP3    H144567   0.884   0.692  40.754 -0.1934  0.3251  0.7167
 7692TIP3    H244568   0.916   0.798  40.651  0.6840  0.9923  1.6519
 7693TIP3   OH244569   2.569   3.754  32.768  0.4271  0.3039  0.2990
 7693TIP3    H144570   2.643   3.798  32.809  1.8400 -2.4575  0.9304
 7693TIP3    H244571   2.503   3.748  32.837  0.8764 -0.0321  0.7032
 7694TIP3   OH244572   1.553   0.417  17.730 -0.2959  0.2942  0.4429
 7694TIP3    H144573   1.495   0.365  17.784 -0.6868 -1.5517 -1.6165
 7694TIP3    H244574   1.497   0.453  17.661  0.3131  1.9220  0.7409
 7695TIP3   OH244575   0.326   2.779  11.875  0.1824 -0.0725  0.5023
 7695TIP3    H144576   0.303   2.872  11.880  2.4502  0.6920 -1.4439
 7695TIP3    H244577   0.260   2.735  11.929 -2.2634  2.4177 -0.2355
 7696TIP3   OH244578   2.468   2.971  13.062  0.2611  0.3474  0.0078
 7696TIP3    H144579   2.543   2.995  13.009  0.1728 -0.1446 -0.3412
 7696TIP3    H244580   2.421   2.906  13.010 -0.6833  1.0213 -0.0071
 7697TIP3   OH244581   2.438   0.927  13.243  0.3690 -0.2830 -0.0046
 7697TIP3    H144582   2.436   1.019  13.269  0.8954 -0.5723  1.1013
 7697TIP3    H244583   2.351   0.894  13.268  0.7234 -0.4549  1.0602
 7698TIP3   OH244584   2.011   3.806   1.202  0.2181  0.0276  0.1671
 7698TIP3    H144585   1.945   3.744   1.231  1.1554 -1.3419 -0.5087
 7698TIP3    H244586   1.962   3.875   1.158 -0.7789 -0.8765 -0.1840
 7699TIP3   OH244587   0.917   1.137  37.606 -0.4938 -0.1706 -0.3252
 7699TIP3    H144588   0.925   1.111  37.698 -0.3540  0.2582 -0.2141
 7699TIP3    H244589   0.891   1.057  37.561  0.8570 -0.7471 -0.1417
 7700TIP3   OH244590   0.573   3.912   2.218 -0.2443 -0.3520  0.2182
 7700TIP3    H144591   0.620   3.833   2.245  2.0024  0.1177 -1.9057
 7700TIP3    H244592   0.596   3.923   2.125 -3.3019  0.9068 -0.5172
 7701TIP3   OH244593   1.681   4.087  16.468  0.0104 -0.0155 -0.5619
 7701TIP3    H144594   1.732   4.094  16.549 -0.7445 -0.7152 -0.0013
 7701TIP3    H244595   1.621   4.014  16.484  0.0265 -0.3394 -1.8580
 7702TIP3   OH244596   4.121   1.195  10.458 -0.0924  0.3497  0.2916
 7702TIP3    H144597   4.093   1.115  10.413  0.2774 -0.9550  2.2580
 7702TIP3    H244598   4.215   1.199  10.442  0.0845 -0.2569  1.1040
 7703TIP3   OH244599   0.704   3.581  26.554 -0.0022 -0.1094  0.2393
 7703TIP3    H144600   0.626   3.579  26.610 -0.9955  0.0849 -1.0714
 7703TIP3    H244601   0.689   3.654  26.495  1.5925  0.4450  0.4792
 7704TIP3   OH244602   4.335   3.475   4.119 -0.6471  0.0435  0.6497
 7704TIP3    H144603   4.349   3.381   4.110  0.7330  0.2294  0.6965
 7704TIP3    H244604   4.298   3.502   4.035  1.3026 -0.1483 -0.3194
 7705TIP3   OH244605   2.129   3.412  39.262 -0.6962  0.9228 -0.7538
 7705TIP3    H144606   2.066   3.427  39.332  0.1233 -0.0541  0.2212
 7705TIP3    H244607   2.108   3.325  39.228  0.4147  0.3559 -0.0599
 7706TIP3   OH244608   3.193   0.723   8.599  0.1732 -0.1277 -0.0054
 7706TIP3    H144609   3.192   0.705   8.693  1.9821  1.9038  0.4967
 7706TIP3    H244610   3.136   0.798   8.588 -0.3428 -0.6022 -0.6091
 7707TIP3   OH244611   1.318   2.884   2.383 -1.1690  0.4498  0.4661
 7707TIP3    H144612   1.249   2.871   2.449 -0.7200 -0.4512  0.7628
 7707TIP3    H244613   1.396   2.844   2.421 -0.4076  1.6530  0.2260
 7708TIP3   OH244614   3.677   0.326  28.629  0.0046 -0.0334  0.7148
 7708TIP3    H144615   3.599   0.311  28.682 -1.8236 -1.3845 -2.0767
 7708TIP3    H244616   3.659   0.407  28.582 -1.1972 -1.7301 -2.0330
 7709TIP3   OH244617   0.008   4.371   3.230 -0.2213 -0.0831 -0.2297
 7709TIP3    H144618  -0.078   4.363   3.189 -0.1443 -0.1838 -0.3696
 7709TIP3    H244619  -0.007   4.431   3.303 -0.3841 -0.0027 -0.3271
 7710TIP3   OH244620   2.752   0.666  13.304 -0.2523 -0.0226  0.1946
 7710TIP3    H144621   2.697   0.737  13.335  0.1434  0.5517 -0.3873
 7710TIP3    H244622   2.834   0.708  13.278 -0.1054 -0.6497 -0.4019
 7711TIP3   OH244623   0.459   0.452  26.819  0.3826 -0.2495  0.1564
 7711TIP3    H144624   0.493   0.467  26.731 -1.6311  1.8417 -0.3614
 7711TIP3    H244625   0.399   0.378  26.810  0.2365 -0.0880 -0.2287
 7712TIP3   OH244626   4.353   3.858   2.045  0.0579 -0.5341  0.0006
 7712TIP3    H144627   4.368   3.925   1.978  2.0324 -1.5357 -0.6033
 7712TIP3    H244628   4.260   3.866   2.065 -0.4635  0.2294 -2.3885
 7713TIP3   OH244629   2.242   4.127  36.979  0.6604  0.0083 -0.0862
 7713TIP3    H144630   2.326   4.149  36.938  2.3695 -2.6363  1.6702
 7713TIP3    H244631   2.249   4.162  37.068 -2.6690  4.9557 -1.3204
 7714TIP3   OH244632   1.553   1.092  11.599  0.0439  0.2984 -0.6135
 7714TIP3    H144633   1.522   1.154  11.665 -1.2850  0.4340 -1.3357
 7714TIP3    H244634   1.473   1.058  11.559  0.7828 -1.0629 -0.9839
 7715TIP3   OH244635   3.662   0.116  11.553 -0.3817 -0.2445 -0.5146
 7715TIP3    H144636   3.655   0.107  11.648  0.6002 -0.7095 -0.4697
 7715TIP3    H244637   3.651   0.027  11.520  3.9905 -1.0111 -0.4634
 7716TIP3   OH244638   1.087   1.252  29.895  0.6515  0.0714 -0.3720
 7716TIP3    H144639   1.106   1.172  29.846  1.8533  0.3267 -0.3538
 7716TIP3    H244640   1.032   1.304  29.837 -0.1897 -0.7840 -0.3592
 7717TIP3   OH244641   1.838   0.380  15.944  0.1720 -0.1067  0.4677
 7717TIP3    H144642   1.797   0.326  16.011 -0.5229 -0.6404 -0.3690
 7717TIP3    H244643   1.771   0.389  15.876  1.1208 -0.2151 -0.5035
 7718TIP3   OH244644   1.950   0.310  11.262  0.2116 -0.3237  0.5273
 7718TIP3    H144645   1.872   0.290  11.314 -0.4914  0.1236 -0.3266
 7718TIP3    H244646   1.917   0.359  11.187  1.0580 -1.7850 -0.8632
 7719TIP3   OH244647   2.540   0.003  39.729  0.1091  0.3878  0.4728
 7719TIP3    H144648   2.511   0.057  39.802  0.2819  1.4132 -0.1950
 7719TIP3    H244649   2.555  -0.083  39.768 -1.5746  0.4145  1.2781
 7720TIP3   OH244650   3.606   4.044  11.535 -0.0014  0.4665  0.4522
 7720TIP3    H144651   3.669   3.981  11.570  0.0442 -0.1977 -0.7743
 7720TIP3    H244652   3.522   3.997  11.539 -0.3712  1.1755  1.6355
 7721TIP3   OH244653   1.647   0.261  38.866 -0.2691  0.6052  0.6920
 7721TIP3    H144654   1.707   0.205  38.916 -1.0223 -1.8530 -0.9366
 7721TIP3    H244655   1.560   0.238  38.900 -0.6115  0.5689 -0.1860
 7722TIP3   OH244656   3.158   0.759   0.190  1.1547  0.1353  0.0265
 7722TIP3    H144657   3.253   0.747   0.196  1.3718  1.4854 -0.3057
 7722TIP3    H244658   3.132   0.709   0.113  1.6646  0.0515 -0.0973
 7723TIP3   OH244659   3.965   0.410   9.211  0.2781 -0.8563  0.3183
 7723TIP3    H144660   3.876   0.440   9.226  0.0944 -0.3236 -1.5386
 7723TIP3    H244661   4.018   0.458   9.275 -0.5760  0.0768  0.3500
 7724TIP3   OH244662   4.191   1.923  12.593 -0.3184  0.5099  0.1549
 7724TIP3    H144663   4.153   1.844  12.554 -2.1580  2.2751 -1.9219
 7724TIP3    H244664   4.116   1.978  12.615  0.9115  1.7571  1.4377
 7725TIP3   OH244665   1.931   2.256  18.288  0.0134 -0.2616  0.3910
 7725TIP3    H144666   1.993   2.329  18.295 -1.6818  1.2333  0.3877
 7725TIP3    H244667   1.902   2.241  18.378  0.5824 -1.1915  0.4415
 7726TIP3   OH244668   1.407   2.429   8.892 -0.1451  0.4504 -0.1310
 7726TIP3    H144669   1.400   2.452   8.985 -1.4822  3.8025 -0.9082
 7726TIP3    H244670   1.489   2.470   8.864  1.0783 -1.8923 -0.1873
 7727TIP3   OH244671   2.804   3.820   7.322 -0.3233 -0.5528  0.3571
 7727TIP3    H144672   2.769   3.822   7.411  0.0563 -0.8529  0.5150
 7727TIP3    H244673   2.897   3.804   7.333 -0.2202 -0.2744 -0.0827
 7728TIP3   OH244674   2.695   2.908  28.771  0.2175 -0.5799 -0.1737
 7728TIP3    H144675   2.668   2.841  28.708  0.1895 -0.3340 -0.4216
 7728TIP3    H244676   2.775   2.872  28.811  1.0378 -0.1126 -1.3499
 7729TIP3   OH244677   1.592   0.345  11.686  0.3722 -0.4626 -0.2034
 7729TIP3    H144678   1.662   0.335  11.621  0.8499  2.9213 -0.4009
 7729TIP3    H244679   1.512   0.346  11.634  0.4104 -1.3531 -0.2996
 7730TIP3   OH244680   2.546   3.998  28.201  0.1532 -0.2532 -0.2405
 7730TIP3    H144681   2.504   3.927  28.250  1.4415 -1.0990 -0.2917
 7730TIP3    H244682   2.477   4.062  28.186 -0.3611 -0.0434  2.4930
 7731TIP3   OH244683   2.881   4.269   3.626  0.5465 -0.1848  0.1845
 7731TIP3    H144684   2.969   4.274   3.663  0.9743 -0.3162 -0.7891
 7731TIP3    H244685   2.855   4.360   3.612  1.5309 -0.1733 -1.8110
 7732TIP3   OH244686   3.864   3.922  41.279  0.6251 -0.2388  0.0101
 7732TIP3    H144687   3.922   3.871  41.338  1.5418  1.3527  0.5489
 7732TIP3    H244688   3.898   3.904  41.192  1.0343 -0.4498  0.2071
 7733TIP3   OH244689   0.435   0.973  10.649  0.6720  0.3880 -0.2623
 7733TIP3    H144690   0.450   0.976  10.554  0.3639 -0.3020 -0.3374
 7733TIP3    H244691   0.500   1.034  10.685  0.3439  1.1724 -0.9602
 7734TIP3   OH244692   3.682   0.225   5.407  0.4984  0.7773  0.2250
 7734TIP3    H144693   3.598   0.251   5.446  0.7137  1.6940  0.1153
 7734TIP3    H244694   3.663   0.213   5.314  0.1130 -0.8140  0.4871
 7735TIP3   OH244695   1.451   2.214   8.707  0.5220 -0.2828  0.0985
 7735TIP3    H144696   1.404   2.274   8.766  1.8353 -0.1372  1.0271
 7735TIP3    H244697   1.466   2.266   8.628 -0.1055 -0.0488  0.1255
 7736TIP3   OH244698   3.545   1.984  41.480 -0.3121  0.3563  0.6129
 7736TIP3    H144699   3.482   2.045  41.518 -1.9700 -0.4836 -0.6924
 7736TIP3    H244700   3.618   2.040  41.453 -2.1365  1.9845 -1.3082
 7737TIP3   OH244701   2.410   2.728   7.131 -0.1179  0.0493  0.9777
 7737TIP3    H144702   2.448   2.643   7.107  1.0869  0.9645 -0.5156
 7737TIP3    H244703   2.421   2.732   7.226  1.6319 -0.6531  0.8540
 7738TIP3   OH244704   0.177   4.326   3.587  0.1420  0.0022 -0.4250
 7738TIP3    H144705   0.215   4.326   3.500  0.8030  0.8625 -0.1442
 7738TIP3    H244706   0.241   4.372   3.642 -0.9906  0.9001  0.1913
 7739TIP3   OH244707   2.645   1.479  11.243  0.4421  0.7411 -0.5735
 7739TIP3    H144708   2.558   1.487  11.202 -0.8998 -3.3376  0.9444
 7739TIP3    H244709   2.702   1.452  11.171 -0.5278 -0.4766 -0.9352
 7740TIP3   OH244710   4.042   2.685  31.307 -0.4171 -0.0321 -0.0211
 7740TIP3    H144711   4.122   2.705  31.355  0.2284 -0.7179 -0.7736
 7740TIP3    H244712   3.973   2.684  31.373  0.3235 -0.2090  0.7590
 7741TIP3   OH244713   3.084   1.461   7.047  0.3351  0.4157 -0.1436
 7741TIP3    H144714   3.094   1.481   6.953  1.5691  2.0889  0.2852
 7741TIP3    H244715   3.172   1.472   7.083 -0.1279 -0.1744  1.2323
 7742TIP3   OH244716   3.788   1.700  12.795  0.2782 -0.0397  0.4121
 7742TIP3    H144717   3.755   1.636  12.732 -2.8624 -0.1874  1.9726
 7742TIP3    H244718   3.756   1.784  12.763 -0.8683 -0.0543  1.3991
 7743TIP3   OH244719   1.455   3.616   3.818 -0.1518 -0.3851 -0.0098
 7743TIP3    H144720   1.431   3.537   3.867 -0.7398 -0.4340 -0.3709
 7743TIP3    H244721   1.538   3.644   3.857 -0.9207 -0.0578  1.4432
 7744TIP3   OH244722   0.752   1.195  33.611 -0.2880  0.1152 -0.1451
 7744TIP3    H144723   0.662   1.187  33.579 -0.7597  2.0768  0.5404
 7744TIP3    H244724   0.758   1.285  33.642  1.9852  0.0900 -0.3432
 7745TIP3   OH244725   3.809   0.940  40.044 -0.4312 -0.5030 -0.6016
 7745TIP3    H144726   3.827   0.862  40.096 -0.4716 -0.3670 -0.3829
 7745TIP3    H244727   3.889   0.992  40.050  0.0766 -1.0983 -1.7894
 7746TIP3   OH244728   3.981   2.739  29.453  0.2411 -0.3073 -0.2493
 7746TIP3    H144729   4.059   2.733  29.398 -1.0691  0.4008 -2.2747
 7746TIP3    H244730   3.938   2.820  29.426 -0.9914 -0.4600  1.1258
 7747TIP3   OH244731   3.902   3.503  11.567 -0.2356 -0.4759  0.1473
 7747TIP3    H144732   3.906   3.596  11.545 -1.5677 -0.6740 -1.1389
 7747TIP3    H244733   3.971   3.463  11.514 -1.4169 -0.5374 -1.4157
 7748TIP3   OH244734   1.946   3.620   7.372 -1.0529 -0.5967  0.3087
 7748TIP3    H144735   1.873   3.585   7.423 -1.5908 -2.5949 -1.6497
 7748TIP3    H244736   1.907   3.642   7.287  0.1151  1.0283  0.1431
 7749TIP3   OH244737   2.326   0.701  38.150 -0.0503  0.1757 -1.1641
 7749TIP3    H144738   2.243   0.660  38.178  0.4708  0.6730  1.4297
 7749TIP3    H244739   2.391   0.631  38.156  0.3272  0.6144  0.4871
 7750TIP3   OH244740   1.586   2.128  12.690 -0.1330  0.1695  0.5212
 7750TIP3    H144741   1.507   2.075  12.680 -0.4884  0.2463  2.5253
 7750TIP3    H244742   1.583   2.190  12.617 -0.8302 -1.1476 -0.6146
 7751TIP3   OH244743   4.272   3.774   8.391  0.0620  0.0714  0.0708
 7751TIP3    H144744   4.190   3.772   8.441  0.6059  0.7673  1.0169
 7751TIP3    H244745   4.280   3.865   8.362  0.9157  0.2151  0.7132
 7752TIP3   OH244746   3.063   0.024  35.066  0.1053  0.3091  0.0862
 7752TIP3    H144747   3.079   0.059  35.154 -0.5756  1.4867 -0.2236
 7752TIP3    H244748   2.968   0.014  35.061  0.1866 -0.3240 -0.3169
 7753TIP3   OH244749   1.369   1.594  10.202  0.2522 -0.0377  0.0746
 7753TIP3    H144750   1.401   1.523  10.257 -2.3710 -1.6516 -0.3227
 7753TIP3    H244751   1.342   1.662  10.264 -0.1162 -0.7028  0.6662
 7754TIP3   OH244752   3.317   2.120  24.766  0.4561  0.1633  0.5859
 7754TIP3    H144753   3.296   2.045  24.822  1.6593 -0.7922 -0.1861
 7754TIP3    H244754   3.350   2.080  24.685 -0.0528  1.5285 -0.3253
 7755TIP3   OH244755   0.722   4.203  30.691 -0.2291 -0.5418 -0.1746
 7755TIP3    H144756   0.798   4.158  30.655 -0.2426 -0.1245 -0.7529
 7755TIP3    H244757   0.759   4.270  30.748 -0.1351 -0.0690 -0.7746
 7756TIP3   OH244758   4.280   2.462   7.281 -0.4398 -0.5507  0.0937
 7756TIP3    H144759   4.305   2.370   7.272  0.9884 -0.1569 -0.0947
 7756TIP3    H244760   4.280   2.477   7.376  0.0733 -0.5527  0.0972
 7757TIP3   OH244761   2.169   2.451   2.538  0.6157 -0.3878  0.1952
 7757TIP3    H144762   2.261   2.444   2.513  0.2959 -0.0265 -1.1720
 7757TIP3    H244763   2.127   2.375   2.497  0.3096 -0.5784  0.8521
 7758TIP3   OH244764   3.359   3.618  36.133 -0.2867 -0.1878 -0.0543
 7758TIP3    H144765   3.355   3.656  36.221  0.4095 -1.0639  0.3671
 7758TIP3    H244766   3.442   3.648  36.097  1.1171 -2.5804  0.9287
 7759TIP3   OH244767   3.137   2.987  12.573  0.3181 -0.2978 -0.1168
 7759TIP3    H144768   3.164   2.901  12.540 -0.6046 -0.8249  0.4566
 7759TIP3    H244769   3.047   2.974  12.602 -0.5591  1.3664 -1.8688
 7760TIP3   OH244770   0.029   2.483  26.525  0.0191  0.3929 -0.1680
 7760TIP3    H144771   0.113   2.451  26.558 -0.2944 -0.2131  0.0647
 7760TIP3    H244772   0.029   2.459  26.432  1.1360  2.5843 -0.8046
 7761TIP3   OH244773   0.889   3.553  39.768 -0.0339  0.4001 -0.5508
 7761TIP3    H144774   0.889   3.631  39.712  2.4938 -0.1384 -1.4617
 7761TIP3    H244775   0.978   3.518  39.759 -0.7201 -1.8984  0.8146
 7762TIP3   OH244776   1.130   1.415  15.531  0.1265  0.0402  0.5634
 7762TIP3    H144777   1.103   1.443  15.618  0.9355 -0.0600  0.8501
 7762TIP3    H244778   1.067   1.457  15.472 -1.4977 -1.2691  1.2841
 7763TIP3   OH244779   2.234   1.987  36.317 -0.3015  0.2006 -0.0211
 7763TIP3    H144780   2.173   2.011  36.247 -2.2536 -1.2545  1.1002
 7763TIP3    H244781   2.295   1.925  36.277 -2.1924 -1.6398 -0.1991
 7764TIP3   OH244782   3.066   0.756  36.515  0.4701  0.8016 -0.1490
 7764TIP3    H144783   3.088   0.849  36.515 -0.0845  1.0859 -3.4890
 7764TIP3    H244784   2.981   0.752  36.471  0.7025 -1.3005 -0.4946
 7765TIP3   OH244785   1.839   0.222  16.485 -0.5920 -0.5160  0.0616
 7765TIP3    H144786   1.848   0.134  16.521 -1.4224 -0.9223 -0.6970
 7765TIP3    H244787   1.867   0.215  16.394  0.0634  0.1799  0.1962
 7766TIP3   OH244788   3.571   0.179   9.902  0.1747 -0.2708  0.3830
 7766TIP3    H144789   3.541   0.204   9.815 -0.0959 -0.2982  0.4683
 7766TIP3    H244790   3.520   0.234   9.962  0.5580 -0.0519  0.5149
 7767TIP3   OH244791   0.565   4.372  30.227 -0.0897  0.5400  0.0517
 7767TIP3    H144792   0.602   4.362  30.139  0.5591  2.6936  0.0166
 7767TIP3    H244793   0.532   4.285  30.249  2.8212 -0.9323 -0.9103
 7768TIP3   OH244794   1.925   3.660  11.579  0.3629  0.2348 -0.5044
 7768TIP3    H144795   1.932   3.724  11.509  1.2730  1.5378  0.7168
 7768TIP3    H244796   1.927   3.712  11.660 -2.0963 -1.0788  0.5077
 7769TIP3   OH244797   4.003   2.767  35.479 -0.4208  0.2567 -0.2584
 7769TIP3    H144798   3.946   2.806  35.545  1.5673 -1.2254  2.5273
 7769TIP3    H244799   3.942   2.721  35.420 -2.2499  0.4470  1.3740
 7770TIP3   OH244800   3.404   0.787  34.804  0.6384 -1.0976  0.4150
 7770TIP3    H144801   3.459   0.854  34.845  0.9212 -1.0240 -0.0859
 7770TIP3    H244802   3.465   0.732  34.755  0.2221 -0.7893 -0.4585
 7771TIP3   OH244803   0.468   1.865  10.453 -0.2933  0.4767  0.0258
 7771TIP3    H144804   0.406   1.912  10.509 -0.6502  0.9950 -0.7713
 7771TIP3    H244805   0.485   1.926  10.381  1.6682  0.6247  0.5420
 7772TIP3   OH244806   0.810   3.069  31.982  0.2069 -0.3725 -0.2756
 7772TIP3    H144807   0.837   3.060  31.891 -0.6597  1.1779 -0.7117
 7772TIP3    H244808   0.857   2.999  32.028  1.4787 -0.5186 -1.7247
 7773TIP3   OH244809   1.275   0.498  12.918 -0.2996  0.3142 -0.1869
 7773TIP3    H144810   1.296   0.520  13.009  0.6939  1.4226 -0.6480
 7773TIP3    H244811   1.180   0.489  12.916 -0.2296 -1.5602  1.3256
 7774TIP3   OH244812   2.554   0.768  40.270 -0.5994  0.1485 -0.4116
 7774TIP3    H144813   2.613   0.788  40.343 -0.8017 -2.1209  0.4427
 7774TIP3    H244814   2.494   0.843  40.267 -0.3553  0.4808  1.5309
 7775TIP3   OH244815   3.250   0.213   8.095  0.2645  0.5244  0.3077
 7775TIP3    H144816   3.222   0.123   8.112  1.1440 -0.2963 -2.0580
 7775TIP3    H244817   3.171   0.258   8.065  0.1854 -0.0223 -0.3355
 7776TIP3   OH244818   4.367   2.643   5.190  0.0606 -0.3335 -0.0385
 7776TIP3    H144819   4.298   2.580   5.207 -0.4912  0.3252  0.2077
 7776TIP3    H244820   4.447   2.591   5.185 -0.2558 -0.9434  1.0352
 7777TIP3   OH244821   2.985   1.567  10.439  0.3505  0.8204 -0.5683
 7777TIP3    H144822   3.045   1.611  10.499  0.9665 -0.3425 -0.2837
 7777TIP3    H244823   3.036   1.493  10.406 -1.2939 -0.9640  0.6712
 7778TIP3   OH244824   0.644   4.329  12.447  0.2483  0.1150 -0.4005
 7778TIP3    H144825   0.581   4.359  12.513 -0.8829 -0.5200 -1.1622
 7778TIP3    H244826   0.600   4.342  12.363  0.6153 -1.5120 -0.8783
 7779TIP3   OH244827   0.861   2.808  32.099  0.1256 -0.3086  0.8418
 7779TIP3    H144828   0.924   2.840  32.163 -0.5802 -0.2718  1.5358
 7779TIP3    H244829   0.798   2.757  32.150 -0.3134 -0.4902  0.1423
 7780TIP3   OH244830   4.034   1.015   4.472 -0.2458 -0.2100  0.1957
 7780TIP3    H144831   3.943   0.986   4.473  0.1732 -1.7158  2.8826
 7780TIP3    H244832   4.045   1.064   4.553  1.0342  1.0940 -0.7147
 7781TIP3   OH244833   2.977   3.334   5.088  0.3890 -0.0966  0.4471
 7781TIP3    H144834   3.015   3.407   5.138  0.2570  0.8799 -0.8267
 7781TIP3    H244835   2.882   3.343   5.102  0.4344 -2.7668  3.9531
 7782TIP3   OH244836   0.098   3.053  28.795  0.5732  0.5127  0.4244
 7782TIP3    H144837   0.015   3.031  28.836 -1.1714 -0.2327 -3.0997
 7782TIP3    H244838   0.086   3.142  28.762  0.9167  0.1945 -0.6087
 7783TIP3   OH244839   3.677   0.036   3.362  0.3258  0.3821 -0.4739
 7783TIP3    H144840   3.694   0.090   3.285 -1.4919  0.9728 -0.4942
 7783TIP3    H244841   3.703   0.091   3.436  1.9256 -0.1274 -0.6272
 7784TIP3   OH244842   2.950   2.032   8.804  0.5730  0.5822 -0.6588
 7784TIP3    H144843   3.008   1.956   8.799 -1.1569 -0.8349 -0.2799
 7784TIP3    H244844   2.990   2.097   8.747  3.2274  0.2017  0.6284
 7785TIP3   OH244845   1.493   1.924   2.613  0.1680  0.3531  0.2913
 7785TIP3    H144846   1.493   1.924   2.517 -0.2344 -1.0740  0.2664
 7785TIP3    H244847   1.509   1.832   2.637  0.6019  0.7431  1.5979
 7786TIP3   OH244848   1.151   2.694  29.587 -0.4279  0.2494 -0.4141
 7786TIP3    H144849   1.129   2.660  29.674 -1.1742  2.1898  0.2175
 7786TIP3    H244850   1.224   2.754  29.603  0.1462 -0.2068 -1.3033
 7787TIP3   OH244851   1.965   2.529  28.702 -0.5489  0.3123 -0.1579
 7787TIP3    H144852   2.011   2.529  28.618 -0.9894 -0.3827 -0.4088
 7787TIP3    H244853   1.873   2.544  28.679 -0.7813 -0.6162  0.1200
 7788TIP3   OH244854   2.645   2.612   6.437 -0.1419 -0.8117 -0.0996
 7788TIP3    H144855   2.567   2.654   6.402 -0.2427 -0.2502  0.7685
 7788TIP3    H244856   2.703   2.685   6.461  0.7242 -1.2209 -0.8956
 7789TIP3   OH244857   2.690   3.586   0.525 -0.2563 -0.7685  0.0893
 7789TIP3    H144858   2.694   3.553   0.615 -2.4600  1.1054  0.9839
 7789TIP3    H244859   2.715   3.678   0.533 -0.4434 -0.5952 -1.2282
 7790TIP3   OH244860   2.662   1.098   0.065 -0.0347 -1.3448  0.0982
 7790TIP3    H144861   2.725   1.041   0.019  0.4989 -1.1109  0.5217
 7790TIP3    H244862   2.713   1.137   0.136 -0.0977  0.4902 -0.7978
 7791TIP3   OH244863   3.166   0.728  29.628  0.4638 -0.2806  0.3904
 7791TIP3    H144864   3.237   0.678  29.667  1.8471  1.1241 -0.2322
 7791TIP3    H244865   3.138   0.788  29.697 -0.7516 -1.4074  0.9226
 7792TIP3   OH244866   1.847   2.964  12.121 -0.1840  0.3896  0.3294
 7792TIP3    H144867   1.846   3.034  12.186  0.1172  0.4987  0.2208
 7792TIP3    H244868   1.933   2.922  12.133 -0.7242 -0.5447  1.0091
 7793TIP3   OH244869   1.695   0.992  12.946 -1.0886  0.1829 -0.0060
 7793TIP3    H144870   1.655   1.046  12.878 -2.8308 -1.8847 -0.7179
 7793TIP3    H244871   1.759   0.938  12.900  0.1683  1.1082  0.5924
 7794TIP3   OH244872   1.313   1.407  17.896  0.3005 -0.2299  0.1459
 7794TIP3    H144873   1.333   1.348  17.824 -1.2363 -0.8334  0.1841
 7794TIP3    H244874   1.300   1.350  17.972 -0.1772  0.2409  0.4224
 7795TIP3   OH244875   2.901   0.238  40.460  0.5413 -0.2967  0.0213
 7795TIP3    H144876   2.941   0.156  40.430  0.4986 -0.5383  0.6252
 7795TIP3    H244877   2.965   0.275  40.521  0.4195 -0.0326 -0.0106
 7796TIP3   OH244878   3.193   4.374  34.286  0.0006  0.2066 -0.2135
 7796TIP3    H144879   3.245   4.442  34.328  0.7782  0.3420 -1.3443
 7796TIP3    H244880   3.255   4.302  34.272 -0.7300 -0.6284  0.6700
 7797TIP3   OH244881   3.643   1.916  26.605 -0.1172 -0.4594  0.2654
 7797TIP3    H144882   3.734   1.899  26.629  0.5856 -0.4524 -2.1591
 7797TIP3    H244883   3.647   1.943  26.513 -2.6399 -1.1025 -0.0975
 7798TIP3   OH244884   3.291   2.127  32.557 -0.3623  0.2333  0.2447
 7798TIP3    H144885   3.236   2.050  32.570 -0.3077 -0.2969 -2.1723
 7798TIP3    H244886   3.351   2.103  32.486 -0.4622  2.5424 -0.7276
 7799TIP3   OH244887   3.031   2.094  33.210 -0.0386 -0.0437 -0.1326
 7799TIP3    H144888   3.117   2.053  33.200 -0.7743 -1.5022 -0.7378
 7799TIP3    H244889   2.971   2.021  33.222 -1.0732  0.9955  1.3873
 7800TIP3   OH244890   0.979   0.354   4.099 -0.5748 -0.8666 -0.6773
 7800TIP3    H144891   0.902   0.336   4.154  1.2446 -2.3294  1.5797
 7800TIP3    H244892   1.003   0.268   4.063  2.0972 -1.2315  1.6899
 7801TIP3   OH244893   2.562   1.265  28.003 -0.4487 -0.5721  0.5212
 7801TIP3    H144894   2.654   1.262  28.031  0.2315 -2.2287 -1.6179
 7801TIP3    H244895   2.513   1.274  28.084  1.5148 -1.8508  1.9530
 7802TIP3   OH244896   4.009   1.991  38.336  0.1653 -0.4009 -0.1913
 7802TIP3    H144897   3.986   1.908  38.377 -1.0342  0.6629  1.4399
 7802TIP3    H244898   3.931   2.046  38.349  1.3628  1.3642 -0.1156
 7803TIP3   OH244899   0.907   0.344  38.532 -0.5667  0.1271  0.6467
 7803TIP3    H144900   0.877   0.256  38.512 -0.1878 -0.2436  1.6296
 7803TIP3    H244901   1.002   0.335  38.544  0.1044  1.3353 -2.7652
 7804TIP3   OH244902   1.793   0.440   3.164  0.3700 -0.7867  0.1269
 7804TIP3    H144903   1.844   0.440   3.245  2.4520  0.8857 -1.0714
 7804TIP3    H244904   1.815   0.358   3.121  1.1841 -0.5984  0.1704
 7805TIP3   OH244905   1.670   2.520   8.815 -0.1859  0.4602 -0.0699
 7805TIP3    H144906   1.709   2.488   8.734 -0.3865  2.3507 -0.9573
 7805TIP3    H244907   1.743   2.524   8.877  0.4996  1.4445 -0.9251
 7806TIP3   OH244908   1.245   0.032  40.371  0.1407 -0.3776 -0.6654
 7806TIP3    H144909   1.294   0.110  40.346 -0.3951 -0.2147 -1.2280
 7806TIP3    H244910   1.269   0.017  40.462 -3.4158  3.2951  1.1723
 7807TIP3   OH244911   2.926   3.461  10.888 -0.3538 -0.8875 -0.2588
 7807TIP3    H144912   2.994   3.396  10.874 -0.3908 -1.1720  0.7711
 7807TIP3    H244913   2.955   3.538  10.838  1.4708 -0.5053  1.2705
 7808TIP3   OH244914   1.962   0.090   4.083 -0.6035  0.0130 -0.6498
 7808TIP3    H144915   2.017   0.082   4.161 -2.7683 -1.2160  0.8845
 7808TIP3    H244916   1.878   0.121   4.117 -1.2770  0.5529 -2.6897
 7809TIP3   OH244917   1.607   2.276   0.791 -0.3785 -0.1196  0.2793
 7809TIP3    H144918   1.647   2.264   0.705 -0.6549  1.2953 -0.0669
 7809TIP3    H244919   1.556   2.356   0.783 -1.3545 -0.5938  1.4269
 7810TIP3   OH244920   2.358   0.386   0.810  0.0943  0.0959 -0.0935
 7810TIP3    H144921   2.447   0.386   0.847 -0.0602 -1.7270  0.3656
 7810TIP3    H244922   2.320   0.469   0.840  0.8887 -0.1025  1.5962
 7811TIP3   OH244923   0.191   1.126  37.745  0.5974 -0.3214 -0.0044
 7811TIP3    H144924   0.184   1.088  37.833 -1.7666 -0.2816 -0.1310
 7811TIP3    H244925   0.228   1.213  37.760  0.1514 -0.2825  0.9516
 7812TIP3   OH244926   0.860   1.340  21.805 -0.2573  0.3346 -0.1592
 7812TIP3    H144927   0.881   1.432  21.790 -2.3949  0.6250 -1.8028
 7812TIP3    H244928   0.806   1.315  21.729 -3.6724 -0.9341  2.4506
 7813TIP3   OH244929   4.002   1.545   4.654  0.1880  0.4326  0.0059
 7813TIP3    H144930   4.052   1.556   4.573 -0.5842 -2.9274 -1.1184
 7813TIP3    H244931   4.056   1.587   4.722  2.2653  0.8980 -1.8078
 7814TIP3   OH244932   2.870   3.398  31.450  0.3547  0.6361 -0.0120
 7814TIP3    H144933   2.941   3.334  31.441  0.0283  0.3046 -0.2256
 7814TIP3    H244934   2.791   3.345  31.461 -0.0052  0.9832 -0.8069
 7815TIP3   OH244935   3.950   3.953  34.646  0.3299  0.6307  0.7259
 7815TIP3    H144936   3.971   4.007  34.722 -1.3466  0.0062  1.6944
 7815TIP3    H244937   4.030   3.903  34.629  0.8997  1.1809  1.7379
 7816TIP3   OH244938   3.445   4.300  28.712 -0.8068  0.0614  0.5692
 7816TIP3    H144939   3.440   4.377  28.656  3.5236  0.1831  0.0006
 7816TIP3    H244940   3.460   4.335  28.800 -0.8904 -0.1508  0.6691
 7817TIP3   OH244941   2.187   3.553  28.520  0.2230  0.1412  0.0336
 7817TIP3    H144942   2.252   3.544  28.590  0.6420  0.0475 -0.3713
 7817TIP3    H244943   2.167   3.646  28.517 -0.7678  0.0007  1.1582
 7818TIP3   OH244944   3.478   4.196  31.080  0.6191  0.0361  0.4035
 7818TIP3    H144945   3.492   4.125  31.143 -1.3104 -0.0703  0.7893
 7818TIP3    H244946   3.397   4.238  31.110  1.1066  1.6779 -0.4869
 7819TIP3   OH244947   3.960   4.192  33.092  0.0059 -0.3417  0.4912
 7819TIP3    H144948   3.984   4.107  33.130 -0.7896 -0.3319  1.0399
 7819TIP3    H244949   3.865   4.196  33.101 -0.5040 -1.0487 -3.0116
 7820TIP3   OH244950   3.378   1.348  10.163 -0.2099 -0.4700 -0.5167
 7820TIP3    H144951   3.418   1.271  10.123 -0.7495 -0.7170 -0.5927
 7820TIP3    H244952   3.450   1.410  10.173  0.2153 -0.9533 -0.5272
 7821TIP3   OH244953   0.447   4.195  23.202  0.6963 -0.3617  0.3217
 7821TIP3    H144954   0.498   4.268  23.238 -1.3619  0.1089  2.5345
 7821TIP3    H244955   0.489   4.117  23.239  2.5271 -0.3410 -1.5579
 7822TIP3   OH244956   1.454   3.784  41.069  0.0245 -0.1819  0.4474
 7822TIP3    H144957   1.415   3.776  41.155 -1.9064  2.4865 -0.0601
 7822TIP3    H244958   1.383   3.815  41.013  1.4162 -1.0615 -1.9547
 7823TIP3   OH244959   1.277   1.493  12.701  0.0156 -0.1020  0.0654
 7823TIP3    H144960   1.250   1.525  12.787  1.3403  0.8410  0.1720
 7823TIP3    H244961   1.195   1.483  12.652 -0.7773 -0.8968  1.4976
 7824TIP3   OH244962   1.510   2.124   9.239  0.0140 -0.3261 -0.1228
 7824TIP3    H144963   1.517   2.164   9.326  0.7122 -1.1578  0.2216
 7824TIP3    H244964   1.600   2.117   9.209 -0.2616  0.5315 -1.2004
 7825TIP3   OH244965   1.617   0.552  14.295 -0.1392  0.3368 -0.8311
 7825TIP3    H144966   1.622   0.503  14.213 -0.2121  0.1957 -0.7520
 7825TIP3    H244967   1.639   0.488  14.362  0.3660  0.5608 -0.7787
 7826TIP3   OH244968   2.195   3.037  27.982 -0.3659 -0.1964 -0.2168
 7826TIP3    H144969   2.147   3.033  28.065  0.1295 -1.2508  0.0368
 7826TIP3    H244970   2.153   3.108  27.934 -0.6751  0.4285  0.9296
 7827TIP3   OH244971   3.645   4.142  37.105  0.4265  0.2292 -0.2238
 7827TIP3    H144972   3.741   4.144  37.115  0.4361 -0.1676 -0.2441
 7827TIP3    H244973   3.622   4.050  37.112  0.3765 -0.1147 -3.5423
 7828TIP3   OH244974   0.024   0.943  29.765 -0.1617 -0.3026 -0.2183
 7828TIP3    H144975   0.055   0.986  29.845 -1.1791  1.3578 -0.6699
 7828TIP3    H244976   0.100   0.895  29.732  0.4369 -0.5275  1.4138
 7829TIP3   OH244977   2.390   1.700   1.943 -0.0206 -0.2802 -0.2083
 7829TIP3    H144978   2.368   1.705   1.850  3.2516 -0.8294 -1.1698
 7829TIP3    H244979   2.388   1.606   1.963  1.5676 -0.4032 -0.4619
 7830TIP3   OH244980   3.445   1.937   6.214  0.4732 -0.5914 -0.1098
 7830TIP3    H144981   3.507   1.958   6.144  0.2699  0.6086  0.0588
 7830TIP3    H244982   3.475   1.853   6.248  2.1869  0.1091  0.1667
 7831TIP3   OH244983   1.345   1.782   2.959 -0.8459 -0.6951 -0.3272
 7831TIP3    H144984   1.334   1.692   2.926  0.6275  0.0089 -3.0111
 7831TIP3    H244985   1.271   1.830   2.921 -0.8692 -0.4821 -0.0149
 7832TIP3   OH244986   0.376   3.163  36.264  0.2638 -0.0034 -0.5021
 7832TIP3    H144987   0.433   3.088  36.249  2.7778  1.6233  0.2842
 7832TIP3    H244988   0.406   3.229  36.201  0.8876  1.7100  1.4899
 7833TIP3   OH244989   3.265   2.767  34.151  0.2655  0.1043 -0.2104
 7833TIP3    H144990   3.201   2.811  34.207  0.5668 -0.0289  0.2474
 7833TIP3    H244991   3.320   2.719  34.213  0.3304 -0.3990 -0.6669
 7834TIP3   OH244992   4.261   4.327  26.024 -0.3917  0.8785 -0.1079
 7834TIP3    H144993   4.224   4.239  26.029  1.0157  0.2999  0.5936
 7834TIP3    H244994   4.299   4.332  25.936 -0.2156  0.6720 -0.0452
 7835TIP3   OH244995   2.491   4.072  36.536 -0.5780  0.6326 -0.0345
 7835TIP3    H144996   2.420   4.078  36.472 -0.4043  0.0463 -0.2873
 7835TIP3    H244997   2.534   3.989  36.517 -0.4356  0.5163  0.7539
 7836TIP3   OH244998   2.995   0.347   8.004  0.6164 -0.4377  0.5790
 7836TIP3    H144999   2.980   0.423   8.060  0.1561  0.5625 -0.8232
 7836TIP3    H245000   2.913   0.337   7.955  1.2835 -0.7247 -0.5197
 7837TIP3   OH245001   0.606   1.684   1.460  0.2441  0.4425  0.0075
 7837TIP3    H145002   0.649   1.728   1.387  0.7370 -0.4455 -0.2469
 7837TIP3    H245003   0.600   1.592   1.433 -1.3744  0.4521  0.2379
 7838TIP3   OH245004   2.853   2.611  27.925 -0.1518 -0.2123 -0.2588
 7838TIP3    H145005   2.828   2.526  27.890 -1.5714 -0.4620  1.2734
 7838TIP3    H245006   2.772   2.649  27.958  0.5566  1.4837 -0.3462
 7839TIP3   OH245007   3.836   2.787  40.221  0.0786 -0.2576 -0.4106
 7839TIP3    H145008   3.858   2.769  40.130 -0.6812  0.3111 -0.7157
 7839TIP3    H245009   3.759   2.733  40.239  0.3315 -0.5024 -0.0478
 7840TIP3   OH245010   0.719   2.669  12.539  0.4953  0.1916  0.4310
 7840TIP3    H145011   0.635   2.624  12.546  0.9420 -0.9949 -1.1564
 7840TIP3    H245012   0.723   2.698  12.448  1.7950  0.2034  0.4711
 7841TIP3   OH245013   1.354   0.136  33.092  0.5544 -0.5017 -0.2024
 7841TIP3    H145014   1.399   0.057  33.122  0.5835 -0.1121  0.8040
 7841TIP3    H245015   1.302   0.164  33.167 -0.6996 -0.4464 -1.0527
 7842TIP3   OH245016   1.756   3.162  17.923 -0.3174 -0.6378 -0.3676
 7842TIP3    H145017   1.700   3.195  17.853 -1.4299 -1.0820  0.2901
 7842TIP3    H245018   1.716   3.079  17.949  1.1385 -1.3956 -0.4504
 7843TIP3   OH245019   3.994   0.116  12.763 -0.1008  0.9025  0.0957
 7843TIP3    H145020   4.035   0.057  12.827  1.1937  3.0490  1.3467
 7843TIP3    H245021   3.905   0.082  12.752 -0.0148 -0.1459  2.2483
 7844TIP3   OH245022   0.737   1.005   6.515  0.2798  0.0019  0.3273
 7844TIP3    H145023   0.795   1.060   6.567 -1.3939  3.1272 -0.8680
 7844TIP3    H245024   0.688   0.954   6.580  1.4866  0.2630  1.5060
 7845TIP3   OH245025   0.197   0.043  11.590  0.3713 -0.1957  0.4940
 7845TIP3    H145026   0.107   0.050  11.622  0.5141 -0.2021  0.9007
 7845TIP3    H245027   0.196  -0.033  11.531 -0.2147  0.6658 -0.6397
 7846TIP3   OH245028   3.775   0.142  40.467  0.1029  0.0464  0.1838
 7846TIP3    H145029   3.839   0.170  40.533  0.5369  0.3455 -0.3518
 7846TIP3    H245030   3.762   0.049  40.484 -0.9946  0.4233  1.6911
 7847TIP3   OH245031   1.403   0.329   3.915  0.3186  0.8701 -0.1558
 7847TIP3    H145032   1.316   0.294   3.897 -0.5258  2.0627  1.3591
 7847TIP3    H245033   1.397   0.422   3.891  1.6360  0.6697 -1.4007
 7848TIP3   OH245034   3.328   3.950   9.117 -0.2289 -0.2999 -0.0495
 7848TIP3    H145035   3.322   3.856   9.102  0.9036 -0.4244  0.2469
 7848TIP3    H245036   3.305   3.961   9.209  0.5869 -0.3909  0.1655
 7849TIP3   OH245037   3.109   3.265   8.478 -0.1527 -0.1724  0.2597
 7849TIP3    H145038   3.108   3.330   8.547 -0.4477 -0.4918  0.5569
 7849TIP3    H245039   3.017   3.253   8.455 -0.2412 -1.5516  1.2201
 7850TIP3   OH245040   0.445   3.232  29.627 -0.0897 -0.2712  0.4969
 7850TIP3    H145041   0.401   3.172  29.566  0.1193 -0.3651  0.4404
 7850TIP3    H245042   0.471   3.177  29.700 -0.5549 -0.1168  0.7877
 7851TIP3   OH245043   1.353   0.307  10.148 -0.2432 -0.1371  0.6004
 7851TIP3    H145044   1.327   0.395  10.176  1.7959  0.2629  1.3932
 7851TIP3    H245045   1.344   0.308  10.053 -0.1350  0.9591  0.5900
 7852TIP3   OH245046   2.193   2.169  41.159  0.1092  0.2289  0.6648
 7852TIP3    H145047   2.103   2.181  41.190 -0.2190 -0.4176 -0.0003
 7852TIP3    H245048   2.186   2.175  41.063  0.8688  0.7348  0.6303
 7853TIP3   OH245049   1.779   3.632  30.003 -0.0847 -0.3640 -0.0659
 7853TIP3    H145050   1.697   3.608  29.961 -0.5054  1.1832 -0.1719
 7853TIP3    H245051   1.793   3.564  30.068 -0.8235 -1.3033 -0.8572
 7854TIP3   OH245052   3.083   1.135   7.368 -0.1163  0.3035 -0.0012
 7854TIP3    H145053   3.129   1.189   7.432  0.4876  0.7295 -0.7706
 7854TIP3    H245054   3.019   1.194   7.329 -2.4367 -0.6618  2.0972
 7855TIP3   OH245055   3.702   2.643  36.726 -0.1802 -0.1593  0.2662
 7855TIP3    H145056   3.679   2.610  36.639  1.1689 -1.5749  0.3922
 7855TIP3    H245057   3.783   2.596  36.748 -0.4083  0.2929  2.2186
 7856TIP3   OH245058   0.911   1.599  14.640  0.4299 -0.3729 -0.2025
 7856TIP3    H145059   0.996   1.630  14.608 -0.2293  0.6833 -0.9710
 7856TIP3    H245060   0.878   1.542  14.571 -0.1202  0.3726 -0.5759
 7857TIP3   OH245061   2.354   1.165  33.871  0.0138 -0.1266  0.4873
 7857TIP3    H145062   2.260   1.150  33.857 -0.0580 -1.0824  1.8331
 7857TIP3    H245063   2.397   1.099  33.816 -0.0591  0.7714 -0.6837
 7858TIP3   OH245064   2.435   3.473   2.550  0.0621 -0.0103 -0.5439
 7858TIP3    H145065   2.528   3.458   2.532  0.1528  0.1055 -0.1803
 7858TIP3    H245066   2.391   3.451   2.468  0.0681 -3.1216  0.1777
 7859TIP3   OH245067   3.684   0.529   6.818 -0.0871 -0.1205  0.0269
 7859TIP3    H145068   3.719   0.441   6.825 -1.1835 -0.5634  0.1348
 7859TIP3    H245069   3.674   0.544   6.724  0.0067 -0.1495  0.0128
 7860TIP3   OH245070   1.180   3.840  15.107 -0.2417 -0.1948 -0.3552
 7860TIP3    H145071   1.239   3.800  15.042  0.0264  0.7753 -0.7277
 7860TIP3    H245072   1.103   3.865  15.057  0.0542  0.7497 -0.3470
 7861TIP3   OH245073   2.073   1.272  17.912  0.1528 -0.3674  0.0100
 7861TIP3    H145074   2.054   1.179  17.928  0.3576 -0.5414 -0.7125
 7861TIP3    H245075   2.164   1.272  17.882 -0.1576 -0.0474 -0.9545
 7862TIP3   OH245076   0.844   1.442   2.735 -0.1402 -0.0510  0.4291
 7862TIP3    H145077   0.841   1.347   2.729 -0.1866  0.0399 -2.9382
 7862TIP3    H245078   0.752   1.469   2.741 -0.1767 -0.1946  0.5052
 7863TIP3   OH245079   3.849   0.057   7.309 -0.4407  0.0586 -0.1367
 7863TIP3    H145080   3.878   0.044   7.218  0.7530 -0.0182  0.2382
 7863TIP3    H245081   3.754   0.046   7.305 -0.1574 -2.8201 -0.8993
 7864TIP3   OH245082   3.269   1.638  34.583  0.1523  0.0812 -0.0893
 7864TIP3    H145083   3.352   1.647  34.535 -0.7570  0.2032 -1.7055
 7864TIP3    H245084   3.261   1.543  34.598  1.1036  0.1581  1.1103
 7865TIP3   OH245085   3.208   1.172   6.178  0.4061  0.0203  0.3220
 7865TIP3    H145086   3.138   1.151   6.240  0.1532  0.4965  0.2031
 7865TIP3    H245087   3.251   1.250   6.216  1.1505 -0.5207  0.6156
 7866TIP3   OH245088   0.257   2.502  34.376 -0.2585 -0.3217 -0.5932
 7866TIP3    H145089   0.253   2.482  34.469  3.5712  1.0831  0.0820
 7866TIP3    H245090   0.297   2.424  34.336  2.2649  0.6665 -0.1890
 7867TIP3   OH245091   2.006   3.759  35.746 -0.0754 -0.0452 -0.6337
 7867TIP3    H145092   1.957   3.775  35.827 -0.8289 -0.9015 -0.9056
 7867TIP3    H245093   2.054   3.678  35.763 -0.6411 -0.5166 -1.2077
 7868TIP3   OH245094   0.561   2.320   2.585  0.4294  0.4093 -0.8313
 7868TIP3    H145095   0.654   2.330   2.604  0.3346 -0.6305  0.2515
 7868TIP3    H245096   0.533   2.407   2.556  1.5149  0.9721 -0.2344
 7869TIP3   OH245097   0.882   2.705  35.770  0.6723  0.5512  0.7055
 7869TIP3    H145098   0.802   2.676  35.814 -0.2908 -0.8289 -1.7452
 7869TIP3    H245099   0.947   2.637  35.789  0.6435  0.6068  1.0044
 7870TIP3   OH245100   1.456   2.840   0.048 -0.2011 -0.8028 -0.4044
 7870TIP3    H145101   1.540   2.885   0.045 -0.2007 -0.7692  0.0594
 7870TIP3    H245102   1.480   2.747   0.057 -0.2065 -0.6953  0.9941
 7871TIP3   OH245103   1.944   3.886   0.174  0.0595  0.4609  0.2527
 7871TIP3    H145104   2.039   3.891   0.182  0.0276 -0.0567  1.1365
 7871TIP3    H245105   1.912   3.896   0.264 -0.7668  1.3625 -0.1167
 7872TIP3   OH245106   3.862   2.440   6.310 -0.2151 -0.8073  0.1610
 7872TIP3    H145107   3.819   2.522   6.287  1.0537 -0.1989 -0.1523
 7872TIP3    H245108   3.906   2.412   6.230 -0.4835 -1.7048  0.3147
 7873TIP3   OH245109   1.144   2.021  40.724  0.3545  0.2611  0.4740
 7873TIP3    H145110   1.101   2.100  40.756  0.3981  0.3862  0.2271
 7873TIP3    H245111   1.074   1.956  40.721 -0.0533  0.7350 -0.8846
 7874TIP3   OH245112   3.607   0.973   5.710  0.9015  0.6618  0.5958
 7874TIP3    H145113   3.563   1.005   5.631  0.3431  0.2062  0.7135
 7874TIP3    H245114   3.557   1.010   5.782  0.1853 -0.5163  0.7363
 7875TIP3   OH245115   0.876   3.758  12.331 -0.1615 -0.6964  0.5553
 7875TIP3    H145116   0.876   3.663  12.325 -0.4560 -0.6409 -0.8838
 7875TIP3    H245117   0.930   3.778  12.407  0.6721 -1.9796  0.3242
 7876TIP3   OH245118   0.181   2.601   8.277  0.1304  0.6641  0.1294
 7876TIP3    H145119   0.183   2.539   8.350  0.5785 -0.1383 -0.5605
 7876TIP3    H245120   0.198   2.686   8.319 -0.7654  0.3855  1.1151
 7877TIP3   OH245121   0.793   1.803  29.078  0.4903  0.1034  0.3836
 7877TIP3    H145122   0.756   1.891  29.067  0.3571 -0.2005 -2.2311
 7877TIP3    H245123   0.727   1.744  29.043  1.0902 -0.9323  0.9607
 7878TIP3   OH245124   2.007   2.019  16.642 -0.1829  0.1197 -0.0830
 7878TIP3    H145125   1.974   1.939  16.683 -2.3839 -0.0644 -1.9563
 7878TIP3    H245126   1.940   2.085  16.660 -0.1228  0.5883 -1.4302
 7879TIP3   OH245127   0.645   2.339   5.936  0.1846 -0.2637 -0.4131
 7879TIP3    H145128   0.713   2.370   5.995  0.2877  1.3467 -1.3028
 7879TIP3    H245129   0.687   2.272   5.882  0.6362 -0.3461  0.0460
 7880TIP3   OH245130   3.470   3.317   8.745  0.1627 -0.2416  0.0321
 7880TIP3    H145131   3.480   3.255   8.817  0.4188  1.5208  1.5798
 7880TIP3    H245132   3.554   3.362   8.740 -0.3500  0.7010 -0.3456
 7881TIP3   OH245133   1.241   1.634  29.766  0.2320 -0.3018  0.0127
 7881TIP3    H145134   1.314   1.579  29.793  0.7311 -0.6380 -1.8687
 7881TIP3    H245135   1.172   1.572  29.742  0.5746 -0.1481 -1.4994
 7882TIP3   OH245136   3.078   1.470   4.848  0.0568 -0.0322 -0.1306
 7882TIP3    H145137   3.166   1.505   4.856  0.6879 -1.2808 -1.2163
 7882TIP3    H245138   3.070   1.445   4.756 -1.2323 -0.4510  0.0713
 7883TIP3   OH245139   0.132   1.459  31.147  0.2737  0.8954  0.0108
 7883TIP3    H145140   0.125   1.461  31.243  0.6904 -0.9796  0.1274
 7883TIP3    H245141   0.144   1.366  31.127 -2.7085  0.8194 -2.0820
 7884TIP3   OH245142   0.501   1.338   7.480 -0.3089 -0.0010  0.5701
 7884TIP3    H145143   0.527   1.417   7.433 -1.7220 -0.7855 -1.6916
 7884TIP3    H245144   0.561   1.270   7.448 -0.8409 -0.4071  0.4272
 7885TIP3   OH245145   0.548   1.279  13.691  0.8183 -0.3919 -0.0803
 7885TIP3    H145146   0.464   1.240  13.666  0.6070  1.2050 -2.1293
 7885TIP3    H245147   0.600   1.206  13.722 -0.1879 -2.0109 -1.9822
 7886TIP3   OH245148   2.861   2.606   4.877 -0.1789  0.5090  0.4039
 7886TIP3    H145149   2.853   2.688   4.926  1.3771 -0.3574  2.2604
 7886TIP3    H245150   2.832   2.538   4.938  4.2888 -0.8949  1.3725
 7887TIP3   OH245151   2.451   2.041   3.805  0.0750  0.1080  0.0117
 7887TIP3    H145152   2.469   1.965   3.750 -1.8974 -0.2988 -0.1538
 7887TIP3    H245153   2.365   2.071   3.776 -0.8236  0.1863  2.5444
 7888TIP3   OH245154   1.117   0.890  41.498  0.0319 -0.3326  0.0996
 7888TIP3    H145155   1.129   0.795  41.509 -0.1872 -0.7003 -2.2760
 7888TIP3    H245156   1.023   0.902  41.493  0.0657 -0.0217  0.1991
 7889TIP3   OH245157   0.438   0.680  32.794  0.2285  0.0435 -0.1257
 7889TIP3    H145158   0.425   0.608  32.856 -0.3097  0.6231  0.4392
 7889TIP3    H245159   0.350   0.706  32.768  0.3930  0.9604  0.2029
 7890TIP3   OH245160   0.729   1.001  13.446  0.5442 -0.1517 -0.1055
 7890TIP3    H145161   0.686   0.927  13.488  0.5215 -1.5244 -2.3937
 7890TIP3    H245162   0.820   0.973  13.433  0.8671  0.7311  0.1260
 7891TIP3   OH245163   0.924   3.843  11.067  0.5192  0.2059  0.1254
 7891TIP3    H145164   0.828   3.840  11.074  0.6229  0.2043  2.5164
 7891TIP3    H245165   0.941   3.854  10.974 -1.8009 -0.0482 -0.3956
 7892TIP3   OH245166   2.478   4.054  41.452 -0.1833 -0.0465  0.0792
 7892TIP3    H145167   2.472   4.119  41.522  0.2328  0.7515 -0.6075
 7892TIP3    H245168   2.412   3.989  41.474 -3.1087  2.3288 -0.9719
 7893TIP3   OH245169   0.388   2.462   9.758  0.5088 -0.4837  0.0429
 7893TIP3    H145170   0.387   2.424   9.671 -1.3066 -0.5738  0.0672
 7893TIP3    H245171   0.423   2.550   9.745 -1.4478  0.1958 -1.1361
 7894TIP3   OH245172   0.191   3.313   5.433  0.2176 -0.1283  0.0022
 7894TIP3    H145173   0.256   3.305   5.503  1.5044 -0.4173 -1.1777
 7894TIP3    H245174   0.129   3.379   5.465 -0.5664 -1.8652  2.3668
 7895TIP3   OH245175   0.334   3.495   4.357  0.2795  0.9639 -0.4757
 7895TIP3    H145176   0.422   3.523   4.333  0.4907  2.1428  1.4700
 7895TIP3    H245177   0.341   3.470   4.449 -1.0985 -0.4936 -0.7082
 7896TIP3   OH245178   4.034   2.370  35.074 -0.6036  0.1372  0.1786
 7896TIP3    H145179   4.000   2.330  35.155  0.1444  0.6518  0.7602
 7896TIP3    H245180   4.018   2.304  35.007 -1.4013 -0.2294  0.7117
 7897TIP3   OH245181   4.397   3.712  23.438  0.1019 -0.3214 -0.1429
 7897TIP3    H145182   4.308   3.683  23.455 -1.2426  3.1561 -0.4593
 7897TIP3    H245183   4.391   3.765  23.358  2.7450 -1.0370 -0.9425
 7898TIP3   OH245184   3.748   4.364   5.162 -0.5604 -0.8166 -0.1668
 7898TIP3    H145185   3.694   4.315   5.224  2.3681  0.5738  3.8968
 7898TIP3    H245186   3.710   4.452   5.161 -0.0803 -0.5889  0.4962
 7899TIP3   OH245187   0.549   3.055   2.195 -0.1586 -0.2735  0.4166
 7899TIP3    H145188   0.617   3.047   2.261  0.0494 -1.3650  0.0898
 7899TIP3    H245189   0.492   2.979   2.209 -1.0218  0.3448  0.3579
 7900TIP3   OH245190   2.046   4.339  12.088  0.4102  0.0310 -0.1738
 7900TIP3    H145191   2.105   4.313  12.158 -0.7584 -0.4523  0.6793
 7900TIP3    H245192   2.025   4.431  12.106  0.4089  0.0165 -0.1013
 7901TIP3   OH245193   4.036   1.106  38.978  0.6201 -0.4849  0.6951
 7901TIP3    H145194   4.061   1.099  39.070  0.8220 -1.5810  0.5714
 7901TIP3    H245195   3.947   1.142  38.980  0.7969 -0.0760  1.3009
 7902TIP3   OH245196   0.743   3.225   1.058 -0.0908 -0.0676 -0.2068
 7902TIP3    H145197   0.731   3.193   1.147 -3.1926  0.2602 -0.3985
 7902TIP3    H245198   0.712   3.154   1.002  0.7752  0.1514 -0.9806
 7903TIP3   OH245199   0.761   0.467  30.990  0.1750  0.1415  0.0645
 7903TIP3    H145200   0.783   0.484  30.898 -1.0217  1.1626 -0.0745
 7903TIP3    H245201   0.844   0.445  31.031  1.0889  1.6644 -0.8530
 7904TIP3   OH245202   0.760   0.641  35.782 -0.0203 -0.0338  0.6792
 7904TIP3    H145203   0.680   0.607  35.741 -1.2130  1.0528  2.0233
 7904TIP3    H245204   0.737   0.728  35.813  2.2848  1.1521 -0.6139
 7905TIP3   OH245205   1.612   0.931  33.563  0.7514  0.4553  0.2607
 7905TIP3    H145206   1.707   0.923  33.563  0.6872 -0.4191  0.2104
 7905TIP3    H245207   1.584   0.881  33.486  0.1324 -1.0286  1.3933
 7906TIP3   OH245208   1.995   0.760  33.321  0.2345  0.3354  0.3602
 7906TIP3    H145209   1.906   0.756  33.285 -1.0773  1.3368  3.2024
 7906TIP3    H245210   1.984   0.802  33.406  3.0926 -1.8693  1.9805
 7907TIP3   OH245211   3.249   3.807  40.122  0.1544  0.3391  0.4044
 7907TIP3    H145212   3.295   3.780  40.042  1.3287  0.2823  1.0672
 7907TIP3    H245213   3.291   3.757  40.192 -0.7949  0.4541  1.0738
 7908TIP3   OH245214   1.463   0.730  30.158  0.4611 -0.1680  0.2076
 7908TIP3    H145215   1.395   0.739  30.226 -0.1229 -1.3744 -0.1846
 7908TIP3    H245216   1.535   0.784  30.189 -0.9814  1.8987  0.2163
 7909TIP3   OH245217   0.228   0.643   0.374  0.4932  0.0843 -0.2483
 7909TIP3    H145218   0.275   0.566   0.406  1.5003  0.3515 -1.0397
 7909TIP3    H245219   0.205   0.692   0.452  0.1381 -0.8378  0.2476
 7910TIP3   OH245220   3.985   2.712  10.012 -0.8646  0.0777 -0.3905
 7910TIP3    H145221   3.904   2.739   9.968 -1.1308 -1.5240 -0.9233
 7910TIP3    H245222   3.977   2.617  10.021  1.2345 -0.2005 -1.0245
 7911TIP3   OH245223   3.304   0.755  38.542 -0.2032  0.4595  0.4343
 7911TIP3    H145224   3.294   0.667  38.505  0.0141  1.0877 -1.1817
 7911TIP3    H245225   3.221   0.798  38.525  0.7063  1.5517 -1.6358
 7912TIP3   OH245226   4.214   3.831  38.473  0.4192 -0.1851  0.4650
 7912TIP3    H145227   4.271   3.895  38.515  0.3771 -0.3478  0.7744
 7912TIP3    H245228   4.267   3.751  38.468  0.2176 -0.3402  0.7642
 7913TIP3   OH245229   0.703   0.222   9.629 -0.8914  0.2049  0.2272
 7913TIP3    H145230   0.666   0.266   9.706 -0.9394  0.1086  0.2587
 7913TIP3    H245231   0.783   0.182   9.662  0.0200  1.6248 -0.1540
 7914TIP3   OH245232   0.633   0.860   2.057 -0.1691  0.0379 -0.9481
 7914TIP3    H145233   0.717   0.904   2.043  0.6537 -0.7213  1.1524
 7914TIP3    H245234   0.629   0.846   2.152 -2.5728 -0.1816 -1.0234
 7915TIP3   OH245235   1.878   0.120  18.814  0.2089 -0.1203 -0.1240
 7915TIP3    H145236   1.833   0.056  18.868 -0.0310  0.5501  0.4939
 7915TIP3    H245237   1.971   0.100  18.825  0.1464 -0.2058  0.2665
 7916TIP3   OH245238   2.124   2.524  35.340 -0.3736 -1.1176  0.1386
 7916TIP3    H145239   2.049   2.574  35.309 -0.4642 -0.6444  1.0765
 7916TIP3    H245240   2.188   2.591  35.367  1.0764 -1.4752 -2.1241
 7917TIP3   OH245241   3.733   0.822  13.300 -0.1747  0.1151 -0.1420
 7917TIP3    H145242   3.759   0.905  13.258  1.6893  0.4362  1.4766
 7917TIP3    H245243   3.653   0.843  13.348  0.2956  1.0217  0.2803
 7918TIP3   OH245244   1.856   2.060  36.839 -0.3544  0.1521  0.1123
 7918TIP3    H145245   1.782   2.051  36.778 -1.7922  0.9760  1.6290
 7918TIP3    H245246   1.816   2.098  36.918  1.4278 -0.8647  1.5689
 7919TIP3   OH245247   1.079   4.185   9.128 -0.1933  0.2595 -0.0071
 7919TIP3    H145248   1.098   4.166   9.220 -0.6572 -0.5502 -0.0708
 7919TIP3    H245249   1.125   4.267   9.111  1.7428 -0.7088  0.3280
 7920TIP3   OH245250   3.679   0.878   5.011 -0.1027 -0.5699  0.1893
 7920TIP3    H145251   3.662   0.858   4.919 -0.3726  0.7434 -0.0722
 7920TIP3    H245252   3.746   0.816   5.037  3.5524  1.9232 -2.2660
 7921TIP3   OH245253   2.681   3.251  31.787 -0.5565 -0.9878 -0.4320
 7921TIP3    H145254   2.751   3.192  31.814  0.0270 -0.8939 -1.6427
 7921TIP3    H245255   2.652   3.215  31.702 -2.4510 -1.4297  0.3521
 7922TIP3   OH245256   1.918   0.115  32.557 -0.3978  0.3638  0.2994
 7922TIP3    H145257   1.999   0.164  32.576 -0.4035  0.7345 -0.6040
 7922TIP3    H245258   1.855   0.151  32.620  0.0030  0.4228  0.6812
 7923TIP3   OH245259   1.484   0.786  36.181  0.4462 -0.0162  0.0056
 7923TIP3    H145260   1.528   0.765  36.263  0.3763 -0.9043 -0.1740
 7923TIP3    H245261   1.439   0.869  36.198  1.8716  0.7191  0.3045
 7924TIP3   OH245262   2.455   1.827  36.246  0.3817  0.2007  0.0084
 7924TIP3    H145263   2.524   1.831  36.181 -0.8391 -3.8970 -1.8737
 7924TIP3    H245264   2.482   1.757  36.306 -1.5279 -0.7041 -0.1143
 7925TIP3   OH245265   2.714   2.474   3.898 -0.1163 -0.8728 -0.5200
 7925TIP3    H145266   2.654   2.402   3.884 -1.8975  0.4936 -0.3085
 7925TIP3    H245267   2.753   2.490   3.812  1.6668 -3.1631 -0.2075
 7926TIP3   OH245268   1.548   3.850  31.372 -0.2768 -0.2102  0.2133
 7926TIP3    H145269   1.570   3.764  31.406 -0.2403  0.1349  1.0971
 7926TIP3    H245270   1.453   3.849  31.362 -0.2901 -0.3153  0.3414
 7927TIP3   OH245271   3.560   3.746  39.325 -0.0589 -0.4512 -0.1669
 7927TIP3    H145272   3.479   3.792  39.306 -0.9125 -1.3836  1.0044
 7927TIP3    H245273   3.565   3.676  39.260 -0.1741 -0.3516 -0.2806
 7928TIP3   OH245274   2.436   2.419  12.388 -0.2268 -0.6996  0.0528
 7928TIP3    H145275   2.449   2.376  12.303  1.9733  0.1188 -0.0843
 7928TIP3    H245276   2.440   2.347  12.452 -0.3329 -1.1459 -0.4348
 7929TIP3   OH245277   0.438   3.274  37.931  0.1309  0.1325  0.0325
 7929TIP3    H145278   0.362   3.332  37.936  0.1850  0.2035  0.0240
 7929TIP3    H245279   0.416   3.201  37.988  0.5268  0.6827  0.9098
 7930TIP3   OH245280   3.014   0.444  10.932 -0.2819 -0.2980  0.5794
 7930TIP3    H145281   3.028   0.379  11.001  0.7828  0.3051  0.9621
 7930TIP3    H245282   3.084   0.427  10.869  0.0526  0.5142  0.7243
 7931TIP3   OH245283   0.061   0.040  13.420 -0.0456  0.0720  0.0486
 7931TIP3    H145284   0.034   0.131  13.428  0.8215  0.3680 -0.2873
 7931TIP3    H245285   0.155   0.040  13.440  0.2549 -0.5329 -1.2371
 7932TIP3   OH245286   3.676   2.817  34.392 -0.1059 -0.2238 -0.0789
 7932TIP3    H145287   3.636   2.742  34.348  0.0252  0.1122 -0.7924
 7932TIP3    H245288   3.759   2.784  34.425 -0.6644 -0.7500  0.8246
 7933TIP3   OH245289   1.581   0.104  35.437 -0.1147  0.3145 -0.0531
 7933TIP3    H145290   1.676   0.109  35.447 -0.2684  3.1027  0.6215
 7933TIP3    H245291   1.548   0.100  35.527 -0.7156  3.0418 -0.0968
 7934TIP3   OH245292   2.933   4.365  39.495 -0.3563  0.8029  0.4678
 7934TIP3    H145293   2.850   4.413  39.489  0.4032  2.3897  1.8543
 7934TIP3    H245294   2.993   4.413  39.440 -0.9004 -1.9406 -2.8966
 7935TIP3   OH245295   1.411   3.609  14.463  0.0765  0.2474  0.4395
 7935TIP3    H145296   1.460   3.691  14.455  0.0439  0.6434  3.3364
 7935TIP3    H245297   1.387   3.603  14.555  0.1384 -3.0818  0.3868
 7936TIP3   OH245298   0.522   2.647  26.748 -0.0480 -0.0788 -0.0696
 7936TIP3    H145299   0.466   2.713  26.707  1.4869 -0.1460 -2.5089
 7936TIP3    H245300   0.463   2.576  26.773 -1.1586  0.2407 -1.6828
 7937TIP3   OH245301   2.766   3.069   7.842 -0.5669 -0.7929 -0.1825
 7937TIP3    H145302   2.706   3.073   7.916 -0.6788 -0.6375 -0.2794
 7937TIP3    H245303   2.847   3.108   7.874 -0.7273 -0.4008 -0.2466
 7938TIP3   OH245304   2.362   2.817  12.502 -0.3818 -0.1112 -0.8400
 7938TIP3    H145305   2.302   2.753  12.466 -2.3969  0.6972  0.8398
 7938TIP3    H245306   2.448   2.774  12.500 -1.5073 -2.5126 -0.5520
 7939TIP3   OH245307   3.690   1.122  41.599 -0.1432  0.0752  0.0870
 7939TIP3    H145308   3.719   1.108  41.689  0.6143  0.3878 -0.1000
 7939TIP3    H245309   3.596   1.142  41.607 -0.7327 -2.5599  0.5552
 7940TIP3   OH245310   1.380   3.842  35.088  0.2620  0.5904 -0.0005
 7940TIP3    H145311   1.386   3.873  34.997  0.5929  1.8010  0.4176
 7940TIP3    H245312   1.442   3.896  35.136  1.3558 -1.1649  0.6789
 7941TIP3   OH245313   3.362   0.143   8.351 -0.4123  0.6522 -0.0488
 7941TIP3    H145314   3.414   0.063   8.344 -1.5997 -0.1345 -0.2885
 7941TIP3    H245315   3.321   0.153   8.265 -0.6573  1.2512  0.1294
 7942TIP3   OH245316   4.270   1.733   8.425  0.2012 -0.2834  0.5524
 7942TIP3    H145317   4.304   1.743   8.514  0.4186 -0.8255  0.5337
 7942TIP3    H245318   4.236   1.819   8.403 -0.1250 -0.2206  1.2716
 7943TIP3   OH245319   0.575   0.995  38.397  0.2788  0.4324  0.1660
 7943TIP3    H145320   0.596   0.970  38.487  1.6019  1.6174  0.2246
 7943TIP3    H245321   0.626   1.074  38.381  0.3988  0.0287 -1.7675
 7944TIP3   OH245322   4.149   0.318   7.093  0.1285 -0.7252 -0.5511
 7944TIP3    H145323   4.127   0.245   7.150  0.4836 -0.3579  0.0635
 7944TIP3    H245324   4.099   0.302   7.013 -1.9028 -0.2492  0.5530
 7945TIP3   OH245325   3.738   4.304  26.837  0.1663  0.5844 -0.4242
 7945TIP3    H145326   3.744   4.399  26.849 -0.3920  0.6128 -0.3592
 7945TIP3    H245327   3.670   4.291  26.771  1.9276  0.3264 -2.2849
 7946TIP3   OH245328   0.759   1.962  29.555 -0.2626 -0.5900 -0.1533
 7946TIP3    H145329   0.792   1.894  29.497  0.6711 -1.2769  1.1410
 7946TIP3    H245330   0.817   1.959  29.631 -1.7316 -0.0503  1.0399
 7947TIP3   OH245331   0.021   0.352  11.718 -0.1483  0.2132 -0.1229
 7947TIP3    H145332   0.053   0.439  11.741  3.0267 -1.0464  0.8906
 7947TIP3    H245333  -0.053   0.337  11.776 -0.3680  1.9897  0.1114
 7948TIP3   OH245334   3.143   3.144   4.556 -0.5639  0.1618 -0.0587
 7948TIP3    H145335   3.228   3.151   4.598 -0.0566 -0.8775 -0.8646
 7948TIP3    H245336   3.139   3.218   4.496  0.4969 -0.6810 -1.2249
 7949TIP3   OH245337   0.210   0.066  10.579  0.5799 -0.2006  0.0408
 7949TIP3    H145338   0.117   0.049  10.567  0.0469  2.4457 -0.1720
 7949TIP3    H245339   0.218   0.094  10.670  1.5788 -2.4292  0.7067
 7950TIP3   OH245340   4.182   2.477  10.157  0.0027  0.2471 -0.2728
 7950TIP3    H145341   4.204   2.431  10.238 -0.4756 -0.7172 -0.6815
 7950TIP3    H245342   4.089   2.458  10.144  0.3202 -0.4912 -1.6139
 7951TIP3   OH245343   3.112   3.947  28.607  0.4440 -0.2246 -0.3716
 7951TIP3    H145344   3.187   3.929  28.550  0.5272 -1.4552  0.0951
 7951TIP3    H245345   3.041   3.894  28.570  0.6057 -1.3504  0.8609
 7952TIP3   OH245346   2.402   2.356  41.196 -0.1774 -0.2877 -0.8315
 7952TIP3    H145347   2.332   2.295  41.171 -0.0001 -0.8632  0.0275
 7952TIP3    H245348   2.367   2.402  41.272  1.0647 -1.9571  0.8463
 7953TIP3   OH245349   0.826   2.988  14.413 -0.0313 -0.4323  0.1825
 7953TIP3    H145350   0.787   3.075  14.429  0.5994  1.1183 -4.7984
 7953TIP3    H245351   0.761   2.943  14.359  0.6160 -2.2735  0.8544
 7954TIP3   OH245352   0.486   0.442  32.952 -0.0949 -0.0966  0.2400
 7954TIP3    H145353   0.433   0.366  32.929 -1.3414 -0.0187  2.5443
 7954TIP3    H245354   0.543   0.412  33.022 -1.4952  1.2993  2.0837
 7955TIP3   OH245355   0.402   4.203  25.873 -0.2771  0.6629 -0.0503
 7955TIP3    H145356   0.311   4.174  25.869  0.1426 -0.8382  0.4508
 7955TIP3    H245357   0.398   4.297  25.860 -1.8834  0.6009 -0.2182
 7956TIP3   OH245358   0.360   2.128  12.475  0.1529 -0.1895 -0.1390
 7956TIP3    H145359   0.344   2.046  12.521  1.7694 -0.3255  0.2242
 7956TIP3    H245360   0.410   2.103  12.397 -0.7548  0.2812 -0.8912
 7957TIP3   OH245361   4.107   2.940  23.043  0.0727 -0.6763 -0.1751
 7957TIP3    H145362   4.033   2.941  22.982 -0.7282  1.5565  0.7425
 7957TIP3    H245363   4.139   2.849  23.040 -1.9465 -1.4176 -1.4674
 7958TIP3   OH245364   2.489   3.418  32.018 -0.0185 -0.1850 -0.6459
 7958TIP3    H145365   2.441   3.441  31.938  0.3987 -0.1282 -0.8795
 7958TIP3    H245366   2.574   3.460  32.008  0.5024 -1.2553 -0.7491
 7959TIP3   OH245367   3.565   0.690  36.161  0.1670 -0.2566 -0.1820
 7959TIP3    H145368   3.494   0.753  36.150  2.2092  2.0604 -0.8648
 7959TIP3    H245369   3.583   0.658  36.072  0.3097 -0.4620 -0.0813
 7960TIP3   OH245370   1.441   2.077   5.258  0.3375 -0.4774  0.1699
 7960TIP3    H145371   1.403   2.112   5.339 -0.1977  0.1844 -0.3550
 7960TIP3    H245372   1.438   2.150   5.197 -0.3525 -1.3044 -0.8113
 7961TIP3   OH245373   0.041   2.604   2.059 -0.2222 -0.4982 -0.0596
 7961TIP3    H145374   0.059   2.584   2.150  0.9975 -1.9010 -0.5771
 7961TIP3    H245375  -0.037   2.659   2.062 -0.9585 -1.5485  1.7535
 7962TIP3   OH245376   1.041   2.780  37.921  0.0549  0.0876  0.5771
 7962TIP3    H145377   1.094   2.702  37.940  0.2880  0.4400  1.4127
 7962TIP3    H245378   1.001   2.803  38.005  0.0671  0.9229  0.3614
 7963TIP3   OH245379   1.821   3.271  34.764  0.2185  0.3334 -0.3356
 7963TIP3    H145380   1.870   3.332  34.710  0.7818 -0.4920 -0.7904
 7963TIP3    H245381   1.776   3.326  34.828  0.1681  1.2591 -1.1505
 7964TIP3   OH245382   3.069   0.652   9.247 -1.0268  0.2064 -0.3902
 7964TIP3    H145383   3.080   0.718   9.315  1.2174 -1.5929  1.1336
 7964TIP3    H245384   3.106   0.692   9.168  2.3096  0.1290  0.9965
 7965TIP3   OH245385   2.280   2.580   9.524  1.5336  0.0429 -0.3303
 7965TIP3    H145386   2.209   2.613   9.579  2.0709 -0.2224  0.5460
 7965TIP3    H245387   2.349   2.645   9.533  1.3423  0.3998 -1.3374
 7966TIP3   OH245388   3.465   3.194  31.281 -0.0624  0.6282  0.0454
 7966TIP3    H145389   3.517   3.170  31.358  0.2668  0.6006 -0.1833
 7966TIP3    H245390   3.382   3.224  31.317  0.4017  1.4510  0.4731
 7967TIP3   OH245391   0.938   3.957  14.993 -0.0438  0.4775  0.3095
 7967TIP3    H145392   0.924   4.000  15.078  1.0017 -3.3216  2.6533
 7967TIP3    H245393   0.879   3.882  14.994  1.4123 -0.7734 -1.4328
 7968TIP3   OH245394   2.762   2.398  37.286 -0.0284 -0.4992 -0.0379
 7968TIP3    H145395   2.738   2.330  37.223  0.0117  0.7642 -1.4723
 7968TIP3    H245396   2.812   2.352  37.353  0.8596 -1.7440 -1.4782
 7969TIP3   OH245397   2.448   0.450   9.831 -0.0931  0.2801  0.5435
 7969TIP3    H145398   2.425   0.541   9.847 -0.6300  0.2061  0.2059
 7969TIP3    H245399   2.501   0.452   9.751 -0.2846  0.2750  0.4159
 7970TIP3   OH245400   3.239   2.882  35.491  0.0164 -0.4790  0.1465
 7970TIP3    H145401   3.270   2.961  35.447 -1.4040  0.2458  0.3689
 7970TIP3    H245402   3.157   2.909  35.533 -0.2266 -1.9407  0.6708
 7971TIP3   OH245403   2.685   3.294  29.530 -0.3227 -0.6080  0.3238
 7971TIP3    H145404   2.640   3.378  29.534 -0.4311 -0.6490  0.0085
 7971TIP3    H245405   2.617   3.229  29.548 -0.3266 -0.6520  0.1512
 7972TIP3   OH245406   0.865   0.050  28.132 -0.1597 -0.3695 -0.6410
 7972TIP3    H145407   0.862   0.124  28.070  0.5979 -0.3098 -0.6177
 7972TIP3    H245408   0.807   0.076  28.203  0.3103  0.3420 -0.5029
 7973TIP3   OH245409   3.388   0.269   7.612 -0.2177  0.3577  0.2418
 7973TIP3    H145410   3.339   0.333   7.665  0.7250  0.3341  1.1591
 7973TIP3    H245411   3.423   0.207   7.675 -1.2516 -1.2105 -0.6412
 7974TIP3   OH245412   2.449   1.815   8.759 -0.1513  0.1049  0.1229
 7974TIP3    H145413   2.531   1.860   8.780 -0.1036  0.1637 -0.1861
 7974TIP3    H245414   2.425   1.848   8.672  0.2948 -1.0344 -0.4562
 7975TIP3   OH245415   1.102   1.696   8.829 -0.2054 -0.3449 -0.2071
 7975TIP3    H145416   1.065   1.623   8.879 -1.5006  0.5791  0.2414
 7975TIP3    H245417   1.051   1.698   8.748 -0.3532  0.2141 -0.1036
 7976TIP3   OH245418   0.582   0.665  11.876  0.4052 -0.1032  0.0828
 7976TIP3    H145419   0.616   0.735  11.820  0.0174  0.3733  0.4348
 7976TIP3    H245420   0.660   0.619  11.907  0.6442 -0.1157 -0.5122
 7977TIP3   OH245421   3.252   3.411  34.591 -0.2936  0.1388 -0.1761
 7977TIP3    H145422   3.313   3.378  34.525 -1.6883 -2.4745 -0.3395
 7977TIP3    H245423   3.302   3.409  34.673  0.1944 -0.9475 -0.4710
 7978TIP3   OH245424   2.790   2.285  30.523 -0.0309  0.3402 -0.2885
 7978TIP3    H145425   2.782   2.202  30.476  1.9875 -0.1570  0.1398
 7978TIP3    H245426   2.787   2.351  30.455 -0.8164 -0.1401 -0.7313
 7979TIP3   OH245427   2.679   0.552   0.158  0.1877  0.2810 -0.0019
 7979TIP3    H145428   2.764   0.514   0.137  0.1015 -0.0776  0.2873
 7979TIP3    H245429   2.699   0.639   0.192  0.4104  0.3552 -0.3187
 7980TIP3   OH245430   1.742   2.309  15.293  0.0349  0.0678 -0.3245
 7980TIP3    H145431   1.747   2.313  15.388 -1.1666  0.0977 -0.2485
 7980TIP3    H245432   1.748   2.215  15.273 -0.7935 -0.0287 -0.1411
 7981TIP3   OH245433   2.255   1.365   0.942  0.1462 -0.7235 -0.1268
 7981TIP3    H145434   2.240   1.427   0.870  0.2177 -0.0730  0.4088
 7981TIP3    H245435   2.350   1.365   0.954  0.3259 -2.2113 -1.2150
 7982TIP3   OH245436   3.645   3.676  21.906  0.1440  0.3994 -0.6987
 7982TIP3    H145437   3.684   3.722  21.833 -0.6379  2.3045  0.0209
 7982TIP3    H245438   3.703   3.601  21.922  2.0502  1.6978 -1.2716
 7983TIP3   OH245439   0.120   2.428   5.239  0.5686 -0.2474  0.0151
 7983TIP3    H145440   0.128   2.361   5.307 -0.5466 -2.5793 -1.9774
 7983TIP3    H245441   0.196   2.413   5.183  1.5231  1.6999  0.7376
 7984TIP3   OH245442   1.708   0.405  35.714  0.3637  0.0574  0.2608
 7984TIP3    H145443   1.663   0.321  35.722 -0.1070  0.3879  1.2725
 7984TIP3    H245444   1.725   0.415  35.620 -2.2077  0.1860 -0.2527
 7985TIP3   OH245445   0.119   1.393  34.932 -0.2209  0.6832 -0.2086
 7985TIP3    H145446   0.139   1.437  35.015  1.3305  0.4374 -0.4190
 7985TIP3    H245447   0.113   1.465  34.869 -1.8192  0.9081  0.1599
 7986TIP3   OH245448   3.800   0.230   3.195 -0.1309  0.2274 -0.1105
 7986TIP3    H145449   3.805   0.311   3.145  1.6468  0.3016  0.1238
 7986TIP3    H245450   3.869   0.175   3.158 -1.1862 -1.1218 -0.1436
 7987TIP3   OH245451   4.303   1.925  31.624 -0.6509  0.1897  0.1086
 7987TIP3    H145452   4.225   1.960  31.581 -0.4605  0.6268  0.1057
 7987TIP3    H245453   4.329   1.994  31.685 -1.7795 -1.0245  2.0391
 7988TIP3   OH245454   2.397   2.515  10.957 -0.5271  0.4873  0.5859
 7988TIP3    H145455   2.423   2.424  10.944 -0.1505  0.7272 -0.3741
 7988TIP3    H245456   2.431   2.562  10.881 -1.4734  1.2825  0.6194
 7989TIP3   OH245457   0.321   0.289  39.852 -0.4897 -0.1773 -0.0855
 7989TIP3    H145458   0.363   0.239  39.922  0.7484  0.1730 -0.5489
 7989TIP3    H245459   0.272   0.357  39.898  0.7527  0.3891  0.4558
 7990TIP3   OH245460   1.550   0.225  10.302  0.3458  0.3926 -0.6207
 7990TIP3    H145461   1.587   0.198  10.218 -0.7294  0.0115 -0.9933
 7990TIP3    H245462   1.469   0.271  10.279 -0.4905 -0.5949  0.2262
 7991TIP3   OH245463   0.157   1.122   0.436  0.5481 -0.4208  0.0365
 7991TIP3    H145464   0.216   1.154   0.504  0.2983  0.8526 -0.3055
 7991TIP3    H245465   0.192   1.160   0.355 -1.1978  1.1186 -0.0661
 7992TIP3   OH245466   3.382   1.173  39.903  0.1443  0.0828  0.0433
 7992TIP3    H145467   3.340   1.091  39.925  0.8172 -0.3841 -0.3791
 7992TIP3    H245468   3.416   1.206  39.987 -0.0286 -0.1218  0.1946
 7993TIP3   OH245469   0.598   3.775   9.399 -0.3706  0.0541 -0.0700
 7993TIP3    H145470   0.506   3.792   9.377 -0.3090  0.3110 -0.1334
 7993TIP3    H245471   0.610   3.820   9.483  0.3505  2.1253 -1.2097
 7994TIP3   OH245472   1.848   3.190   1.023  0.1441 -0.3023  0.5273
 7994TIP3    H145473   1.882   3.186   0.934  0.0466 -0.7681  0.5054
 7994TIP3    H245474   1.813   3.279   1.032 -0.0372 -0.3225  0.0298
 7995TIP3   OH245475   1.000   2.716   7.241 -0.4692 -0.0467  0.0104
 7995TIP3    H145476   1.023   2.656   7.312 -2.0200  0.6229  1.1299
 7995TIP3    H245477   0.976   2.659   7.168 -1.1437 -0.7994  0.7950
 7996TIP3   OH245478   1.945   0.736  13.544  0.3792 -0.1763 -0.0799
 7996TIP3    H145479   1.993   0.691  13.474  3.1636  2.7197 -0.2350
 7996TIP3    H245480   1.881   0.790  13.499  1.4663  0.8935 -0.3812
 7997TIP3   OH245481   3.350   0.096   2.853  0.8149 -0.3521 -0.3221
 7997TIP3    H145482   3.423   0.086   2.792  2.4243 -0.6933  1.5795
 7997TIP3    H245483   3.366   0.032   2.922 -1.4180 -0.5872  0.0580
 7998TIP3   OH245484   2.186   2.374   9.366  0.3865  0.3097 -0.1156
 7998TIP3    H145485   2.235   2.359   9.286  0.8897  0.1699  0.2152
 7998TIP3    H245486   2.230   2.448   9.408  0.0892  0.4230  0.0005
 7999TIP3   OH245487   1.098   1.538  37.071 -0.5287 -0.4482  1.0977
 7999TIP3    H145488   1.029   1.504  37.129 -0.8994  0.8935  1.4865
 7999TIP3    H245489   1.056   1.611  37.025 -0.2774 -1.5192 -0.9692
 8000TIP3   OH245490   3.050   2.057   5.145 -0.2319  0.1948 -0.1401
 8000TIP3    H145491   3.127   2.113   5.154 -0.2839  0.0885  1.1955
 8000TIP3    H245492   3.044   2.039   5.051  0.4805  1.4415 -0.4489
 8001TIP3   OH245493   2.046   1.965  11.050 -0.5943  0.8644  0.0080
 8001TIP3    H145494   2.101   1.893  11.080  0.5753  1.4833 -0.5573
 8001TIP3    H245495   2.028   1.946  10.958 -0.1896  1.3264 -0.1757
 8002TIP3   OH245496   2.179   1.472  39.520  0.5135 -0.1558  0.7515
 8002TIP3    H145497   2.259   1.426  39.545  1.3471  1.4981  1.2402
 8002TIP3    H245498   2.170   1.456  39.426  2.2603  0.8606  0.3846
 8003TIP3   OH245499   2.562   2.329   4.733  0.2611 -0.2717  0.0528
 8003TIP3    H145500   2.570   2.258   4.797  0.8098  1.1612  1.6601
 8003TIP3    H245501   2.643   2.325   4.682  0.8604 -0.0608  0.9607
 8004TIP3   OH245502   1.428   0.389  11.481  0.0683 -1.1694  0.4834
 8004TIP3    H145503   1.478   0.462  11.443 -1.5468 -0.2489  0.0229
 8004TIP3    H245504   1.442   0.316  11.421  0.6929 -0.8653  0.2536
 8005TIP3   OH245505   0.738   3.889  36.968 -0.2112  0.2021 -0.3068
 8005TIP3    H145506   0.789   3.809  36.954  0.6393  0.9867 -1.9811
 8005TIP3    H245507   0.649   3.859  36.987  0.5446 -1.1675  1.3071
 8006TIP3   OH245508   0.783   4.290  13.018 -0.6496  0.2125 -0.7403
 8006TIP3    H145509   0.807   4.340  13.096 -1.9176  1.1588 -0.9042
 8006TIP3    H245510   0.856   4.302  12.958  0.3117 -0.4809  0.2689
 8007TIP3   OH245511   1.139   2.701   1.618 -0.4443  0.0511 -0.5950
 8007TIP3    H145512   1.120   2.640   1.689 -1.1692  0.5656 -0.3395
 8007TIP3    H245513   1.187   2.773   1.660  1.7406 -0.9769 -1.1333
 8008TIP3   OH245514   4.034   1.409  26.650  0.5463  0.2245  0.0603
 8008TIP3    H145515   4.124   1.401  26.619 -0.0314 -2.2348 -1.3177
 8008TIP3    H245516   3.997   1.480  26.599  1.1564 -0.1297 -0.9102
 8009TIP3   OH245517   0.566   2.907  10.776 -0.2981 -1.0502 -0.2478
 8009TIP3    H145518   0.536   2.978  10.834  0.9478 -0.0473 -0.7982
 8009TIP3    H245519   0.584   2.950  10.693  2.2334 -1.6556 -0.0697
 8010TIP3   OH245520   1.500   1.708  10.771  0.0733  0.5924  0.2302
 8010TIP3    H145521   1.580   1.712  10.719 -0.3255  2.6942 -0.3196
 8010TIP3    H245522   1.444   1.646  10.724  0.8209  0.2370 -0.2063
 8011TIP3   OH245523   3.205   1.373  34.598 -0.1537 -0.1328 -0.4521
 8011TIP3    H145524   3.227   1.285  34.569  0.3309  0.3395 -1.6089
 8011TIP3    H245525   3.124   1.394  34.552  0.9809  0.8799 -2.1137
 8012TIP3   OH245526   1.231   1.332   8.909 -0.5232  0.0078  0.0511
 8012TIP3    H145527   1.205   1.396   8.975 -0.2755 -0.3860  0.5401
 8012TIP3    H245528   1.259   1.256   8.960  1.9193  0.5107 -0.4131
 8013TIP3   OH245529   0.304   1.302  28.092  0.8958  0.3190  0.7090
 8013TIP3    H145530   0.270   1.356  28.020  1.1414  0.0917  0.4196
 8013TIP3    H245531   0.399   1.305  28.081  0.8790 -1.6135 -0.3963
 8014TIP3   OH245532   3.546   0.264  25.110  0.4662 -0.0658 -0.5600
 8014TIP3    H145533   3.470   0.241  25.057  0.1413  0.7700 -0.4833
 8014TIP3    H245534   3.569   0.184  25.156 -0.2289 -0.3918 -0.7643
 8015TIP3   OH245535   2.746   1.127  10.828  0.0648 -0.3680  0.0664
 8015TIP3    H145536   2.681   1.063  10.858 -1.1026  0.9714  0.5289
 8015TIP3    H245537   2.810   1.132  10.899 -0.7142  0.1219  0.7549
 8016TIP3   OH245538   3.591   0.856   1.382  0.7002  0.5232 -0.2931
 8016TIP3    H145539   3.537   0.883   1.308 -0.2537 -0.3495  0.0721
 8016TIP3    H245540   3.619   0.938   1.423 -1.0538  0.9856  0.0228
 8017TIP3   OH245541   2.669   2.040  39.598 -0.2415  0.6434  0.3726
 8017TIP3    H145542   2.615   2.101  39.548 -0.3829  0.8251  0.7396
 8017TIP3    H245543   2.627   1.955  39.585  0.8705  0.3393 -1.4431
 8018TIP3   OH245544   2.485   2.472  38.841 -0.3129 -0.0246 -0.1680
 8018TIP3    H145545   2.493   2.534  38.769  1.4705 -0.1198 -0.0947
 8018TIP3    H245546   2.480   2.387  38.799  0.5860 -0.0690 -0.2029
 8019TIP3   OH245547   2.282   2.617   3.839 -0.4190 -0.3753  0.2440
 8019TIP3    H145548   2.374   2.646   3.842 -1.2813  2.6071  1.4218
 8019TIP3    H245549   2.274   2.574   3.754  1.2019  2.7076 -1.6403
 8020TIP3   OH245550   3.927   0.753  39.285 -0.2502  0.0920 -0.1966
 8020TIP3    H145551   3.884   0.669  39.268 -1.2095  0.4116  0.5573
 8020TIP3    H245552   3.905   0.806  39.208 -0.0233 -0.1998 -0.4645
 8021TIP3   OH245553   1.252   2.638  35.120  0.0042 -0.3168 -0.1828
 8021TIP3    H145554   1.260   2.730  35.144  1.3349 -0.7141  1.1093
 8021TIP3    H245555   1.294   2.591  35.193  0.2791 -1.8786 -1.2982
 8022TIP3   OH245556   1.284   1.278  28.817 -0.0379 -0.0468  0.1408
 8022TIP3    H145557   1.204   1.226  28.823 -0.8143  1.0633 -0.2736
 8022TIP3    H245558   1.327   1.247  28.738  0.3377 -1.1521  0.7482
 8023TIP3   OH245559   3.194   4.382  26.945 -0.2159 -0.2260  0.6200
 8023TIP3    H145560   3.146   4.324  27.004  1.3036 -0.3251  1.8208
 8023TIP3    H245561   3.145   4.379  26.863 -0.9633 -2.0963  1.0819
 8024TIP3   OH245562   0.650   0.584  27.923 -0.3486 -0.0229 -0.3944
 8024TIP3    H145563   0.697   0.555  27.845 -0.9321 -2.7371  0.1749
 8024TIP3    H245564   0.598   0.659  27.893  1.5698  0.8138 -1.8739
 8025TIP3   OH245565   2.848   2.728  36.991 -0.0582 -0.2013  0.1465
 8025TIP3    H145566   2.908   2.659  36.963  1.9203  1.1479  0.9258
 8025TIP3    H245567   2.803   2.691  37.067 -0.2242 -1.2104 -0.4210
 8026TIP3   OH245568   1.886   2.472  39.858  0.4456  0.1848  0.7739
 8026TIP3    H145569   1.883   2.454  39.764 -0.2251 -2.2992  1.2012
 8026TIP3    H245570   1.974   2.446  39.885  0.9280  1.6926  0.7312
 8027TIP3   OH245571   0.301   3.118  21.566 -0.1147 -0.3926 -0.8120
 8027TIP3    H145572   0.308   3.129  21.471 -0.7204 -0.4966 -0.8715
 8027TIP3    H245573   0.369   3.055  21.588  0.2891 -0.0710 -1.1190
 8028TIP3   OH245574   1.232   0.124  27.151  0.1532 -0.5565 -0.5232
 8028TIP3    H145575   1.243   0.138  27.245 -0.5784 -0.0115 -0.5132
 8028TIP3    H245576   1.300   0.179  27.111 -0.4192  0.2910 -0.3541
 8029TIP3   OH245577   1.913   2.397   2.889 -0.0337 -0.6621  0.2763
 8029TIP3    H145578   1.999   2.356   2.893  0.9496  1.1246 -0.9567
 8029TIP3    H245579   1.873   2.363   2.809  1.2748  1.5032 -1.4178
 8030TIP3   OH245580   0.806   1.280   3.763 -0.4402  0.3928  0.2077
 8030TIP3    H145581   0.784   1.354   3.706  0.5840  0.3533 -0.2787
 8030TIP3    H245582   0.783   1.203   3.711  0.3376  0.3592 -0.1068
 8031TIP3   OH245583   3.959   0.108   4.300  0.3890 -0.0574 -0.6707
 8031TIP3    H145584   4.032   0.130   4.242  0.9911 -0.2653 -0.0177
 8031TIP3    H245585   3.964   0.173   4.370  0.6859 -0.7796 -0.0047
 8032TIP3   OH245586   3.146   1.290  37.411  0.7381  0.8283 -0.1961
 8032TIP3    H145587   3.098   1.266  37.332 -0.3329 -3.2976  1.4595
 8032TIP3    H245588   3.238   1.278  37.388  0.5874  1.9189 -1.4201
 8033TIP3   OH245589   2.665   1.414   2.745 -0.1259 -0.4821 -0.5336
 8033TIP3    H145590   2.757   1.427   2.767 -0.2949 -1.9747  1.3926
 8033TIP3    H245591   2.648   1.473   2.672  2.1619  0.3495 -0.4519
 8034TIP3   OH245592   0.781   1.302   4.361  0.6589  0.4314 -0.1362
 8034TIP3    H145593   0.800   1.212   4.387  0.6086  0.5964  0.5077
 8034TIP3    H245594   0.704   1.295   4.305  1.4708 -0.0517 -1.2240
 8035TIP3   OH245595   1.128   4.221  30.823 -0.5894  0.3591 -0.2737
 8035TIP3    H145596   1.083   4.137  30.821  1.5091 -0.9088  1.1670
 8035TIP3    H245597   1.210   4.206  30.776 -0.6000  1.9237 -0.8753
 8036TIP3   OH245598   4.346   1.119  36.296  0.1587 -0.8100  0.1696
 8036TIP3    H145599   4.353   1.116  36.391  0.9565 -0.9716  0.1074
 8036TIP3    H245600   4.432   1.092  36.264 -0.4776 -1.9928 -0.6067
 8037TIP3   OH245601   0.117   0.613  11.780 -0.5661 -0.0566  0.1359
 8037TIP3    H145602   0.158   0.622  11.866  0.5604  0.9398 -0.4900
 8037TIP3    H245603   0.189   0.615  11.718 -1.4512  0.3088 -0.9089
 8038TIP3   OH245604   4.316   0.628  32.747 -0.3546 -0.2560 -0.0697
 8038TIP3    H145605   4.326   0.600  32.838  0.0585 -0.3858 -0.1507
 8038TIP3    H245606   4.229   0.598  32.722 -0.8764  0.6486  0.5871
 8039TIP3   OH245607   2.075   3.545   9.441  0.5183 -0.7948 -0.0336
 8039TIP3    H145608   2.105   3.485   9.374  1.0748 -0.4653 -0.0871
 8039TIP3    H245609   2.099   3.503   9.524 -0.0941 -1.1618 -0.0365
 8040TIP3   OH245610   1.761   0.402  29.436  0.0552 -0.2760 -0.0401
 8040TIP3    H145611   1.667   0.422  29.442  0.3089  0.8056  0.5184
 8040TIP3    H245612   1.764   0.310  29.409 -1.1660 -0.3111 -0.1086
 8041TIP3   OH245613   3.600   3.606   4.379 -0.3364  0.0732  0.8018
 8041TIP3    H145614   3.534   3.656   4.332  0.9949  1.0269 -0.1589
 8041TIP3    H245615   3.571   3.515   4.373 -0.3429  0.1777 -1.7574
 8042TIP3   OH245616   3.653   0.774  40.381  0.4295  0.0751  0.3671
 8042TIP3    H145617   3.575   0.719  40.385  0.0488  0.6649  1.6323
 8042TIP3    H245618   3.696   0.762  40.466  2.6239 -1.4718 -0.8819
 8043TIP3   OH245619   3.851   3.247  39.330 -0.3404  0.1061  0.1103
 8043TIP3    H145620   3.844   3.296  39.412  2.4553  0.1296  0.4328
 8043TIP3    H245621   3.760   3.231  39.304 -1.4829 -1.9409  4.4044
 8044TIP3   OH245622   1.184   3.713  12.039  0.1479 -0.1118 -0.4187
 8044TIP3    H145623   1.177   3.806  12.017  2.3313 -0.0198 -0.9237
 8044TIP3    H245624   1.260   3.708  12.097  1.0402 -1.7503 -1.6609
 8045TIP3   OH245625   2.827   1.510  31.337  0.1943 -0.1208  0.5315
 8045TIP3    H145626   2.761   1.497  31.405  1.5514 -1.9728  1.6004
 8045TIP3    H245627   2.815   1.436  31.278  1.9709 -1.1544  1.3745
 8046TIP3   OH245628   0.425   2.068  30.193 -0.2660  0.2868  0.0370
 8046TIP3    H145629   0.427   2.028  30.105 -0.5446 -0.5122  0.3768
 8046TIP3    H245630   0.333   2.092  30.206 -0.4384 -0.5845  0.5230
 8047TIP3   OH245631   2.103   0.063  14.467 -0.5228 -0.0677 -0.0081
 8047TIP3    H145632   2.165   0.090  14.399 -1.0652 -0.4439 -0.6622
 8047TIP3    H245633   2.088   0.142  14.518  0.5282  0.0210  0.1886
 8048TIP3   OH245634   0.209   1.600  40.062 -0.1399  0.3832  0.4425
 8048TIP3    H145635   0.273   1.591  39.992 -1.3674 -0.3248 -0.6131
 8048TIP3    H245636   0.261   1.630  40.137  1.4359 -0.2448 -0.3433
 8049TIP3   OH245637   2.163   0.699   6.450  0.2268 -0.0557 -0.0930
 8049TIP3    H145638   2.162   0.722   6.543 -1.9269  0.7871 -0.2650
 8049TIP3    H245639   2.153   0.783   6.405  0.5027 -0.5360 -1.0690
 8050TIP3   OH245640   0.298   4.314   9.792 -0.0107 -0.0456  0.0040
 8050TIP3    H145641   0.268   4.296   9.703 -1.3967  0.5196  0.3375
 8050TIP3    H245642   0.254   4.248   9.846  2.0516 -1.4337  0.1409
 8051TIP3   OH245643   1.454   1.312  17.009  0.2203  0.9777 -0.3807
 8051TIP3    H145644   1.533   1.364  16.994  0.2882  0.7171 -0.9243
 8051TIP3    H245645   1.415   1.302  16.923 -0.0580  0.5396 -0.2061
 8052TIP3   OH245646   1.956   2.088  14.867  0.1564 -0.3356 -0.2897
 8052TIP3    H145647   1.925   2.093  14.958  1.0011 -0.6344  0.0214
 8052TIP3    H245648   1.921   2.167  14.826  1.2502  0.7300  0.7621
 8053TIP3   OH245649   1.357   1.238  31.308  0.4096 -0.8715  0.3390
 8053TIP3    H145650   1.373   1.192  31.225 -1.9608 -0.0953 -0.6425
 8053TIP3    H245651   1.262   1.236  31.318  0.3016  2.3302  1.0572
 8054TIP3   OH245652   3.201   3.659  30.878 -0.3418  0.0094 -0.3295
 8054TIP3    H145653   3.251   3.637  30.956 -2.4984 -2.0501  0.5841
 8054TIP3    H245654   3.157   3.742  30.900  1.8585  1.4072 -0.8502
 8055TIP3   OH245655   0.612   2.686  33.252 -0.5614  0.1761 -0.1207
 8055TIP3    H145656   0.693   2.737  33.260 -1.2595  1.4295 -0.6526
 8055TIP3    H245657   0.548   2.735  33.304 -1.1377 -0.4300 -0.2493
 8056TIP3   OH245658   3.129   3.650   7.659  0.4626 -0.0914  0.3792
 8056TIP3    H145659   3.166   3.733   7.628 -0.1881  0.3829  0.8367
 8056TIP3    H245660   3.171   3.583   7.605 -1.0225  0.7258 -1.9687
 8057TIP3   OH245661   3.184   0.931  12.978 -0.3097  0.6849 -0.0071
 8057TIP3    H145662   3.169   1.026  12.976 -2.2153  0.4160 -0.6115
 8057TIP3    H245663   3.236   0.913  12.900  1.0846  1.3510  0.7317
 8058TIP3   OH245664   1.989   3.907   3.154  0.3664  0.2329  0.6579
 8058TIP3    H145665   1.937   3.831   3.180 -0.3553  0.4824 -0.0252
 8058TIP3    H245666   2.076   3.890   3.189  0.1832 -0.8586  0.6017
 8059TIP3   OH245667   0.442   1.366  36.491  0.4237  0.1597 -0.1429
 8059TIP3    H145668   0.408   1.456  36.483 -0.6405 -0.0655  1.4305
 8059TIP3    H245669   0.382   1.314  36.438  1.3335  0.4116 -1.4631
 8060TIP3   OH245670   2.698   3.420   7.083 -0.3885  0.7415  0.1528
 8060TIP3    H145671   2.686   3.478   7.158 -1.7402  0.4693  0.1705
 8060TIP3    H245672   2.793   3.406   7.078 -0.2678  0.9008  1.6840
 8061TIP3   OH245673   1.365   3.288   5.512  0.3811  0.2465 -0.4125
 8061TIP3    H145674   1.315   3.344   5.453  0.0152  0.2119 -0.1346
 8061TIP3    H245675   1.453   3.287   5.474 -0.0822 -0.5667 -1.4993
 8062TIP3   OH245676   0.370   0.639   7.351  0.5482  0.3350 -0.1399
 8062TIP3    H145677   0.415   0.559   7.322  0.5895 -0.5418  2.1311
 8062TIP3    H245678   0.382   0.640   7.446 -1.9894  1.4603  0.2548
 8063TIP3   OH245679   3.806   3.304   8.466  0.0028 -0.3312  0.2823
 8063TIP3    H145680   3.855   3.333   8.389  0.6988 -0.2725  0.7359
 8063TIP3    H245681   3.762   3.383   8.498  0.4688 -0.1458  0.4815
 8064TIP3   OH245682   4.271   3.735  31.786  0.2402 -0.8270  0.5209
 8064TIP3    H145683   4.239   3.716  31.874  1.0721 -1.8138  0.6308
 8064TIP3    H245684   4.262   3.653  31.739  0.5017 -0.5091 -0.0964
 8065TIP3   OH245685   1.660   2.573  37.932  0.0919  0.2353 -0.1102
 8065TIP3    H145686   1.713   2.619  37.998  1.2995 -0.1324 -0.7967
 8065TIP3    H245687   1.587   2.632  37.915 -0.5793  0.1003  1.9585
 8066TIP3   OH245688   4.094   0.052   8.881  0.0064  0.1763  0.1743
 8066TIP3    H145689   4.127  -0.019   8.935  0.7871  1.0085  0.8314
 8066TIP3    H245690   4.026   0.012   8.826 -0.1682 -0.8816  1.1287
 8067TIP3   OH245691   3.588   1.750  26.250  0.4391  0.4330  0.1025
 8067TIP3    H145692   3.625   1.831  26.283 -0.3949  0.1316  1.8734
 8067TIP3    H245693   3.513   1.778  26.197  1.3762  0.8806 -1.0522
 8068TIP3   OH245694   3.529   0.228   4.177  0.0162  0.6066 -0.2819
 8068TIP3    H145695   3.607   0.175   4.196 -0.1306  0.4085 -0.2330
 8068TIP3    H245696   3.465   0.200   4.243 -0.8321 -0.7775 -1.6160
 8069TIP3   OH245697   1.874   1.176  36.863  0.2559 -0.2935 -0.5806
 8069TIP3    H145698   1.904   1.110  36.925 -0.3326  0.2383  0.2899
 8069TIP3    H245699   1.953   1.228  36.844 -0.1861  1.9429  2.7325
 8070TIP3   OH245700   1.554   2.298  11.792 -0.2127 -0.9017  0.0608
 8070TIP3    H145701   1.547   2.393  11.806  1.3869 -0.9289  1.3599
 8070TIP3    H245702   1.489   2.260  11.850 -0.6925 -0.6292 -0.2862
 8071TIP3   OH245703   0.475   3.598   6.354  0.3044 -0.5439  0.2291
 8071TIP3    H145704   0.451   3.653   6.429 -1.3556  0.3237 -0.8764
 8071TIP3    H245705   0.568   3.580   6.366  0.9720  2.6318  0.5765
 8072TIP3   OH245706   1.911   1.098  36.203  0.2706 -0.2685  0.2194
 8072TIP3    H145707   1.987   1.137  36.247  0.2855  0.5254 -0.4728
 8072TIP3    H245708   1.948   1.033  36.144  0.4136  0.0385 -0.0346
 8073TIP3   OH245709   0.283   0.283   7.126 -0.2187 -0.2273  0.2540
 8073TIP3    H145710   0.194   0.279   7.160 -0.3037  0.6026  0.1544
 8073TIP3    H245711   0.292   0.372   7.092  0.9555  0.0241  1.1361
 8074TIP3   OH245712   1.171   2.658  39.057 -0.3797  0.2175 -0.4180
 8074TIP3    H145713   1.097   2.715  39.037 -0.5678  0.0455 -0.2228
 8074TIP3    H245714   1.154   2.627  39.146  1.1908  2.1576  0.6598
 8075TIP3   OH245715   2.509   1.623  10.777  0.1435  0.3222 -0.2524
 8075TIP3    H145716   2.604   1.614  10.774  0.0089 -2.3203  0.7354
 8075TIP3    H245717   2.476   1.538  10.749 -1.8714  0.2337  2.0491
 8076TIP3   OH245718   3.283   0.236  12.944 -0.1990 -0.0284 -0.1604
 8076TIP3    H145719   3.200   0.225  12.898 -0.1508  0.0672 -0.2712
 8076TIP3    H245720   3.330   0.154  12.931  0.1001  0.2468 -0.8611
 8077TIP3   OH245721   1.216   2.594  12.252  0.0455  0.1421  0.7426
 8077TIP3    H145722   1.288   2.650  12.282  2.3921 -1.9810 -0.4782
 8077TIP3    H245723   1.182   2.639  12.175  1.0483  0.5327  0.5087
 8078TIP3   OH245724   2.822   2.273  10.353  0.1128 -0.0824 -0.0434
 8078TIP3    H145725   2.744   2.235  10.394  0.0285  0.8066  0.6661
 8078TIP3    H245726   2.792   2.301  10.266 -0.9044  1.9226  0.8710
 8079TIP3   OH245727   1.157   1.069  40.618 -0.0833 -0.4328 -0.3398
 8079TIP3    H145728   1.167   1.111  40.532  0.2432  0.6116  0.1962
 8079TIP3    H245729   1.194   1.132  40.680 -0.0150 -1.3198  0.5397
 8080TIP3   OH245730   2.110   0.402   1.501  0.1683 -0.0233 -0.2678
 8080TIP3    H145731   2.087   0.320   1.457 -2.3832  1.0278 -1.0770
 8080TIP3    H245732   2.106   0.382   1.594  3.1652 -1.6497 -0.3600
 8081TIP3   OH245733   3.555   0.490  30.703  0.2658 -0.3289 -0.1062
 8081TIP3    H145734   3.464   0.502  30.730  0.4301 -0.0193  0.3278
 8081TIP3    H245735   3.559   0.400  30.672 -0.1026 -0.4639  0.2269
 8082TIP3   OH245736   0.083   4.264  29.837  0.5287  0.3690  0.4221
 8082TIP3    H145737   0.162   4.238  29.789 -0.5733 -0.0525 -1.2642
 8082TIP3    H245738   0.030   4.184  29.839 -1.5341  1.5343 -2.0021
 8083TIP3   OH245739   4.130   3.195   5.704 -0.0609 -0.1490  0.7118
 8083TIP3    H145740   4.159   3.273   5.750 -0.4376  0.4414 -0.0260
 8083TIP3    H245741   4.191   3.185   5.632 -2.1184  1.6731 -1.4475
 8084TIP3   OH245742   3.395   1.258  12.067 -0.3289 -0.6032  0.2165
 8084TIP3    H145743   3.467   1.306  12.027  0.0931 -0.1779  1.4462
 8084TIP3    H245744   3.435   1.182  12.108 -1.1453 -2.8665 -2.8602
 8085TIP3   OH245745   0.453   0.688  36.341 -0.5347  0.0777  0.5148
 8085TIP3    H145746   0.459   0.755  36.409  0.9045  0.7584 -0.2414
 8085TIP3    H245747   0.393   0.622  36.378  0.3302  0.3351  2.5188
 8086TIP3   OH245748   2.957   3.640  12.521  0.2837 -0.4021 -0.5287
 8086TIP3    H145749   3.021   3.575  12.490  2.1646 -0.0677  2.3116
 8086TIP3    H245750   2.924   3.604  12.603 -0.6134  1.0557 -0.2277
 8087TIP3   OH245751   0.175   0.503  37.583  0.3644  0.1538 -0.1716
 8087TIP3    H145752   0.124   0.553  37.646 -0.3124 -0.1751 -0.4398
 8087TIP3    H245753   0.127   0.420  37.575 -0.2535  0.6433 -2.0116
 8088TIP3   OH245754   3.385   3.017  30.447  0.4144 -0.0805  0.1801
 8088TIP3    H145755   3.346   3.103  30.463  1.0754  0.1875  0.3745
 8088TIP3    H245756   3.437   3.000  30.525  0.5375 -0.5178  0.0013
 8089TIP3   OH245757   3.774   1.703  39.801  0.9514  0.2312 -0.3973
 8089TIP3    H145758   3.789   1.614  39.831  0.1143 -0.6394 -2.3880
 8089TIP3    H245759   3.725   1.693  39.720 -1.3339  2.5854  0.5630
 8090TIP3   OH245760   0.912   1.329   5.977  0.8408 -0.0166  0.2226
 8090TIP3    H145761   0.827   1.292   5.954  1.2084  0.2139 -1.6779
 8090TIP3    H245762   0.892   1.417   6.010  0.3598  0.3289 -0.9370
 8091TIP3   OH245763   2.498   2.679  30.769  0.0323 -0.3356 -0.7947
 8091TIP3    H145764   2.472   2.604  30.822 -0.9374 -0.3808 -1.3234
 8091TIP3    H245765   2.592   2.687  30.784 -0.2601 -0.1895  1.1179
 8092TIP3   OH245766   1.007   3.055  18.882  0.7533  0.1750 -0.2492
 8092TIP3    H145767   1.008   2.961  18.895 -0.5995  0.2731  0.8785
 8092TIP3    H245768   1.053   3.069  18.800  0.0362 -1.5587 -0.9921
 8093TIP3   OH245769   3.026   2.718  33.959 -0.1535 -0.6088  0.3132
 8093TIP3    H145770   3.088   2.715  33.886 -0.8502  0.8408 -0.3660
 8093TIP3    H245771   3.077   2.689  34.035  0.7917 -1.3804 -0.5855
 8094TIP3   OH245772   1.657   4.073  36.006 -0.5993  0.2313  0.0121
 8094TIP3    H145773   1.656   4.115  35.920  1.5329  2.0924  0.7672
 8094TIP3    H245774   1.707   3.993  35.994 -1.6765 -0.3341 -0.7751
 8095TIP3   OH245775   4.384   2.284  30.864  0.5328  0.1396  0.2928
 8095TIP3    H145776   4.356   2.375  30.872  0.8917  0.2023  0.8974
 8095TIP3    H245777   4.335   2.238  30.933  0.7229 -0.0301  0.3158
 8096TIP3   OH245778   3.829   3.850   9.966 -0.2681 -0.6740  0.2715
 8096TIP3    H145779   3.785   3.865   9.882  1.0661 -1.5554 -0.6427
 8096TIP3    H245780   3.777   3.782  10.009  0.3569 -2.0402 -0.9950
 8097TIP3   OH245781   0.203   4.182   4.639  0.2350  0.0252 -0.2957
 8097TIP3    H145782   0.248   4.118   4.584 -0.4600  0.3469 -1.2581
 8097TIP3    H245783   0.156   4.129   4.704  0.9226 -0.3640 -0.1096
 8098TIP3   OH245784   4.200   0.611  30.418 -0.5053  0.0645 -0.0725
 8098TIP3    H145785   4.285   0.646  30.392  0.3693 -2.3910 -0.7898
 8098TIP3    H245786   4.145   0.621  30.341 -0.1637 -0.3626 -0.3813
 8099TIP3   OH245787   3.153   3.953   0.697  0.0308  0.2263  0.5048
 8099TIP3    H145788   3.193   3.976   0.781  1.1216  1.8581 -0.3854
 8099TIP3    H245789   3.227   3.928   0.641 -0.4934  0.6107 -0.3890
 8100TIP3   OH245790   2.061   0.362   9.276 -0.0805 -0.3163  0.1767
 8100TIP3    H145791   2.043   0.394   9.364 -0.0418  0.0846  0.0418
 8100TIP3    H245792   2.149   0.325   9.282 -0.9856 -2.4587  0.8819
 8101TIP3   OH245793   4.250   1.172  11.203  0.3589 -0.5592 -0.3354
 8101TIP3    H145794   4.194   1.186  11.279 -1.7911 -1.2048 -1.6787
 8101TIP3    H245795   4.234   1.080  11.179  1.2099 -0.4496 -1.3739
 8102TIP3   OH245796   2.764   3.414   5.907  0.5415 -0.1784  0.0378
 8102TIP3    H145797   2.858   3.432   5.901  0.8646 -1.7739 -0.3913
 8102TIP3    H245798   2.722   3.493   5.875  1.7152  0.7612  0.7088
 8103TIP3   OH245799   3.981   0.160  11.697  0.1837 -0.2230  0.1010
 8103TIP3    H145800   4.003   0.247  11.731  0.7451  0.5882 -2.1623
 8103TIP3    H245801   4.029   0.099  11.753  1.0135  1.0080  0.7723
 8104TIP3   OH245802   3.441   2.795   6.267  0.2615 -0.3715  0.3714
 8104TIP3    H145803   3.462   2.845   6.346  0.4349  1.7284 -0.9244
 8104TIP3    H245804   3.360   2.747   6.289  0.3168  0.1499  1.8014
 8105TIP3   OH245805   2.302   4.027   7.005  0.1259  0.0811  0.2487
 8105TIP3    H145806   2.307   3.978   7.087  0.0639  1.3532  1.0566
 8105TIP3    H245807   2.208   4.037   6.989  0.0949 -1.8214 -1.0598
 8106TIP3   OH245808   0.696   1.637  29.599 -0.2012 -0.3327  0.3242
 8106TIP3    H145809   0.762   1.699  29.632 -1.4865  1.1336  0.2620
 8106TIP3    H245810   0.648   1.611  29.678 -1.0945  0.5277  0.0837
 8107TIP3   OH245811   0.826   0.666   6.641 -0.1490 -0.6419 -0.1818
 8107TIP3    H145812   0.826   0.649   6.547 -0.6288 -1.7563  0.0024
 8107TIP3    H245813   0.866   0.588   6.680 -1.4446 -0.9509  0.6262
 8108TIP3   OH245814   0.119   0.676  35.202 -0.1680 -0.2603 -0.1938
 8108TIP3    H145815   0.121   0.649  35.293  0.9887  0.7332  0.1057
 8108TIP3    H245816   0.185   0.622  35.159 -0.3372 -0.3583 -0.3328
 8109TIP3   OH245817   2.094   0.587  17.106  0.0489  0.2952 -0.0602
 8109TIP3    H145818   2.070   0.656  17.044  0.2871  0.7161  0.3024
 8109TIP3    H245819   2.071   0.624  17.192 -2.1940 -1.0692  0.0091
 8110TIP3   OH245820   0.548   1.820  35.701  0.8122 -0.1904  0.2598
 8110TIP3    H145821   0.592   1.872  35.768  1.3216  1.1041 -1.0362
 8110TIP3    H245822   0.458   1.852  35.702  0.8667 -0.0352  0.1860
 8111TIP3   OH245823   1.478   1.172  39.814 -0.3082  0.2332  0.0452
 8111TIP3    H145824   1.449   1.262  39.802  0.3535  0.2895 -1.3687
 8111TIP3    H245825   1.571   1.179  39.837 -0.3582 -0.0849  0.3654
 8112TIP3   OH245826   3.388   4.359  24.414 -0.3402 -0.1378  0.5153
 8112TIP3    H145827   3.477   4.372  24.382  0.3696 -1.2418  1.8945
 8112TIP3    H245828   3.354   4.447  24.428  0.2191  0.3075 -0.8031
 8113TIP3   OH245829   1.899   1.311  15.682  0.8011 -0.3546  0.0781
 8113TIP3    H145830   1.829   1.369  15.712  0.2377 -0.8613 -0.2216
 8113TIP3    H245831   1.932   1.271  15.763  1.7150  0.9227  0.3700
 8114TIP3   OH245832   0.550   2.462  31.544 -0.5364  0.1546  0.4185
 8114TIP3    H145833   0.551   2.485  31.636 -0.5782  0.8021  0.2614
 8114TIP3    H245834   0.639   2.482  31.513 -1.1018  1.9704 -0.1567
 8115TIP3   OH245835   1.852   0.141  34.865  0.0136 -0.1394  0.1842
 8115TIP3    H145836   1.807   0.077  34.920  0.2853 -0.3141  0.2055
 8115TIP3    H245837   1.830   0.226  34.904  0.9710 -0.3144  1.1437
 8116TIP3   OH245838   1.078   0.702   8.325  0.1222  0.4984  0.1671
 8116TIP3    H145839   1.052   0.688   8.416  0.8552 -1.3461  0.1320
 8116TIP3    H245840   0.996   0.709   8.277 -0.2821 -0.1217  0.7572
 8117TIP3   OH245841   4.121   0.804  29.172  0.2074 -0.3474  0.0146
 8117TIP3    H145842   4.119   0.802  29.077 -2.8172  0.7129 -0.0404
 8117TIP3    H245843   4.119   0.897  29.195 -0.4705 -0.6073  1.1018
 8118TIP3   OH245844   1.347   0.021  37.151 -0.0669 -0.4562  0.6363
 8118TIP3    H145845   1.405   0.031  37.075 -0.1746  1.4774  0.7376
 8118TIP3    H245846   1.358  -0.069  37.179  0.6338 -0.9661 -1.1565
 8119TIP3   OH245847   1.390   0.985  32.086  0.0132 -0.1384 -0.3337
 8119TIP3    H145848   1.420   0.990  32.176  0.0043 -1.5093 -0.2383
 8119TIP3    H245849   1.358   0.895  32.076  0.4918 -0.1643 -1.8469
 8120TIP3   OH245850   0.347   4.198   1.228  0.2844  0.2209  0.8153
 8120TIP3    H145851   0.434   4.217   1.192  0.1432 -0.8838 -0.1803
 8120TIP3    H245852   0.343   4.103   1.231 -1.6011  0.1912 -0.9848
 8121TIP3   OH245853   2.717   4.165  27.677 -0.6963 -0.7093  0.2073
 8121TIP3    H145854   2.799   4.122  27.654 -0.5383 -0.7381  0.8003
 8121TIP3    H245855   2.652   4.095  27.676 -0.8014 -0.6072 -0.6913
 8122TIP3   OH245856   2.340   1.694   0.999  0.1092 -0.0916  0.0939
 8122TIP3    H145857   2.425   1.722   1.033  0.1933  0.2667 -0.3952
 8122TIP3    H245858   2.360   1.652   0.915 -0.1941  0.0081 -0.0311
 8123TIP3   OH245859   1.873   3.980  41.592  0.2954 -0.0636 -0.0429
 8123TIP3    H145860   1.952   4.032  41.581  0.0362  0.1459 -1.0951
 8123TIP3    H245861   1.886   3.931  41.673  1.1814  0.5151  0.1686
 8124TIP3   OH245862   2.768   4.128  32.685 -0.8347  0.6774 -0.1684
 8124TIP3    H145863   2.847   4.183  32.681 -1.0613  1.0050 -0.1783
 8124TIP3    H245864   2.729   4.135  32.598 -2.1164  2.3817  0.4758
 8125TIP3   OH245865   1.707   3.129  13.788 -0.6654  0.1892  0.3264
 8125TIP3    H145866   1.643   3.098  13.853 -0.4481 -2.8309 -0.7311
 8125TIP3    H245867   1.791   3.119  13.832 -0.6232 -0.5022  0.1098
 8126TIP3   OH245868   0.826   0.796  28.688  0.8646  0.4547 -0.0793
 8126TIP3    H145869   0.819   0.701  28.685  1.6621  0.2745  2.1391
 8126TIP3    H245870   0.918   0.814  28.668  1.5640  0.4485  2.6866
 8127TIP3   OH245871   2.494   1.307   0.650 -0.1518 -0.0964  0.0467
 8127TIP3    H145872   2.545   1.233   0.682  0.8190 -0.0458 -1.2878
 8127TIP3    H245873   2.425   1.269   0.596 -0.5028 -0.0805  0.4763
 8128TIP3   OH245874   1.492   0.362  35.364 -0.0786 -0.4955  0.0099
 8128TIP3    H145875   1.501   0.269  35.387  0.4587  0.2069  3.0639
 8128TIP3    H245876   1.409   0.388  35.404  0.3514  0.6172  0.1928
 8129TIP3   OH245877   3.407   0.759  12.365  0.3887  0.0205 -0.2919
 8129TIP3    H145878   3.327   0.744  12.315  0.3158 -0.8037  0.0530
 8129TIP3    H245879   3.391   0.716  12.449 -0.0933  2.6176  1.0560
 8130TIP3   OH245880   2.853   1.101  35.953  0.2712 -0.3707 -0.0594
 8130TIP3    H145881   2.780   1.066  36.003  0.4902 -1.0504 -0.2014
 8130TIP3    H245882   2.815   1.171  35.900  0.1310  0.7233  1.4308
 8131TIP3   OH245883   3.076   3.375   1.378 -0.6273 -0.0992  0.1405
 8131TIP3    H145884   3.088   3.280   1.380 -0.2098 -0.0976 -1.0648
 8131TIP3    H245885   3.056   3.394   1.286  2.1005  1.2857 -0.2475
 8132TIP3   OH245886   1.649   2.698  31.998  0.3472  0.0687  0.3137
 8132TIP3    H145887   1.623   2.703  32.090  0.0420  1.4757  0.1689
 8132TIP3    H245888   1.736   2.657  32.001  0.3258  0.0541  1.2258
 8133TIP3   OH245889   3.416   0.877  35.066  0.4009  0.1586 -0.4829
 8133TIP3    H145890   3.499   0.904  35.105 -0.2825  1.3962  0.1660
 8133TIP3    H245891   3.396   0.793  35.108  0.3225  0.8360  0.8883
 8134TIP3   OH245892   0.870   1.574  39.165 -0.5422 -0.5022 -0.6015
 8134TIP3    H145893   0.857   1.491  39.119 -0.2118  0.5036 -2.6557
 8134TIP3    H245894   0.810   1.571  39.239 -1.9695 -1.7916 -1.7443
 8135TIP3   OH245895   1.702   2.807  14.026 -0.2402  0.3670  0.0865
 8135TIP3    H145896   1.770   2.865  13.992 -0.9397  0.1894 -1.7060
 8135TIP3    H245897   1.654   2.777  13.949 -0.8592 -1.4088  1.0949
 8136TIP3   OH245898   0.532   3.391   5.103  0.8636  0.4134 -0.1964
 8136TIP3    H145899   0.573   3.345   5.176  1.7104  1.5624  0.0829
 8136TIP3    H245900   0.516   3.324   5.037 -0.9726 -0.8829  1.4527
 8137TIP3   OH245901   3.885   0.556   1.641 -0.4236  0.2994 -0.5735
 8137TIP3    H145902   3.875   0.591   1.552 -1.4931  1.9222  0.1393
 8137TIP3    H245903   3.913   0.631   1.693  0.8183 -0.7704  0.3751
 8138TIP3   OH245904   3.705   2.716   7.261  0.3877  0.2079 -0.0990
 8138TIP3    H145905   3.683   2.642   7.318  2.3837 -0.2749  0.1102
 8138TIP3    H245906   3.743   2.781   7.320 -0.3338  0.9652 -0.4524
 8139TIP3   OH245907   3.309   2.211  35.944  0.2107 -0.0905 -0.2024
 8139TIP3    H145908   3.279   2.263  35.869  1.8344  1.6178  0.2487
 8139TIP3    H245909   3.366   2.145  35.906 -2.7549 -2.4632 -0.9100
 8140TIP3   OH245910   1.326   0.077  13.835  0.0824 -0.3001  0.3461
 8140TIP3    H145911   1.241   0.062  13.792  0.1549  0.5648 -0.1078
 8140TIP3    H245912   1.340  -0.003  13.887 -1.0834 -0.3908  0.5577
 8141TIP3   OH245913   1.760   3.532  18.729  0.2669 -0.0545 -0.1315
 8141TIP3    H145914   1.731   3.610  18.776  1.6128 -0.3782  1.3342
 8141TIP3    H245915   1.678   3.489  18.702 -0.5317  0.9612  0.5813
 8142TIP3   OH245916   0.205   1.821   8.314 -0.1184  0.5491  0.2193
 8142TIP3    H145917   0.207   1.801   8.220 -0.5293  0.4950  0.2208
 8142TIP3    H245918   0.282   1.878   8.328  0.5008 -0.2285  0.0350
 8143TIP3   OH245919   0.328   3.871  30.013 -0.5827  0.1921  0.5591
 8143TIP3    H145920   0.342   3.963  30.035 -0.1574  0.6893 -1.6143
 8143TIP3    H245921   0.361   3.862  29.924 -1.2999 -1.9118  0.4491
 8144TIP3   OH245922   4.314   1.214   0.228  0.1595  0.1614 -0.0776
 8144TIP3    H145923   4.297   1.229   0.321 -1.0828 -0.4661 -0.1933
 8144TIP3    H245924   4.410   1.219   0.221  0.2664  0.3666  1.2015
 8145TIP3   OH245925   0.692   4.012   0.616  0.2638  0.4037  0.0261
 8145TIP3    H145926   0.641   3.955   0.558  0.6552 -0.2112  0.2846
 8145TIP3    H245927   0.707   4.091   0.563 -2.4629  1.3976  0.5363
 8146TIP3   OH245928   3.204   0.991  29.407  0.0277 -0.0258 -0.7824
 8146TIP3    H145929   3.194   1.016  29.499  1.3344 -1.5178 -0.1940
 8146TIP3    H245930   3.131   0.930  29.391 -0.4645  0.5770 -0.8894
 8147TIP3   OH245931   4.252   1.925   3.572  0.1912  0.1493  0.5920
 8147TIP3    H145932   4.334   1.888   3.538  0.1655  0.9744 -0.4109
 8147TIP3    H245933   4.207   1.850   3.613  1.4229 -0.3210  1.1410
 8148TIP3   OH245934   1.147   1.047  33.416  0.0846  0.3422 -0.4520
 8148TIP3    H145935   1.212   1.037  33.346  0.0544  0.2324 -0.4672
 8148TIP3    H245936   1.197   1.033  33.497 -0.0682 -0.5491 -0.4966
 8149TIP3   OH245937   3.070   3.079  38.701 -0.6472 -0.2792  0.4180
 8149TIP3    H145938   3.011   3.150  38.676  1.0046  0.6675 -1.0923
 8149TIP3    H245939   3.076   3.025  38.622  0.9945  0.0612  0.2658
 8150TIP3   OH245940   3.324   1.403  39.345  0.2772 -0.0515  0.8471
 8150TIP3    H145941   3.337   1.468  39.276  1.2436  0.5992  1.6245
 8150TIP3    H245942   3.411   1.389  39.382 -0.3054  0.0453  2.3268
 8151TIP3   OH245943   4.282   0.344  11.961 -0.5169 -0.0763 -0.5881
 8151TIP3    H145944   4.257   0.436  11.968 -0.4056 -0.1030  0.4533
 8151TIP3    H245945   4.200   0.296  11.969 -0.3785 -0.1096  0.9876
 8152TIP3   OH245946   0.404   3.996  26.620  0.0954  0.3723 -0.3607
 8152TIP3    H145947   0.496   4.015  26.639  0.7057 -1.7110 -0.9989
 8152TIP3    H245948   0.369   3.959  26.701  0.0439  0.3777 -0.3796
 8153TIP3   OH245949   1.151   0.232  36.286  0.2066  0.0509  0.3594
 8153TIP3    H145950   1.240   0.229  36.321 -0.0480 -2.5862  1.0074
 8153TIP3    H245951   1.136   0.144  36.251 -1.8322  0.7061 -0.5780
 8154TIP3   OH245952   3.983   2.622  27.784  0.5464  0.0486  0.6904
 8154TIP3    H145953   3.951   2.699  27.831  1.1209  1.3707 -0.9566
 8154TIP3    H245954   3.947   2.631  27.696 -1.4771 -2.9788  1.0811
 8155TIP3   OH245955   1.478   2.943  29.850  0.1141  0.4137 -0.1011
 8155TIP3    H145956   1.540   3.007  29.883 -0.6356  0.5800  1.0245
 8155TIP3    H245957   1.527   2.861  29.847  0.3430  0.5035  0.9683
 8156TIP3   OH245958   2.490   1.160   1.640  0.8702  0.5631  0.3775
 8156TIP3    H145959   2.436   1.239   1.650  2.9151  1.8878  1.5714
 8156TIP3    H245960   2.462   1.103   1.711  1.0127  1.2374  0.9903
 8157TIP3   OH245961   3.187   2.816   8.356  0.3633  0.1100 -0.4293
 8157TIP3    H145962   3.199   2.890   8.297 -1.4331  1.7812  1.1694
 8157TIP3    H245963   3.211   2.739   8.303  2.9109  1.8141 -1.9352
 8158TIP3   OH245964   3.258   3.280  30.442  0.2730  0.0702 -0.2308
 8158TIP3    H145965   3.304   3.314  30.366  0.5483 -0.3681 -0.2668
 8158TIP3    H245966   3.278   3.342  30.512  1.4140 -0.4176 -0.0971
 8159TIP3   OH245967   3.051   1.453   0.901 -0.4582  0.7834  0.3632
 8159TIP3    H145968   2.977   1.494   0.855 -2.0046  0.3821  2.3212
 8159TIP3    H245969   3.128   1.499   0.868 -1.5320  1.0494 -1.9607
 8160TIP3   OH245970   4.054   3.514   4.791 -1.0131 -0.1861  0.2412
 8160TIP3    H145971   4.056   3.577   4.720 -0.0806  0.6566  0.9909
 8160TIP3    H245972   4.076   3.564   4.869 -1.9745 -1.0954  1.1367
 8161TIP3   OH245973   1.264   3.885   1.156  0.0907  0.0988 -0.0675
 8161TIP3    H145974   1.233   3.893   1.066 -0.0209 -0.2300 -0.0579
 8161TIP3    H245975   1.359   3.877   1.148  0.0259 -0.6117 -0.2013
 8162TIP3   OH245976   3.882   2.336  33.741 -0.6272 -0.4416 -0.1485
 8162TIP3    H145977   3.914   2.386  33.816 -1.4113 -0.8558  0.4858
 8162TIP3    H245978   3.868   2.401  33.673 -1.6981  0.2453  0.6844
 8163TIP3   OH245979   3.533   3.690  34.962  0.1879  0.4765  0.3807
 8163TIP3    H145980   3.491   3.762  35.009  0.9931 -0.0001  1.8701
 8163TIP3    H245981   3.484   3.612  34.988  1.0981  0.1096  1.0200
 8164TIP3   OH245982   0.248   1.830  27.765 -0.1397 -0.3969 -0.7040
 8164TIP3    H145983   0.187   1.797  27.831  0.6860  0.2710  0.4294
 8164TIP3    H245984   0.307   1.888  27.813  1.5525 -1.1938 -1.6824
 8165TIP3   OH245985   3.357   1.310   1.849  0.8490  0.7242  0.5135
 8165TIP3    H145986   3.405   1.233   1.819 -1.9123 -1.2213  0.7020
 8165TIP3    H245987   3.329   1.353   1.769 -0.0061 -0.1132  0.3488
 8166TIP3   OH245988   2.180   2.242  30.038 -0.1511  0.2587 -0.0384
 8166TIP3    H145989   2.175   2.162  29.985  1.0460 -0.8245  1.3817
 8166TIP3    H245990   2.089   2.266  30.054 -0.6364  1.3653 -3.5161
 8167TIP3   OH245991   3.537   4.114  29.389 -0.1533 -0.1852  0.1790
 8167TIP3    H145992   3.578   4.066  29.317 -1.2793 -0.3245 -0.4013
 8167TIP3    H245993   3.572   4.073  29.468  1.5774  0.3760 -0.2521
 8168TIP3   OH245994   0.478   0.415   4.815 -0.6512  0.2761  0.6417
 8168TIP3    H145995   0.478   0.503   4.778 -1.0692 -0.6566 -1.7071
 8168TIP3    H245996   0.559   0.411   4.866  0.8184  1.1496 -1.4981
 8169TIP3   OH245997   1.376   1.461  38.561 -0.1897  0.6692 -0.2187
 8169TIP3    H145998   1.321   1.528  38.600 -1.2262 -0.8128  1.0131
 8169TIP3    H245999   1.458   1.505  38.540 -1.0832  2.4402 -0.1016
 8170TIP3   OH246000   1.239   0.041  13.495  0.2352  0.0157  0.5603
 8170TIP3    H146001   1.333   0.049  13.515  0.8706  0.2029 -2.1908
 8170TIP3    H246002   1.228   0.087  13.413 -2.5667  1.0458  1.4160
 8171TIP3   OH246003   4.200   0.048  11.429 -0.3945 -0.2803  0.2943
 8171TIP3    H146004   4.171  -0.036  11.393 -0.2678 -1.2738  2.3625
 8171TIP3    H246005   4.124   0.105  11.421 -0.8999 -0.9809  0.0404
 8172TIP3   OH246006   3.227   2.898   3.448  0.6804  0.9009 -0.1987
 8172TIP3    H146007   3.251   2.976   3.398 -0.5421  0.1704 -2.0635
 8172TIP3    H246008   3.163   2.929   3.512  0.6833  1.5418 -0.4980
 8173TIP3   OH246009   2.865   1.266  10.616  0.2808  0.0996 -0.4449
 8173TIP3    H146010   2.815   1.212  10.678 -1.1020  1.0879 -0.6394
 8173TIP3    H246011   2.949   1.221  10.608  0.4199 -0.2372  1.9235
 8174TIP3   OH246012   0.820   1.506  29.866 -0.0308  0.0977 -0.1686
 8174TIP3    H146013   0.829   1.433  29.927 -1.0690  1.7335  2.1221
 8174TIP3    H246014   0.903   1.554  29.874  0.2705 -0.2934 -0.9203
 8175TIP3   OH246015   1.324   1.807  13.626 -0.1950 -0.3218  0.3241
 8175TIP3    H146016   1.291   1.795  13.537 -0.9770 -0.1563  0.5893
 8175TIP3    H246017   1.250   1.844  13.675  0.3670  0.0222  0.9334
 8176TIP3   OH246018   3.654   0.889  37.123  0.2610  0.4458  0.4061
 8176TIP3    H146019   3.650   0.838  37.042  0.6639 -0.0774  0.7072
 8176TIP3    H246020   3.601   0.839  37.185 -0.1214  0.8932  0.4423
 8177TIP3   OH246021   2.467   1.779  27.077 -0.2453  0.1236 -0.2562
 8177TIP3    H146022   2.546   1.813  27.035 -0.0070  1.1240  0.9294
 8177TIP3    H246023   2.476   1.684  27.070  1.1703  0.2050  0.0244
 8178TIP3   OH246024   0.379   1.664  36.014  0.0005  0.2589 -0.1285
 8178TIP3    H146025   0.360   1.723  35.940  0.4940  0.4824 -0.0813
 8178TIP3    H246026   0.404   1.723  36.085 -0.6139  0.0499  0.2640
 8179TIP3   OH246027   3.038   4.275  32.853 -0.8786  0.5737 -0.4212
 8179TIP3    H146028   3.043   4.201  32.792  0.8732  0.7534 -0.5450
 8179TIP3    H246029   3.004   4.347  32.800  0.9951  0.8298 -1.3454
 8180TIP3   OH246030   0.580   1.094  13.164 -0.3613  0.0264  0.2250
 8180TIP3    H146031   0.619   1.101  13.252 -1.0841 -0.3496  0.5887
 8180TIP3    H246032   0.510   1.029  13.175 -1.1445  0.7575 -0.3924
 8181TIP3   OH246033   3.854   1.871  33.781 -0.4074 -0.3633 -0.2515
 8181TIP3    H146034   3.813   1.955  33.761  0.9741  0.4120  0.0140
 8181TIP3    H246035   3.875   1.834  33.695  3.0235  1.6992 -0.5177
 8182TIP3   OH246036   2.525   2.501   6.928  0.1567 -0.3612 -0.6259
 8182TIP3    H146037   2.571   2.418   6.915  1.2682  0.3706 -1.5131
 8182TIP3    H246038   2.593   2.562   6.957 -0.6632  0.2393  0.1034
 8183TIP3   OH246039   4.042   2.056   5.261  0.2524 -0.6100 -0.4823
 8183TIP3    H146040   4.079   2.068   5.348  0.1529 -2.1123 -0.2063
 8183TIP3    H246041   4.117   2.032   5.206 -0.0953 -2.6464 -0.1391
 8184TIP3   OH246042   0.815   3.817   4.101 -0.4724 -0.4453  0.4121
 8184TIP3    H146043   0.725   3.793   4.126 -0.1925 -2.2433 -0.1685
 8184TIP3    H246044   0.845   3.875   4.172 -1.7312 -0.6323  1.1327
 8185TIP3   OH246045   2.437   3.946   5.187 -0.0576  0.3009 -0.4015
 8185TIP3    H146046   2.473   3.918   5.272 -2.7453 -0.5283  0.5475
 8185TIP3    H246047   2.489   3.898   5.123  1.1776 -0.0791  0.8139
 8186TIP3   OH246048   2.704   0.874   5.923 -0.1834  0.0617  0.6262
 8186TIP3    H146049   2.789   0.852   5.886  0.2739  2.3195  0.1940
 8186TIP3    H246050   2.712   0.853   6.016  0.6919 -0.1508  0.5112
 8187TIP3   OH246051   3.046   1.765   7.858  0.0731 -0.0803 -0.1794
 8187TIP3    H146052   3.087   1.823   7.922  1.4552 -1.3624  0.1603
 8187TIP3    H246053   3.085   1.790   7.774  0.6131 -0.4576 -0.0438
 8188TIP3   OH246054   3.451   0.720   7.392 -0.1600 -0.2068  0.2719
 8188TIP3    H146055   3.482   0.740   7.304 -3.5693 -1.8156 -1.5215
 8188TIP3    H246056   3.367   0.766   7.398 -1.4363 -2.5044  1.4252
 8189TIP3   OH246057   1.711   1.993  31.170  0.0027  0.3023 -0.1984
 8189TIP3    H146058   1.659   1.989  31.250  1.5828  0.4942  0.9054
 8189TIP3    H246059   1.734   2.085  31.161  1.0731  0.0745  0.0080
 8190TIP3   OH246060   3.586   0.959   7.315  0.2515  1.0486 -0.3045
 8190TIP3    H146061   3.680   0.948   7.331 -0.3947 -0.9855  3.2641
 8190TIP3    H246062   3.564   0.890   7.252  0.7235 -0.8103  1.4481
 8191TIP3   OH246063   3.568   4.099  28.591 -0.2956 -0.0574  0.2992
 8191TIP3    H146064   3.522   4.165  28.643  0.2131  1.4449 -1.0778
 8191TIP3    H246065   3.553   4.125  28.500 -0.2058 -1.9556 -0.3004
 8192TIP3   OH246066   0.155   0.736  13.379  0.0119  0.0039  0.0861
 8192TIP3    H146067   0.087   0.785  13.333 -0.8737 -0.0197  1.3279
 8192TIP3    H246068   0.197   0.802  13.435  0.9022 -0.0211 -0.5350
 8193TIP3   OH246069   1.253   1.155  28.555  0.2956 -0.3016  0.0866
 8193TIP3    H146070   1.297   1.092  28.496 -0.3666 -1.1188  0.4406
 8193TIP3    H246071   1.282   1.241  28.524 -0.7743 -0.6413 -2.0659
 8194TIP3   OH246072   3.382   1.587  28.983 -0.0844  0.5187  0.5744
 8194TIP3    H146073   3.316   1.518  28.973 -2.6013  2.8665 -0.1821
 8194TIP3    H246074   3.390   1.599  29.078 -1.5081  0.8319  0.6720
 8195TIP3   OH246075   2.560   2.311  31.573 -0.9638  0.1570 -0.2355
 8195TIP3    H146076   2.626   2.308  31.503 -1.9356  1.9135 -1.2868
 8195TIP3    H246077   2.606   2.352  31.646 -0.8319  1.3098 -0.9399
 8196TIP3   OH246078   3.363   2.205   5.977  0.0280 -0.8788 -0.5024
 8196TIP3    H146079   3.378   2.124   6.026  1.7196 -1.0530 -1.2316
 8196TIP3    H246080   3.354   2.177   5.886  1.9203 -0.2196 -0.9518
 8197TIP3   OH246081   2.801   1.669   5.923 -0.3317 -0.3872 -0.2776
 8197TIP3    H146082   2.776   1.594   5.870 -0.4788  0.0557 -0.8422
 8197TIP3    H246083   2.803   1.742   5.862 -0.1694  0.0674  0.2618
 8198TIP3   OH246084   0.431   0.367  31.687  0.2025 -0.2718  0.0769
 8198TIP3    H146085   0.471   0.392  31.604 -2.0527 -1.0634 -1.3319
 8198TIP3    H246086   0.504   0.336  31.741  2.2691  3.3675 -0.2730
 8199TIP3   OH246087   1.037   2.545  33.580 -0.6143  0.3845  0.5262
 8199TIP3    H146088   1.032   2.514  33.490 -1.6740  2.3156 -0.1515
 8199TIP3    H246089   1.109   2.495  33.619 -0.7793 -1.2065 -1.0738
 8200TIP3   OH246090   1.324   3.557   2.260  0.1994  0.1239  0.1071
 8200TIP3    H146091   1.392   3.563   2.193  0.4799 -0.6789  0.3025
 8200TIP3    H246092   1.289   3.469   2.251  0.5569 -0.1595  1.2913
 8201TIP3   OH246093   2.860   1.259  31.203 -0.0294  0.5247  0.2854
 8201TIP3    H146094   2.827   1.191  31.261  0.7502  1.1820  1.5454
 8201TIP3    H246095   2.824   1.237  31.117 -1.1577 -0.5077  0.9966
 8202TIP3   OH246096   1.601   1.585  30.033  0.1170  0.2824  0.2147
 8202TIP3    H146097   1.683   1.606  29.989 -0.4506 -0.3307 -1.1955
 8202TIP3    H246098   1.568   1.669  30.064  2.0854  0.3581  2.3498
 8203TIP3   OH246099   0.622   0.673  26.904 -0.1038  0.1019 -0.0247
 8203TIP3    H146100   0.558   0.708  26.842  1.1984  0.3828 -1.2799
 8203TIP3    H246101   0.601   0.580  26.910 -0.9906  0.2990  0.0555
 8204TIP3   OH246102   0.608   1.747  41.606  0.2906  0.4869  0.1105
 8204TIP3    H146103   0.591   1.841  41.601 -0.0464  0.4340  0.2058
 8204TIP3    H246104   0.627   1.730  41.698 -1.4571  0.1812  0.4655
 8205TIP3   OH246105   3.496   0.870  38.370 -0.1997 -0.2918 -0.5170
 8205TIP3    H146106   3.432   0.922  38.419  0.3742  1.9033 -1.9309
 8205TIP3    H246107   3.470   0.779  38.384 -1.8642  0.4065  1.2864
 8206TIP3   OH246108   2.894   4.127  39.199  0.0188  0.4531  0.3957
 8206TIP3    H146109   2.886   4.216  39.233 -1.5999  0.3763  0.2684
 8206TIP3    H246110   2.846   4.073  39.262  1.5905 -0.4606  0.8713
 8207TIP3   OH246111   3.102   1.525   4.578  0.3589 -0.9353  0.0739
 8207TIP3    H146112   3.096   1.601   4.521  1.3160  0.5067  1.7791
 8207TIP3    H246113   3.022   1.474   4.559 -1.0378  1.2101 -0.1402
 8208TIP3   OH246114   0.198   2.783  12.261  0.0343 -0.1771 -0.2696
 8208TIP3    H146115   0.111   2.823  12.255 -0.3343 -0.6733  1.3442
 8208TIP3    H246116   0.259   2.855  12.244 -0.6544  0.6312  0.6021
 8209TIP3   OH246117   0.916   3.736  27.395  0.0444 -0.3444  0.3836
 8209TIP3    H146118   0.883   3.744  27.485 -0.9904  2.1447 -0.1187
 8209TIP3    H246119   0.842   3.702  27.345 -0.5806  1.5277 -0.0585
 8210TIP3   OH246120   2.651   4.293  30.708  0.1616  0.1441 -0.0656
 8210TIP3    H146121   2.605   4.216  30.676 -1.4325  0.5050  1.2573
 8210TIP3    H246122   2.656   4.281  30.803  1.0976  1.0332  0.0148
 8211TIP3   OH246123   4.398   3.528  13.226  0.0727  0.0136 -0.1133
 8211TIP3    H146124   4.446   3.607  13.250 -0.1525 -0.3493  1.6064
 8211TIP3    H246125   4.315   3.534  13.273  0.7114 -2.0112  1.4372
 8212TIP3   OH246126   2.922   3.181  12.196  0.3146  0.1001  0.1594
 8212TIP3    H146127   2.975   3.257  12.174  3.2656 -1.8231 -0.0086
 8212TIP3    H246128   2.905   3.139  12.111 -1.6823  0.7254  0.1996
 8213TIP3   OH246129   2.991   1.650  37.885 -0.0247 -0.0457  0.2269
 8213TIP3    H146130   2.923   1.624  37.824  1.2485 -0.3148 -1.1405
 8213TIP3    H246131   3.012   1.569  37.933 -0.7235  0.0687  0.7465
 8214TIP3   OH246132   0.241   3.378  29.385  0.1369 -0.1719 -0.2445
 8214TIP3    H146133   0.155   3.339  29.396  0.1623 -0.6846 -1.7181
 8214TIP3    H246134   0.223   3.472  29.374 -0.1657 -0.1813  0.1341
 8215TIP3   OH246135   0.391   3.476  26.442  0.1623  0.2919 -0.4730
 8215TIP3    H146136   0.440   3.449  26.364  2.0627  1.4623  0.2330
 8215TIP3    H246137   0.430   3.561  26.466 -0.2372 -0.1048  1.8312
 8216TIP3   OH246138   0.073   3.247  21.684  0.2430  0.0371  0.7460
 8216TIP3    H146139   0.122   3.207  21.612 -0.7654 -1.8305  1.0308
 8216TIP3    H246140   0.035   3.327  21.647 -0.0420 -0.7519 -0.7173
 8217TIP3   OH246141   1.118   0.198  16.726 -0.8548  0.1668 -0.1841
 8217TIP3    H146142   1.067   0.215  16.646 -0.3088  0.2146 -0.5322
 8217TIP3    H246143   1.197   0.252  16.715  0.6479 -2.0334 -1.0289
 8218TIP3   OH246144   0.550   1.931   0.306 -0.9450 -0.1125  0.5559
 8218TIP3    H146145   0.583   1.966   0.389  3.0285  0.2392 -0.9682
 8218TIP3    H246146   0.526   2.008   0.255  0.8788  0.0466 -0.1452
 8219TIP3   OH246147   0.969   4.249  10.735 -0.4386 -0.1925  0.2479
 8219TIP3    H146148   1.041   4.194  10.766  0.1908 -0.2436 -1.2028
 8219TIP3    H246149   0.919   4.193  10.676  0.7513  0.9452 -1.9984
 8220TIP3   OH246150   0.234   0.596  29.962 -0.6786 -0.3880 -0.3107
 8220TIP3    H146151   0.170   0.538  29.921 -0.6609  0.8394 -2.2176
 8220TIP3    H246152   0.313   0.543  29.969 -1.6906 -1.7479  1.5590
 8221TIP3   OH246153   1.879   1.714  38.992 -0.1899  0.4076  0.5977
 8221TIP3    H146154   1.841   1.752  39.071  0.3398  1.7700  0.2304
 8221TIP3    H246155   1.918   1.789  38.946 -0.5113 -0.3377 -0.9715
 8222TIP3   OH246156   2.505   3.158  37.839  0.0682 -0.0193  0.3193
 8222TIP3    H146157   2.540   3.235  37.796  0.2076 -0.4867 -0.4267
 8222TIP3    H246158   2.537   3.163  37.929 -0.4329  1.1047  0.4446
 8223TIP3   OH246159   0.819   0.454  32.328  0.0953  0.5587 -0.2202
 8223TIP3    H146160   0.912   0.435  32.317  0.0844 -0.1891  0.8445
 8223TIP3    H246161   0.815   0.550  32.329  1.0143  0.6166  0.8055
 8224TIP3   OH246162   3.867   1.592   8.281 -0.2259  0.5744  0.0051
 8224TIP3    H146163   3.858   1.549   8.196 -0.9376 -0.3278  0.5205
 8224TIP3    H246164   3.844   1.684   8.264  3.8636  1.4968 -1.6824
 8225TIP3   OH246165   2.438   3.924   4.109  0.0046  0.4061 -0.5431
 8225TIP3    H146166   2.436   4.015   4.138 -1.8340  0.4395 -0.6652
 8225TIP3    H246167   2.513   3.919   4.050  0.3598  1.7284 -0.2288
 8226TIP3   OH246168   2.496   0.715  37.032  0.7228  0.3002 -0.1623
 8226TIP3    H146169   2.550   0.677  36.963  1.0563  3.5902 -1.9353
 8226TIP3    H246170   2.558   0.738  37.102  1.4942  2.5949 -1.5053
 8227TIP3   OH246171   3.284   1.216  33.309 -0.1808 -0.5970 -0.2219
 8227TIP3    H146172   3.353   1.210  33.375 -1.0182 -0.6573  0.6737
 8227TIP3    H246173   3.253   1.306  33.315 -0.6341 -0.7558 -0.1464
 8228TIP3   OH246174   0.740   4.067  38.099 -0.3244  0.6745  0.4694
 8228TIP3    H146175   0.811   4.096  38.156 -0.6931  0.2687  1.1511
 8228TIP3    H246176   0.773   3.987  38.058 -0.2922  0.6154  0.6086
 8229TIP3   OH246177   1.418   2.243   1.720 -0.1791 -0.0704 -0.0962
 8229TIP3    H146178   1.435   2.164   1.669  0.6158 -1.0504  1.6158
 8229TIP3    H246179   1.325   2.237   1.743 -0.3031 -0.1140 -0.5971
 8230TIP3   OH246180   3.307   3.762  10.774 -0.5723  0.0921  0.5960
 8230TIP3    H146181   3.366   3.765  10.850 -0.4815  0.0250  0.5290
 8230TIP3    H246182   3.278   3.853  10.762  0.1365  0.2730  0.1527
 8231TIP3   OH246183   2.569   0.435   6.873 -0.3945  0.2539 -0.4648
 8231TIP3    H146184   2.557   0.343   6.897  1.0086  0.0904 -0.2615
 8231TIP3    H246185   2.621   0.432   6.792  1.8281  0.8494  0.8598
 8232TIP3   OH246186   2.384   3.943   7.820  0.4189 -0.2891  0.2060
 8232TIP3    H146187   2.397   3.851   7.845 -0.2533 -0.0201  1.7042
 8232TIP3    H246188   2.442   3.957   7.746  2.3988 -1.2753  1.4887
 8233TIP3   OH246189   1.326   1.416  40.565  0.4290  0.2865 -0.3921
 8233TIP3    H146190   1.371   1.452  40.640  0.2076 -1.3339  0.5685
 8233TIP3    H246191   1.385   1.349  40.530 -0.1913 -0.1750 -0.5948
 8234TIP3   OH246192   0.959   0.850  17.034 -0.1417  0.2703 -0.1902
 8234TIP3    H146193   0.923   0.906  16.965  0.1579  0.6122 -0.0676
 8234TIP3    H246194   0.889   0.843  17.099 -0.0007  0.9205  0.0373
 8235TIP3   OH246195   0.204   1.847  32.724 -0.5489  0.2847 -0.3948
 8235TIP3    H146196   0.196   1.853  32.819  0.8449  0.3865 -0.2697
 8235TIP3    H246197   0.172   1.760  32.703 -2.5131  0.8671 -0.0498
 8236TIP3   OH246198   4.404   1.150   3.089 -0.2219  0.1434 -0.0414
 8236TIP3    H146199   4.345   1.080   3.060 -0.9363 -0.1676  2.0150
 8236TIP3    H246200   4.350   1.209   3.141  1.0708  0.2982  1.2158
 8237TIP3   OH246201   0.801   2.115   8.375 -0.6337 -0.6477 -0.4481
 8237TIP3    H146202   0.831   2.190   8.324 -3.3719  0.3245 -0.8071
 8237TIP3    H246203   0.875   2.055   8.375  1.4508  1.7205 -0.7356
 8238TIP3   OH246204   0.806   3.513   8.409 -0.0367  0.6031  0.1198
 8238TIP3    H146205   0.714   3.540   8.400  0.2698  1.5089 -0.5163
 8238TIP3    H246206   0.853   3.595   8.425  0.4087 -0.0887  2.7405
 8239TIP3   OH246207   3.055   2.743   1.844  0.2043  0.1875 -0.0005
 8239TIP3    H146208   3.089   2.832   1.842  0.4371  0.1279  0.9542
 8239TIP3    H246209   3.122   2.693   1.890  1.0833 -0.9395 -2.3687
 8240TIP3   OH246210   1.017   2.748   3.159  0.0971 -0.1397 -0.0676
 8240TIP3    H146211   1.107   2.782   3.162 -0.5391  1.6414  0.6016
 8240TIP3    H246212   1.004   2.708   3.245  0.1487 -0.1115 -0.0466
 8241TIP3   OH246213   1.948   0.004   4.767 -0.7499  0.1575 -0.2871
 8241TIP3    H146214   2.005   0.029   4.694 -0.0513  1.1506  0.5678
 8241TIP3    H246215   1.998  -0.061   4.815 -1.4981 -1.0214 -1.0520
 8242TIP3   OH246216   0.724   0.677  23.436 -0.1064  0.6480  0.0604
 8242TIP3    H146217   0.659   0.747  23.430 -0.8007  0.0360  0.3416
 8242TIP3    H246218   0.676   0.602  23.470  0.9604  0.4438  1.1722
 8243TIP3   OH246219   2.101   0.799   1.303 -0.2236  0.6775  0.2213
 8243TIP3    H146220   2.161   0.729   1.331 -1.9114 -0.9101  0.1090
 8243TIP3    H246221   2.132   0.877   1.348  0.3751 -0.6492  2.2405
 8244TIP3   OH246222   2.164   3.631  31.361 -0.0286 -0.0562  0.6398
 8244TIP3    H146223   2.106   3.664  31.292  0.0295 -0.0593  0.5894
 8244TIP3    H246224   2.207   3.555  31.322  0.3662  0.2308  0.5128
 8245TIP3   OH246225   2.523   3.788  34.705  0.2126 -0.1839 -0.1996
 8245TIP3    H146226   2.502   3.714  34.763  0.0382  0.1135  0.1209
 8245TIP3    H246227   2.600   3.829  34.744  1.9656 -1.7362 -1.7970
 8246TIP3   OH246228   2.766   0.727  28.800 -0.0732  0.5495 -0.3320
 8246TIP3    H146229   2.831   0.760  28.738  0.5871  1.7663  0.9565
 8246TIP3    H246230   2.818   0.692  28.872 -0.8465  0.6069  0.2619
 8247TIP3   OH246231   3.460   3.049   6.868 -0.0225 -0.0668  0.1135
 8247TIP3    H146232   3.536   2.994   6.850  0.3738  0.5866 -0.2417
 8247TIP3    H246233   3.475   3.128   6.817 -0.8562  0.1458  0.1847
 8248TIP3   OH246234   2.555   1.605  28.262 -0.4138 -0.2332  0.1120
 8248TIP3    H146235   2.463   1.631  28.262  0.0509  1.5275 -0.7100
 8248TIP3    H246236   2.554   1.516  28.226 -1.6801  0.2425 -1.1284
 8249TIP3   OH246237   3.062   3.703  26.705  0.7610  0.0242 -0.2094
 8249TIP3    H146238   3.129   3.698  26.637 -0.2502  0.3975 -1.2574
 8249TIP3    H246239   2.985   3.738  26.661  0.1125  0.3998  1.1603
 8250TIP3   OH246240   0.133   2.820  11.515 -0.3079 -0.0882 -0.1087
 8250TIP3    H146241   0.170   2.792  11.432 -0.5509  1.2598 -0.7012
 8250TIP3    H246242   0.188   2.893  11.543 -1.5618  0.9501 -0.2370
 8251TIP3   OH246243   2.740   1.881  33.667 -0.4257 -0.0413  0.0432
 8251TIP3    H146244   2.665   1.823  33.658  0.2125 -0.6389 -2.1426
 8251TIP3    H246245   2.788   1.871  33.584  0.9980  1.8097  0.5726
 8252TIP3   OH246246   0.486   1.606  14.125 -0.5554 -0.2769 -0.2965
 8252TIP3    H146247   0.545   1.614  14.200  0.5713  1.8091 -1.3312
 8252TIP3    H246248   0.525   1.538  14.070 -1.2945 -1.6952  0.8390
 8253TIP3   OH246249   4.307   4.115  32.081 -0.0800 -0.0477  0.0637
 8253TIP3    H146250   4.330   4.027  32.108  0.8791  0.5675  1.3780
 8253TIP3    H246251   4.349   4.126  31.996  2.4020  0.1148  1.2228
 8254TIP3   OH246252   0.536   3.559  31.953 -0.4003  0.2048  0.1646
 8254TIP3    H146253   0.611   3.575  32.011 -0.2226 -2.7761  0.9169
 8254TIP3    H246254   0.461   3.588  32.004 -0.0537 -0.3224  1.0036
 8255TIP3   OH246255   0.795   0.049  34.163  0.1926 -0.5866 -0.3924
 8255TIP3    H146256   0.855  -0.010  34.118 -1.1211 -1.1764 -1.4515
 8255TIP3    H246257   0.843   0.132  34.169  2.0626 -1.6909  1.1224
 8256TIP3   OH246258   3.223   3.570  30.130 -0.4324  0.5395 -0.8806
 8256TIP3    H146259   3.139   3.540  30.166  0.3464  1.2870  1.8020
 8256TIP3    H246260   3.285   3.501  30.155  0.0307  0.7418 -1.4563
 8257TIP3   OH246261   2.243   2.227  10.769  0.8313  0.3125  0.3868
 8257TIP3    H146262   2.165   2.222  10.824 -0.6475  0.6849 -1.5432
 8257TIP3    H246263   2.225   2.301  10.711  1.6016 -0.9650 -1.5680
 8258TIP3   OH246264   3.238   1.521  27.837 -0.0036 -0.0826 -0.1731
 8258TIP3    H146265   3.312   1.581  27.832 -0.6777  0.6984 -1.2314
 8258TIP3    H246266   3.230   1.502  27.931 -0.2195  2.0941  0.3228
 8259TIP3   OH246267   3.069   2.399  36.794 -0.1106 -0.0141  0.0109
 8259TIP3    H146268   3.028   2.355  36.719 -0.1050 -0.4389  0.2529
 8259TIP3    H246269   3.003   2.395  36.863 -0.7223  1.7302 -0.4176
 8260TIP3   OH246270   1.250   1.914  27.486  0.1137 -0.4909 -0.3342
 8260TIP3    H146271   1.210   1.937  27.570 -0.5052 -1.4692 -0.3433
 8260TIP3    H246272   1.296   1.993  27.459 -0.1418  0.0168  0.6589
 8261TIP3   OH246273   0.286   0.678   3.104 -0.0285 -0.1777  0.3069
 8261TIP3    H146274   0.305   0.611   3.039  0.0199  0.5957 -0.4845
 8261TIP3    H246275   0.323   0.643   3.186  1.4578 -0.3909 -0.4229
 8262TIP3   OH246276   0.652   2.919  34.650 -0.1039 -0.1603  0.5834
 8262TIP3    H146277   0.623   2.921  34.558 -0.8167 -1.0741  0.7730
 8262TIP3    H246278   0.596   2.984  34.693  0.0276  0.0583  0.4286
 8263TIP3   OH246279   0.154   3.034  41.419  0.2044 -0.3403 -0.1821
 8263TIP3    H146280   0.206   3.000  41.491  1.2068  1.9409  0.2681
 8263TIP3    H246281   0.212   3.030  41.343 -0.0991 -0.7622 -0.3959
 8264TIP3   OH246282   2.639   0.252  30.540 -0.0980 -0.0618  0.1892
 8264TIP3    H146283   2.593   0.308  30.603  0.0631  0.1377  0.1316
 8264TIP3    H246284   2.571   0.225  30.479 -0.0701  0.5753 -0.1387
 8265TIP3   OH246285   1.861   3.821   9.932 -0.7279 -0.2789 -0.0094
 8265TIP3    H146286   1.917   3.754   9.973 -0.0720  0.2875  0.0402
 8265TIP3    H246287   1.920   3.870   9.876 -1.4966 -0.6476 -1.1830
 8266TIP3   OH246288   2.812   2.520  35.847  0.7519  0.1130 -0.0474
 8266TIP3    H146289   2.826   2.534  35.753 -0.6440 -1.1221 -0.4638
 8266TIP3    H246290   2.783   2.605  35.880  2.7798  0.9965 -0.3839
 8267TIP3   OH246291   3.175   4.390   1.062  0.0590  0.5836  0.3300
 8267TIP3    H146292   3.206   4.372   0.974  0.1144 -0.7255  0.5864
 8267TIP3    H246293   3.246   4.361   1.119 -1.5071 -2.5625  0.9311
 8268TIP3   OH246294   3.373   2.207  10.684  0.4594 -0.3373 -0.6406
 8268TIP3    H146295   3.312   2.145  10.645  1.2315 -1.1507 -0.5920
 8268TIP3    H246296   3.319   2.261  10.742 -0.4772  0.0548 -1.8385
 8269TIP3   OH246297   3.654   0.928   3.276  0.5117 -0.8600  0.2832
 8269TIP3    H146298   3.688   0.862   3.337 -1.4333 -0.7250  1.6221
 8269TIP3    H246299   3.619   0.997   3.333  2.2143  1.2611 -1.0599
 8270TIP3   OH246300   4.197   1.835  38.543  0.3736  0.2087  0.6246
 8270TIP3    H146301   4.105   1.835  38.519  0.5636  0.0068 -0.1472
 8270TIP3    H246302   4.212   1.749  38.583  0.2871  0.1286  0.4872
 8271TIP3   OH246303   0.158   3.523   0.730  0.5666  0.1708  0.4079
 8271TIP3    H146304   0.074   3.540   0.774  0.8966  1.3321  0.6206
 8271TIP3    H246305   0.208   3.604   0.742  1.1453  0.0441 -1.0406
 8272TIP3   OH246306   0.439   3.165  11.472 -0.3276  0.2771  0.0557
 8272TIP3    H146307   0.465   3.248  11.511  0.7162 -0.1214  0.2428
 8272TIP3    H246308   0.521   3.122  11.449 -0.5750 -2.2153  3.0937
 8273TIP3   OH246309   2.552   2.059  34.437 -0.0087  0.6751 -0.1468
 8273TIP3    H146310   2.478   2.004  34.413  0.8570 -0.9000  0.6565
 8273TIP3    H246311   2.567   2.041  34.530  1.8362  0.3673 -0.4590
 8274TIP3   OH246312   2.491   0.738   6.693  0.1216 -0.0463  0.4914
 8274TIP3    H146313   2.516   0.800   6.761 -2.1262  0.7035  0.7291
 8274TIP3    H246314   2.429   0.679   6.736 -0.5348 -0.2069 -0.6210
 8275TIP3   OH246315   3.238   3.465   6.374 -0.0783  0.0001 -0.1509
 8275TIP3    H146316   3.291   3.535   6.413  0.4070 -0.7831  0.6170
 8275TIP3    H246317   3.147   3.491   6.392 -0.0305  1.5348 -1.7785
 8276TIP3   OH246318   4.207   4.370  28.877  0.1382 -0.1595  0.4359
 8276TIP3    H146319   4.176   4.346  28.964  0.4622 -1.1059  0.3016
 8276TIP3    H246320   4.134   4.348  28.819  0.3199 -0.5430  0.3493
 8277TIP3   OH246321   2.969   1.265  37.196 -0.0821  0.3025  0.1813
 8277TIP3    H146322   2.964   1.300  37.107 -1.6979  0.1258  0.1703
 8277TIP3    H246323   2.983   1.171  37.184  1.9754  0.5727  0.1740
 8278TIP3   OH246324   3.492   0.764   6.095  0.3220  0.6397  0.1607
 8278TIP3    H146325   3.523   0.839   6.044  1.2231  0.1404 -0.0297
 8278TIP3    H246326   3.538   0.770   6.178  0.1932  0.4397  0.2480
 8279TIP3   OH246327   1.305   2.774  17.735 -0.4015 -0.2019  0.2208
 8279TIP3    H146328   1.356   2.771  17.654 -1.3491 -1.2113 -0.3725
 8279TIP3    H246329   1.296   2.867  17.754  1.5495  0.0189  0.3008
 8280TIP3   OH246330   0.205   1.476  29.926 -0.2922  0.1476 -0.3132
 8280TIP3    H146331   0.238   1.387  29.910  1.4191  0.6714  0.0360
 8280TIP3    H246332   0.113   1.473  29.901 -0.2666 -1.7211 -0.3026
 8281TIP3   OH246333   1.634   1.199   3.865  0.0679  0.3773  0.5819
 8281TIP3    H146334   1.602   1.269   3.808  0.0697  2.4231  2.8946
 8281TIP3    H246335   1.674   1.245   3.939  0.1475 -2.0846  2.2058
 8282TIP3   OH246336   2.628   2.961  40.202  0.2840 -0.2015 -0.1766
 8282TIP3    H146337   2.635   2.888  40.141  1.9487 -0.8502  0.7366
 8282TIP3    H246338   2.537   2.957  40.234  0.0855 -1.2725 -0.8411
 8283TIP3   OH246339   3.426   2.599   2.318  0.6161 -0.6435  0.0069
 8283TIP3    H146340   3.433   2.556   2.233 -1.3310  0.3081 -0.7178
 8283TIP3    H246341   3.513   2.635   2.335  0.5622  1.0385 -2.6867
 8284TIP3   OH246342   4.208   4.301  24.051 -0.5099  0.3902  1.0091
 8284TIP3    H146343   4.153   4.262  24.118  1.0985 -0.9824  1.5965
 8284TIP3    H246344   4.265   4.361  24.099 -0.5313  0.7264  0.6168
 8285TIP3   OH246345   1.533   1.451  27.601  0.3794 -0.7741  0.1228
 8285TIP3    H146346   1.531   1.427  27.509 -1.4197  0.2080 -0.1561
 8285TIP3    H246347   1.442   1.442  27.630  0.8520 -0.7536  1.7167
 8286TIP3   OH246348   1.302   2.668  33.294  0.0013  0.8653 -0.3961
 8286TIP3    H146349   1.266   2.579  33.293 -2.1560  1.6853 -0.8331
 8286TIP3    H246350   1.388   2.658  33.335 -0.8695 -1.1675  1.1350
 8287TIP3   OH246351   4.119   3.578   8.860  0.4705 -0.6771  0.3429
 8287TIP3    H146352   4.023   3.581   8.865  0.4856  1.4693 -0.0113
 8287TIP3    H246353   4.137   3.511   8.794 -0.8251 -0.2703 -0.4632
 8288TIP3   OH246354   2.260   0.456  29.884 -0.2685  0.2694  0.3056
 8288TIP3    H146355   2.321   0.387  29.911  0.1688  0.0156 -1.2263
 8288TIP3    H246356   2.211   0.417  29.811 -1.2193  1.0038  0.5295
 8289TIP3   OH246357   3.787   1.511  24.520  0.1541  1.1251 -0.6083
 8289TIP3    H146358   3.754   1.601  24.515 -1.1140  0.6435 -1.8803
 8289TIP3    H246359   3.877   1.516  24.488  0.4173  2.0828  0.2734
 8290TIP3   OH246360   1.225   2.205   9.026  0.4310 -0.4457 -0.0378
 8290TIP3    H146361   1.250   2.239   8.940 -0.2304 -1.5587 -0.7028
 8290TIP3    H246362   1.141   2.161   9.010  0.4879 -0.9936  1.0965
 8291TIP3   OH246363   1.392   0.520   7.068  0.0466 -0.2427  0.4740
 8291TIP3    H146364   1.388   0.440   7.015 -0.1418 -1.3169  2.0090
 8291TIP3    H246365   1.307   0.561   7.055  0.3242 -0.0170 -0.7140
 8292TIP3   OH246366   1.494   4.269  40.028 -0.5450  0.5668  0.0620
 8292TIP3    H146367   1.589   4.255  40.026 -0.6589 -1.1883  2.3802
 8292TIP3    H246368   1.484   4.364  40.039  0.8974  0.8695 -0.9700
 8293TIP3   OH246369   2.243   0.294  13.511 -0.5745  0.0275  0.7092
 8293TIP3    H146370   2.307   0.248  13.457  0.9779  0.4809  2.0796
 8293TIP3    H246371   2.222   0.233  13.581 -0.2811  0.5297  1.2433
 8294TIP3   OH246372   1.317   3.161  31.000  0.3249  0.2686 -0.5003
 8294TIP3    H146373   1.237   3.169  30.948 -0.1781 -0.7367  0.1013
 8294TIP3    H246374   1.314   3.073  31.037  1.3934  0.4441  0.0588
 8295TIP3   OH246375   1.782   3.004  27.279  0.2022  0.0456  0.4155
 8295TIP3    H146376   1.709   2.943  27.269  0.7353 -0.4940 -0.3490
 8295TIP3    H246377   1.749   3.087  27.244 -0.1719 -0.0968  0.4307
 8296TIP3   OH246378   2.349   0.368   5.831  0.2561  0.2787  0.1455
 8296TIP3    H146379   2.300   0.443   5.864 -0.7084  0.0989 -0.8188
 8296TIP3    H246380   2.427   0.406   5.791  0.5310  0.6307  0.9780
 8297TIP3   OH246381   2.141   3.421  14.188  0.0325 -0.0428 -0.0077
 8297TIP3    H146382   2.228   3.385  14.206  0.0076  0.1717  0.5733
 8297TIP3    H246383   2.099   3.356  14.132 -0.4342 -1.5451  1.9393
 8298TIP3   OH246384   0.675   2.316  34.586 -0.1774 -0.0193  0.0062
 8298TIP3    H146385   0.719   2.234  34.561 -0.2458  0.3814 -1.4629
 8298TIP3    H246386   0.721   2.384  34.537 -0.4230  0.7852  0.8687
 8299TIP3   OH246387   2.854   0.301   8.720  0.0280 -0.8068  0.1016
 8299TIP3    H146388   2.863   0.354   8.800 -0.9913  3.9147 -2.5337
 8299TIP3    H246389   2.760   0.282   8.716  0.1978 -1.7439  0.3564
 8300TIP3   OH246390   2.610   0.645   7.046  0.2954  0.8283 -0.7224
 8300TIP3    H146391   2.569   0.643   7.132  1.3800 -0.6548 -0.2013
 8300TIP3    H246392   2.575   0.568   7.001  2.0513 -0.2086 -0.4326
 8301TIP3   OH246393   2.143   1.398  35.549  0.1940  0.5505 -0.2666
 8301TIP3    H146394   2.209   1.384  35.616 -1.1434  1.9573  1.4449
 8301TIP3    H246395   2.066   1.429  35.596 -0.8436  1.5487 -2.4276
 8302TIP3   OH246396   3.576   3.353  32.307 -0.3317  0.3827  0.6179
 8302TIP3    H146397   3.670   3.353  32.321 -0.4816  0.7266  1.6888
 8302TIP3    H246398   3.538   3.331  32.392 -1.1755 -1.9929 -0.2801
 8303TIP3   OH246399   3.315   1.325   9.821  0.0806 -0.5323  0.9233
 8303TIP3    H146400   3.382   1.382   9.784  0.8733 -2.2177 -0.4073
 8303TIP3    H246401   3.364   1.263   9.875 -0.5285 -1.0864  0.8483
 8304TIP3   OH246402   2.997   2.225  28.299 -0.0506  0.5791 -0.1008
 8304TIP3    H146403   3.062   2.162  28.330 -1.0940  0.7761  2.7766
 8304TIP3    H246404   3.043   2.309  28.299  0.1945  0.4465  0.1500
 8305TIP3   OH246405   3.375   2.913  39.973 -0.2003  0.1798  0.2769
 8305TIP3    H146406   3.386   3.007  39.958 -1.4985  0.4836  1.0524
 8305TIP3    H246407   3.292   2.892  39.929  0.2608 -0.6822 -0.1935
 8306TIP3   OH246408   4.151   1.629   8.016 -0.3534  0.1767  0.3926
 8306TIP3    H146409   4.056   1.620   8.022 -0.4539  1.5097  0.9906
 8306TIP3    H246410   4.166   1.717   7.981  0.6744  0.3811  1.2834
 8307TIP3   OH246411   1.373   2.562  31.330  0.6940 -0.0207 -0.0257
 8307TIP3    H146412   1.440   2.608  31.279  0.3495  1.3724  0.7308
 8307TIP3    H246413   1.412   2.552  31.417  0.7158 -1.1098 -0.1360
 8308TIP3   OH246414   0.475   2.557   4.699 -0.6504  0.0544 -0.2826
 8308TIP3    H146415   0.385   2.581   4.720 -0.6457  0.2595 -0.4900
 8308TIP3    H246416   0.489   2.591   4.610 -1.3423 -2.6432 -1.5201
 8309TIP3   OH246417   3.147   2.262  26.314 -0.9244  0.1291  0.0601
 8309TIP3    H146418   3.080   2.203  26.350 -0.6233  0.5318  1.3146
 8309TIP3    H246419   3.230   2.227  26.346 -0.7778  1.5987  1.4414
 8310TIP3   OH246420   1.959   1.717  14.357  0.4432  0.3778  0.9107
 8310TIP3    H146421   1.963   1.632  14.400 -0.2428  1.0391  2.4025
 8310TIP3    H246422   1.989   1.779  14.424  1.3616  1.2776 -0.2850
 8311TIP3   OH246423   2.903   3.023   2.027  0.0750 -0.9589 -1.0552
 8311TIP3    H146424   2.833   3.035   1.963 -0.3077  1.7746 -0.2466
 8311TIP3    H246425   2.983   3.042   1.978 -0.1256  0.0244 -1.0220
 8312TIP3   OH246426   3.234   0.415  33.084  0.0812 -0.0885 -0.0904
 8312TIP3    H146427   3.273   0.391  33.000  1.3207  0.9838  0.1409
 8312TIP3    H246428   3.283   0.493  33.112 -0.3835 -0.3492  1.5712
 8313TIP3   OH246429   2.706   2.456   9.145  0.3457 -0.6202 -0.4465
 8313TIP3    H146430   2.704   2.504   9.062  1.4710 -0.8288 -0.6197
 8313TIP3    H246431   2.652   2.378   9.129 -1.1270  0.3342 -0.3035
 8314TIP3   OH246432   0.898   2.784   5.930 -0.1644 -0.2470  0.3748
 8314TIP3    H146433   0.911   2.737   5.847  1.9891  1.6006 -0.4406
 8314TIP3    H246434   0.812   2.755   5.960 -2.0405  0.4753 -3.5491
 8315TIP3   OH246435   0.123   3.308  28.698  0.4970  0.2776  0.3773
 8315TIP3    H146436   0.182   3.382  28.715  0.2370  0.4800  0.3916
 8315TIP3    H246437   0.044   3.348  28.663  1.3997 -0.1636 -2.4321
 8316TIP3   OH246438   0.341   0.519   3.876 -0.3384  0.0565  0.8572
 8316TIP3    H146439   0.383   0.459   3.938 -0.4500 -0.7057  0.1996
 8316TIP3    H246440   0.390   0.508   3.795  0.5887  1.9371  1.0922
 8317TIP3   OH246441   2.109   0.798   7.872 -0.8939  0.0738 -0.4609
 8317TIP3    H146442   2.031   0.746   7.854 -0.2789 -0.8422 -0.5216
 8317TIP3    H246443   2.091   0.840   7.956 -1.3992 -0.2396 -0.4110
 8318TIP3   OH246444   3.768   2.778  22.185  0.1880  0.8931  0.9259
 8318TIP3    H146445   3.862   2.779  22.167  0.2456  0.8898  1.2263
 8318TIP3    H246446   3.761   2.795  22.279 -0.1118  0.8958  0.9046
 8319TIP3   OH246447   3.648   3.614   6.587 -0.4792 -0.0324 -0.5104
 8319TIP3    H146448   3.741   3.636   6.594 -0.5842  0.2729 -0.0616
 8319TIP3    H246449   3.648   3.526   6.549 -0.0296  0.3099 -1.3355
 8320TIP3   OH246450   0.433   2.393  39.201  0.2325  0.3663 -0.6888
 8320TIP3    H146451   0.503   2.430  39.255  0.5752 -0.8029 -0.2943
 8320TIP3    H246452   0.410   2.463  39.140 -0.6747  1.9987  1.4044
 8321TIP3   OH246453   1.239   2.322  29.145 -0.6326 -0.2185  0.4328
 8321TIP3    H146454   1.252   2.407  29.188  1.4264  0.6111 -1.5718
 8321TIP3    H246455   1.304   2.265  29.186  0.7741  0.3566 -0.8561
 8322TIP3   OH246456   0.208   2.911   2.397  0.0799  0.4776 -0.7268
 8322TIP3    H146457   0.153   2.872   2.466 -0.4779  1.8498 -0.3559
 8322TIP3    H246458   0.257   2.980   2.442  0.8938  0.3527 -1.4024
 8323TIP3   OH246459   0.576   1.872  22.913  0.2121  0.3777 -0.1982
 8323TIP3    H146460   0.637   1.895  22.983  1.6723 -1.7409 -0.6764
 8323TIP3    H246461   0.618   1.799  22.867 -2.3455 -0.6958 -1.0372
 8324TIP3   OH246462   0.550   0.767  12.419 -0.3466 -0.3309  0.2457
 8324TIP3    H146463   0.568   0.862  12.419 -1.2868 -0.1316  1.0958
 8324TIP3    H246464   0.628   0.729  12.459 -0.3032  0.1784  0.6736
 8325TIP3   OH246465   1.085   0.895   0.758 -0.1059  0.1860 -0.3621
 8325TIP3    H146466   1.090   0.875   0.852 -0.2324  1.5835 -0.0238
 8325TIP3    H246467   0.992   0.908   0.741 -0.0786 -0.0305 -0.6674
 8326TIP3   OH246468   2.433   1.837  37.310  0.4542  0.2729 -0.6728
 8326TIP3    H146469   2.449   1.776  37.238  2.7003  1.5978 -1.3990
 8326TIP3    H246470   2.410   1.919  37.267 -0.0103  0.6100  0.1952
 8327TIP3   OH246471   0.429   3.447   6.002  0.7609  0.3402  0.1721
 8327TIP3    H146472   0.403   3.532   6.038  0.8309  0.4497 -0.0322
 8327TIP3    H246473   0.419   3.457   5.907  1.6877  0.4298  0.0751
 8328TIP3   OH246474   3.431   1.291  28.123  0.0513 -0.4492  0.4584
 8328TIP3    H146475   3.489   1.272  28.196  0.4553  2.8092  1.1430
 8328TIP3    H246476   3.404   1.206  28.091  4.9762 -2.2691  0.2352
 8329TIP3   OH246477   1.848   3.524   1.978  0.4103 -0.1560  0.7493
 8329TIP3    H146478   1.794   3.507   2.055  1.3612  1.6962  1.8974
 8329TIP3    H246479   1.928   3.473   1.994 -0.1238 -1.2700  0.0299
 8330TIP3   OH246480   4.226   1.253   0.485 -0.4656  0.2992 -0.0707
 8330TIP3    H146481   4.251   1.341   0.514  3.5704 -0.7021  0.1633
 8330TIP3    H246482   4.228   1.200   0.564  0.3392 -0.5603 -0.6457
 8331TIP3   OH246483   3.919   2.205  23.107  0.2336 -0.6751 -0.0582
 8331TIP3    H146484   3.947   2.251  23.186 -0.4267  0.8087 -0.6480
 8331TIP3    H246485   3.827   2.182  23.124  0.4164 -1.3715  0.0343
 8332TIP3   OH246486   1.579   3.376  18.001  0.6552 -0.1221  0.4846
 8332TIP3    H146487   1.575   3.287  18.036  1.8284  0.1128  1.2477
 8332TIP3    H246488   1.587   3.432  18.079  2.5851  0.4594 -0.0885
 8333TIP3   OH246489   0.993   1.761   2.990 -0.1907 -0.4268  0.0975
 8333TIP3    H146490   0.908   1.758   2.944 -1.7193 -1.0439  2.7738
 8333TIP3    H246491   1.010   1.671   3.015 -0.4173  0.1198  2.3936
 8334TIP3   OH246492   2.098   0.813  28.640 -0.4628 -0.1929 -0.6737
 8334TIP3    H146493   2.036   0.862  28.586 -0.6306  3.5820  2.5087
 8334TIP3    H246494   2.169   0.875  28.657  0.1097 -1.5125  2.4264
 8335TIP3   OH246495   4.301   1.518   8.230  0.5270  0.0714  0.2319
 8335TIP3    H146496   4.317   1.562   8.313 -1.3707 -0.5589  0.9848
 8335TIP3    H246497   4.237   1.573   8.185  1.7790  0.5788 -0.9922
 8336TIP3   OH246498   2.012   3.804   9.514 -0.2662 -0.3963  0.5831
 8336TIP3    H146499   1.924   3.829   9.543 -0.5451 -0.1509 -0.4184
 8336TIP3    H246500   2.008   3.709   9.505 -0.8238 -0.2885 -0.5996
 8337TIP3   OH246501   3.497   0.762   7.130 -0.3549  0.2502 -0.3523
 8337TIP3    H146502   3.438   0.703   7.081  2.3590 -2.8408 -0.2713
 8337TIP3    H246503   3.580   0.757   7.083  0.7286  1.9725  1.2430
 8338TIP3   OH246504   3.660   3.727  12.265  0.6489  0.3369  0.4283
 8338TIP3    H146505   3.610   3.657  12.308  1.3567 -0.0885  0.5778
 8338TIP3    H246506   3.724   3.681  12.211 -0.3892  0.8565 -1.3303
 8339TIP3   OH246507   2.124   3.846  14.211  0.7081 -0.1065  0.2496
 8339TIP3    H146508   2.150   3.764  14.169  0.9238 -0.0951  0.3619
 8339TIP3    H246509   2.129   3.911  14.141 -0.9877 -0.4659 -0.2426
 8340TIP3   OH246510   1.773   3.895   0.429 -0.4117  0.4884  0.1450
 8340TIP3    H146511   1.689   3.854   0.410 -1.6930  2.1222  1.9950
 8340TIP3    H246512   1.800   3.857   0.513  1.8519 -1.5973 -1.3431
 8341TIP3   OH246513   1.062   1.463  14.837 -0.4999  0.2742 -0.3038
 8341TIP3    H146514   1.059   1.457  14.741 -0.6731 -0.5035 -0.2592
 8341TIP3    H246515   1.138   1.518  14.855 -0.5177  0.4991 -0.8927
 8342TIP3   OH246516   4.219   0.167   4.301  0.3802  0.3837 -0.0482
 8342TIP3    H146517   4.304   0.130   4.276 -0.4074 -1.4322 -0.2156
 8342TIP3    H246518   4.215   0.158   4.396 -0.1230 -0.7725 -0.1557
 8343TIP3   OH246519   2.812   0.011  33.848 -0.2165 -0.5389  0.1814
 8343TIP3    H146520   2.877   0.028  33.917 -0.4173 -1.0031  0.4879
 8343TIP3    H246521   2.849   0.051  33.770  0.0580 -0.0742  0.5397
 8344TIP3   OH246522   3.194   1.142  12.213  0.2723 -0.0665 -0.7363
 8344TIP3    H146523   3.236   1.183  12.288  1.9802 -1.0482 -1.0879
 8344TIP3    H246524   3.245   1.173  12.137 -0.8703  0.2252 -1.4045
 8345TIP3   OH246525   3.734   3.813   2.958 -0.2939  0.2507  0.1534
 8345TIP3    H146526   3.811   3.756   2.953 -0.4230  0.1471 -1.0574
 8345TIP3    H246527   3.756   3.886   2.899 -1.3324 -0.0617 -0.6450
 8346TIP3   OH246528   0.724   1.563   0.986  0.0938  0.3258  0.0950
 8346TIP3    H146529   0.784   1.552   1.060  0.7011 -1.0002 -0.5717
 8346TIP3    H246530   0.708   1.475   0.954 -4.3462  0.2631  1.8237
 8347TIP3   OH246531   1.002   2.183   9.884 -0.5239  0.2665 -0.0912
 8347TIP3    H146532   1.024   2.090   9.874 -1.4008 -0.0124  0.4729
 8347TIP3    H246533   0.930   2.184   9.946  0.5676  1.4559  1.2064
 8348TIP3   OH246534   1.423   0.386   5.837 -0.0158  0.3060  0.3518
 8348TIP3    H146535   1.381   0.359   5.755  1.1781 -0.4661 -0.0438
 8348TIP3    H246536   1.356   0.375   5.904 -0.0194 -2.5573  0.0305
 8349TIP3   OH246537   2.570   1.457  33.303 -0.1035 -0.0906  0.0693
 8349TIP3    H146538   2.600   1.377  33.345 -1.6935 -2.1798 -2.4478
 8349TIP3    H246539   2.502   1.491  33.360  0.7852 -0.3368  1.3115
 8350TIP3   OH246540   4.120   3.043  35.004  0.3033  0.6624  0.0130
 8350TIP3    H146541   4.178   3.034  34.929  1.1480  1.2399  0.5747
 8350TIP3    H246542   4.098   2.953  35.029  0.1092  0.4692 -0.8417
 8351TIP3   OH246543   0.731   2.627  26.982  0.8792 -0.3193  0.3302
 8351TIP3    H146544   0.753   2.702  26.927  0.4570  0.6175  1.4049
 8351TIP3    H246545   0.654   2.588  26.941  0.5056  0.4328  0.3083
 8352TIP3   OH246546   1.243   2.831  34.783 -0.1515  0.0854  0.2830
 8352TIP3    H146547   1.171   2.784  34.825 -2.3526  2.3359 -0.7651
 8352TIP3    H246548   1.250   2.913  34.833  2.6747 -0.6035  1.2204
 8353TIP3   OH246549   0.245   3.032  38.528 -0.3781 -0.2358 -0.0877
 8353TIP3    H146550   0.307   3.040  38.456 -0.4257 -0.2956 -0.1357
 8353TIP3    H246551   0.276   2.958  38.579  0.1911  0.3718  0.4784
 8354TIP3   OH246552   1.189   3.414   9.040  0.2266  0.0057  0.2554
 8354TIP3    H146553   1.125   3.386   9.105  2.1102 -1.0360  1.8074
 8354TIP3    H246554   1.156   3.497   9.007 -1.8058 -0.4204  1.0931
 8355TIP3   OH246555   0.265   2.614  41.311  0.0413 -0.1916 -0.4633
 8355TIP3    H146556   0.254   2.599  41.217 -0.1369 -3.8045 -0.0375
 8355TIP3    H246557   0.182   2.651  41.339 -0.3368 -0.1554 -1.5759
 8356TIP3   OH246558   3.150   0.322   7.157  0.0378  0.1277  0.3037
 8356TIP3    H146559   3.073   0.330   7.213  0.2450  1.5721  0.4108
 8356TIP3    H246560   3.209   0.391   7.187  1.2054 -0.6898 -0.0501
 8357TIP3   OH246561   1.786   2.812  29.388  0.1269  0.2004 -0.2053
 8357TIP3    H146562   1.771   2.844  29.298 -2.1518 -1.1248 -0.3841
 8357TIP3    H246563   1.782   2.891  29.442 -1.0539  0.7436 -1.0386
 8358TIP3   OH246564   2.491   4.046  35.662 -0.1244  0.4667  0.1014
 8358TIP3    H146565   2.557   4.086  35.604 -0.8387  0.8561 -0.4595
 8358TIP3    H246566   2.532   3.965  35.691  0.9498  1.0968  0.4381
 8359TIP3   OH246567   3.095   0.239   8.591  0.5484 -0.1748 -0.3211
 8359TIP3    H146568   3.054   0.286   8.518  0.6172 -1.4651 -1.2320
 8359TIP3    H246569   3.024   0.224   8.653 -0.6438 -2.8162 -2.0959
 8360TIP3   OH246570   1.445   3.691  18.407  0.4262 -0.5251  0.0303
 8360TIP3    H146571   1.495   3.614  18.435 -0.7417 -2.6780 -3.2378
 8360TIP3    H246572   1.511   3.758  18.392  1.9063 -1.9967 -0.3661
 8361TIP3   OH246573   0.754   3.821  28.625 -0.2685  0.9422 -0.2213
 8361TIP3    H146574   0.753   3.766  28.704 -0.1545  0.4576 -0.5511
 8361TIP3    H246575   0.844   3.811  28.592 -0.2254  1.3933 -0.2418
 8362TIP3   OH246576   0.840   4.011  35.032  0.2189  0.2112 -0.4266
 8362TIP3    H146577   0.831   4.037  35.124  0.5833  1.5825 -0.7528
 8362TIP3    H246578   0.861   3.917  35.035 -0.0259  0.1856  0.8731
 8363TIP3   OH246579   1.204   0.773   1.740 -0.2476  1.2047  0.3623
 8363TIP3    H146580   1.140   0.844   1.754 -2.0495 -0.1032 -0.7376
 8363TIP3    H246581   1.211   0.766   1.645 -0.7089 -0.5703  0.4315
 8364TIP3   OH246582   1.760   1.415  29.874  0.4427 -0.1598 -0.0149
 8364TIP3    H146583   1.767   1.348  29.806  0.3937 -0.5847  0.3928
 8364TIP3    H246584   1.776   1.368  29.956 -1.7968 -0.1428  0.5091
 8365TIP3   OH246585   1.544   4.267  40.451  0.3422 -0.2211 -0.3241
 8365TIP3    H146586   1.571   4.340  40.505 -0.0623  0.0378 -0.4629
 8365TIP3    H246587   1.621   4.210  40.446  1.3153  1.1502 -1.8271
 8366TIP3   OH246588   4.154   1.744   6.558 -0.1742 -0.1692 -0.5069
 8366TIP3    H146589   4.139   1.660   6.516 -1.2376  0.1125 -0.7210
 8366TIP3    H246590   4.208   1.724   6.634 -0.4137 -1.0440 -0.5627
 8367TIP3   OH246591   3.827   1.454  23.011  0.0386  0.1272 -0.0847
 8367TIP3    H146592   3.883   1.504  23.071  2.3162  0.8077 -2.6025
 8367TIP3    H246593   3.770   1.519  22.971  0.7444  0.2096 -0.9729
 8368TIP3   OH246594   3.364   1.534  29.644 -0.2108 -0.0560  0.3027
 8368TIP3    H146595   3.412   1.499  29.570  1.3383 -0.5162  1.4808
 8368TIP3    H246596   3.369   1.466  29.711 -1.9878  0.1445  0.6977
 8369TIP3   OH246597   1.294   1.347   6.856  0.3400  0.1545  0.1562
 8369TIP3    H146598   1.379   1.341   6.812  0.4617  0.0351  0.4000
 8369TIP3    H246599   1.257   1.430   6.826  0.2672 -0.0911 -0.4368
 8370TIP3   OH246600   1.151   2.327  37.801 -0.0094  0.5665  0.4795
 8370TIP3    H146601   1.071   2.281  37.824  0.1595  0.1956  0.3239
 8370TIP3    H246602   1.212   2.259  37.773 -0.3664  1.0166 -1.6057
 8371TIP3   OH246603   0.499   1.086  37.878  0.0529  0.0841 -0.0088
 8371TIP3    H146604   0.486   1.147  37.806 -0.2370  1.1006  0.8741
 8371TIP3    H246605   0.485   1.138  37.957  1.9982 -0.5745  0.8519
 8372TIP3   OH246606   3.294   2.982  38.462  0.3764 -0.7068 -0.5399
 8372TIP3    H146607   3.297   3.077  38.449 -2.3540 -0.4746 -0.0339
 8372TIP3    H246608   3.331   2.969  38.549  2.1513 -0.3170 -1.1972
 8373TIP3   OH246609   0.697   1.736  10.550 -0.2509  0.0670  0.6134
 8373TIP3    H146610   0.716   1.650  10.512  0.8569  1.0824 -1.2970
 8373TIP3    H246611   0.611   1.759  10.514 -2.4807 -1.7361  4.1356
 8374TIP3   OH246612   1.121   0.345  29.396 -0.1120 -0.9168 -0.1924
 8374TIP3    H146613   1.131   0.437  29.372  0.6683 -1.4793 -2.2031
 8374TIP3    H246614   1.210   0.310  29.391 -0.1962 -1.5265  1.8334
 8375TIP3   OH246615   0.660   3.663   1.451 -0.1665 -0.0103 -0.5287
 8375TIP3    H146616   0.628   3.660   1.361 -0.4515  1.2598 -0.4883
 8375TIP3    H246617   0.754   3.645   1.443 -0.1618  0.2329 -1.1069
 8376TIP3   OH246618   2.009   2.506   8.775  0.3835 -0.5615  0.0305
 8376TIP3    H146619   1.957   2.573   8.818  1.2695 -0.6809  1.3632
 8376TIP3    H246620   2.096   2.544   8.767  0.8365 -1.4284  0.5815
 8377TIP3   OH246621   1.663   2.445  34.049  0.2316 -0.4008 -0.4002
 8377TIP3    H146622   1.642   2.451  33.956  1.5489 -0.6600 -0.7288
 8377TIP3    H246623   1.579   2.462  34.093 -0.1313  1.1530 -1.5931
 8378TIP3   OH246624   3.349   1.661   4.489  0.2264  0.0537  0.4055
 8378TIP3    H146625   3.438   1.633   4.511  0.5524  1.1647  0.5645
 8378TIP3    H246626   3.349   1.755   4.506 -0.7327  0.2169 -0.4160
 8379TIP3   OH246627   3.166   2.849  30.006 -0.2783  0.7985 -0.8662
 8379TIP3    H146628   3.090   2.794  29.988 -0.3182  0.0734  1.1636
 8379TIP3    H246629   3.233   2.788  30.038 -0.2675  1.8389  1.2993
 8380TIP3   OH246630   3.040   0.594   4.393  0.2408 -0.1030  0.3248
 8380TIP3    H146631   3.016   0.682   4.424  2.3486  1.3682 -1.8763
 8380TIP3    H246632   3.122   0.575   4.438  0.1279 -0.6894  0.2834
 8381TIP3   OH246633   3.398   1.196  41.620 -0.5147 -0.2696 -0.3602
 8381TIP3    H146634   3.392   1.289  41.599 -1.8475 -0.2375  0.0629
 8381TIP3    H246635   3.383   1.191  41.714 -0.8263 -0.9337 -0.4332
 8382TIP3   OH246636   0.307   0.085   9.337  0.8369  0.8365 -0.0842
 8382TIP3    H146637   0.339   0.114   9.251  0.2777  1.2256 -0.1627
 8382TIP3    H246638   0.289   0.166   9.384  1.2243  0.6228  0.4342
 8383TIP3   OH246639   4.094   0.638  34.113 -0.2340  0.2331 -0.0017
 8383TIP3    H146640   4.018   0.633  34.054  0.6039 -2.2446 -0.9873
 8383TIP3    H246641   4.164   0.675  34.059  0.5278 -2.0184 -0.6938
 8384TIP3   OH246642   4.338   0.898   9.769  0.0231 -0.3706 -0.8885
 8384TIP3    H146643   4.402   0.914   9.700  1.1739 -0.6593  0.0766
 8384TIP3    H246644   4.257   0.937   9.737  1.0186  1.2304 -1.5433
 8385TIP3   OH246645   2.939   0.504  33.820 -0.2800 -0.2573 -0.1135
 8385TIP3    H146646   3.002   0.452  33.870 -0.0647  1.3101  1.3188
 8385TIP3    H246647   2.888   0.439  33.771  0.7997 -1.7153  0.6226
 8386TIP3   OH246648   3.523   0.831  12.058 -1.0293  0.2290 -0.6644
 8386TIP3    H146649   3.492   0.740  12.061 -2.4553  0.7153  0.8344
 8386TIP3    H246650   3.578   0.835  11.980 -1.3134 -1.8016 -1.0239
 8387TIP3   OH246651   3.378   2.159  35.304  0.2342 -0.7256 -0.1325
 8387TIP3    H146652   3.361   2.229  35.241  0.0766 -0.5756  0.0746
 8387TIP3    H246653   3.300   2.103  35.298 -0.6769  0.3254  1.3032
 8388TIP3   OH246654   1.190   0.258   7.198  0.0650  0.4460  0.4123
 8388TIP3    H146655   1.121   0.254   7.132 -0.3612  3.1185  0.5713
 8388TIP3    H246656   1.147   0.233   7.280 -0.0072 -0.5480  0.0755
 8389TIP3   OH246657   0.254   0.892   4.781 -0.3915 -0.4077  0.7474
 8389TIP3    H146658   0.287   0.901   4.691  2.1769  2.2309  1.7755
 8389TIP3    H246659   0.191   0.963   4.791  0.7770  0.5637  1.5241
 8390TIP3   OH246660   0.664   1.335  36.330 -0.2031  0.1778  0.8530
 8390TIP3    H146661   0.599   1.299  36.270  1.7535 -1.4181 -0.4682
 8390TIP3    H246662   0.623   1.332  36.416 -1.6948 -1.2524  0.1426
 8391TIP3   OH246663   0.967   3.022   3.365 -0.2417 -0.0131 -0.0083
 8391TIP3    H146664   1.003   3.072   3.439 -0.6071 -1.6361  1.3081
 8391TIP3    H246665   1.013   2.938   3.368 -1.4431 -0.7164 -0.6058
 8392TIP3   OH246666   2.816   3.640  32.559 -0.2903 -0.1923 -0.6074
 8392TIP3    H146667   2.755   3.694  32.610 -0.4536 -0.6148 -0.3391
 8392TIP3    H246668   2.881   3.701  32.526  0.4821 -0.0495  1.0836
 8393TIP3   OH246669   0.544   1.419  35.422  0.2032 -0.3052 -0.0814
 8393TIP3    H146670   0.478   1.412  35.491 -0.0300 -2.1246 -0.4441
 8393TIP3    H246671   0.606   1.484  35.456  0.6407 -1.8457  2.3381
 8394TIP3   OH246672   2.051   0.039   9.726 -0.0041  0.1202 -0.1780
 8394TIP3    H146673   2.133   0.043   9.775 -0.1483  3.1124 -0.0176
 8394TIP3    H246674   2.078   0.044   9.634  0.0399  0.0986 -0.1661
 8395TIP3   OH246675   3.565   3.553   6.066  0.4002 -0.5057 -0.0973
 8395TIP3    H146676   3.494   3.617   6.060  0.9807  0.0968 -0.6882
 8395TIP3    H246677   3.643   3.604   6.088  0.9982 -0.9091 -1.1769
 8396TIP3   OH246678   0.200   1.440   0.327  0.3858  0.2403 -0.2293
 8396TIP3    H146679   0.295   1.447   0.316  0.4127  2.4898  0.9291
 8396TIP3    H246680   0.169   1.530   0.324 -1.4849 -0.2915  1.2574
 8397TIP3   OH246681   1.394   2.045  11.145 -0.2826 -0.0769 -0.3889
 8397TIP3    H146682   1.464   2.111  11.142  0.4675 -0.7618  1.2258
 8397TIP3    H246683   1.374   2.034  11.238 -2.1315 -0.3584 -0.7725
 8398TIP3   OH246684   3.400   4.135   0.193  0.4043  0.5594 -0.2718
 8398TIP3    H146685   3.430   4.224   0.211 -2.4288  1.2014  1.9724
 8398TIP3    H246686   3.440   4.082   0.262 -0.3290  0.6920  0.2691
 8399TIP3   OH246687   0.979   1.656  14.291  0.1753 -0.3043  0.5660
 8399TIP3    H146688   1.018   1.739  14.317  1.2694 -1.3319  2.4413
 8399TIP3    H246689   1.053   1.597  14.279 -0.6344 -1.3866  0.7066
 8400TIP3   OH246690   2.525   2.610   9.302 -0.2929 -0.2560  0.1314
 8400TIP3    H146691   2.538   2.704   9.318 -0.0240 -0.5501  1.8138
 8400TIP3    H246692   2.609   2.580   9.268  0.0785 -0.1231  0.8916
 8401TIP3   OH246693   3.329   3.467  38.776 -0.1475 -0.3079 -0.4643
 8401TIP3    H146694   3.233   3.475  38.782 -0.1369 -0.9804  1.1644
 8401TIP3    H246695   3.359   3.557  38.764 -1.0616 -0.2959 -3.8059
 8402TIP3   OH246696   2.078   2.671  11.351  0.0699  0.2618 -0.7059
 8402TIP3    H146697   2.087   2.634  11.263  3.1248  1.9523 -1.2481
 8402TIP3    H246698   2.165   2.661  11.389 -1.2189 -0.5519  2.2617
 8403TIP3   OH246699   3.160   2.024  35.223 -0.5603  0.3877  0.2708
 8403TIP3    H146700   3.111   2.098  35.189 -1.5061 -0.1926  0.3305
 8403TIP3    H246701   3.093   1.965  35.258 -0.0460 -1.4776 -1.6649
 8404TIP3   OH246702   0.332   3.327  10.987 -0.0480  0.1512  0.3884
 8404TIP3    H146703   0.366   3.332  11.076  0.8589 -0.8475  0.1151
 8404TIP3    H246704   0.240   3.303  10.997  0.4071 -1.4491  1.0331
 8405TIP3   OH246705   1.392   3.805  41.629 -0.0931 -0.0179 -0.4327
 8405TIP3    H146706   1.414   3.875  41.691 -0.5252 -0.5271  0.3118
 8405TIP3    H246707   1.343   3.741  41.681 -0.8793 -0.2355 -1.4016
 8406TIP3   OH246708   1.421   2.974   7.924  0.0227  0.7553 -1.3449
 8406TIP3    H146709   1.340   2.929   7.899  0.3732  0.9112 -2.8405
 8406TIP3    H246710   1.394   3.035   7.993 -1.1807  0.9358 -1.9399
 8407TIP3   OH246711   0.426   0.639  34.169 -0.1015 -0.1152  0.2192
 8407TIP3    H146712   0.359   0.631  34.101 -0.4300  0.2766  0.4927
 8407TIP3    H246713   0.413   0.562  34.225  0.7927 -0.9617 -0.6938
 8408TIP3   OH246714   2.045   4.244   2.268  0.5290  0.4168  0.1411
 8408TIP3    H146715   2.109   4.286   2.210 -0.5040  0.0437 -1.3260
 8408TIP3    H246716   2.016   4.167   2.219 -0.1306 -0.1051  1.3254
 8409TIP3   OH246717   0.656   1.210   3.311  0.3276 -0.0320 -0.6987
 8409TIP3    H146718   0.611   1.143   3.259 -0.2958 -0.4487  0.3482
 8409TIP3    H246719   0.630   1.192   3.401  2.8846 -0.5247  0.0341
 8410TIP3   OH246720   2.011   1.679  10.540  0.2367  0.2953 -0.0374
 8410TIP3    H146721   2.105   1.663  10.537  0.0371 -1.0168  0.1153
 8410TIP3    H246722   1.997   1.755  10.484  1.0849 -1.0842 -2.2358
 8411TIP3   OH246723   1.087   3.570  41.352 -0.1554 -0.0276  0.8175
 8411TIP3    H146724   0.995   3.574  41.326 -0.5574 -0.4587  2.1463
 8411TIP3    H246725   1.089   3.507  41.424  1.4382 -1.2846 -0.2567
 8412TIP3   OH246726   2.862   1.448   8.291  0.0441 -0.6573  0.7149
 8412TIP3    H146727   2.799   1.382   8.260  0.7344 -1.4615  0.9819
 8412TIP3    H246728   2.887   1.496   8.212 -2.5782  1.2023  0.8960
 8413TIP3   OH246729   0.299   1.293  30.843 -1.0166  0.4037 -0.0211
 8413TIP3    H146730   0.281   1.202  30.864 -2.0108  0.6611  0.2921
 8413TIP3    H246731   0.290   1.339  30.927  1.6645  0.5014  0.2864
 8414TIP3   OH246732   0.403   0.139   0.165 -0.3547 -0.3109  0.1059
 8414TIP3    H146733   0.428   0.177   0.081  1.4046 -1.3701  0.0913
 8414TIP3    H246734   0.407   0.211   0.226  0.2771  0.0857 -0.3899
 8415TIP3   OH246735   2.646   4.181  32.235  0.1910  0.4076  0.2909
 8415TIP3    H146736   2.676   4.262  32.193  0.5622  0.4943  0.7220
 8415TIP3    H246737   2.557   4.169  32.201  0.1940  0.9013  0.0906
 8416TIP3   OH246738   3.374   1.738  38.299  0.3520  0.3039  0.3920
 8416TIP3    H146739   3.284   1.771  38.304  0.6068  1.0040  0.3618
 8416TIP3    H246740   3.364   1.647  38.270 -0.3436  0.3905  0.3481
 8417TIP3   OH246741   3.697   2.117   5.459 -0.1982 -0.5276 -0.3319
 8417TIP3    H146742   3.640   2.124   5.382 -0.5538 -0.3380 -0.0570
 8417TIP3    H246743   3.636   2.112   5.532  0.1165  1.4565  0.1262
 8418TIP3   OH246744   4.268   1.285   1.602  0.5187  0.2722  0.0315
 8418TIP3    H146745   4.225   1.216   1.652 -0.0110  2.0729  2.1780
 8418TIP3    H246746   4.350   1.244   1.572 -0.5568 -1.7922 -0.2879
 8419TIP3   OH246747   0.250   1.534  27.428 -0.6355  0.1330  0.4474
 8419TIP3    H146748   0.271   1.621  27.461 -0.8390  0.1786  0.4613
 8419TIP3    H246749   0.184   1.550  27.360  1.4305  0.2659 -1.6550
 8420TIP3   OH246750   1.858   3.581   2.428 -0.5130 -0.3447  0.0436
 8420TIP3    H146751   1.874   3.653   2.490  2.2286  0.6403 -1.6352
 8420TIP3    H246752   1.894   3.504   2.470 -0.5344 -0.1007  0.5146
 8421TIP3   OH246753   1.856   0.091  11.953  0.8164 -0.1719 -0.0849
 8421TIP3    H146754   1.928   0.032  11.932  1.3284  0.5676 -0.4591
 8421TIP3    H246755   1.804   0.096  11.872  0.0407 -1.0946  0.3320
 8422TIP3   OH246756   3.605   3.658   9.987  0.4891 -0.5181 -0.8819
 8422TIP3    H146757   3.512   3.664  10.006  0.4539  0.8585 -1.3731
 8422TIP3    H246758   3.623   3.564   9.984 -0.7087 -0.8028 -0.0188
 8423TIP3   OH246759   3.283   1.677  32.997 -0.4191 -0.0642  0.0039
 8423TIP3    H146760   3.268   1.594  33.041  0.3289 -1.1810 -1.7492
 8423TIP3    H246761   3.203   1.693  32.946  0.3779 -1.0596 -1.6551
 8424TIP3   OH246762   4.237   2.840   1.257 -0.2671  0.0623  0.1831
 8424TIP3    H146763   4.156   2.789   1.252  0.2868 -1.0355  1.6373
 8424TIP3    H246764   4.306   2.775   1.267  0.9643  0.9245 -2.0513
 8425TIP3   OH246765   3.445   2.511  29.185 -0.1886 -0.0792 -0.4588
 8425TIP3    H146766   3.494   2.465  29.253 -0.1848  1.9253  1.0049
 8425TIP3    H246767   3.507   2.574  29.148 -1.0226  1.0061 -0.0875
 8426TIP3   OH246768   3.382   0.084  32.524  0.2145  0.1574  0.1635
 8426TIP3    H146769   3.418  -0.003  32.506  0.7798  0.6075 -0.9776
 8426TIP3    H246770   3.458   0.140  32.535 -0.0936  0.9038 -1.1851
 8427TIP3   OH246771   2.071   0.994   8.082  0.2581  0.3722 -0.5039
 8427TIP3    H146772   2.109   1.074   8.119  0.4265 -0.2841  0.8166
 8427TIP3    H246773   1.980   1.017   8.063  0.8892  1.5366 -2.3317
 8428TIP3   OH246774   0.223   2.115  40.230  0.4732  0.2964  0.8888
 8428TIP3    H146775   0.220   2.086  40.138  0.1568  1.6055  0.4659
 8428TIP3    H246776   0.311   2.154  40.239 -0.3532  2.4198  0.3912
 8429TIP3   OH246777   3.796   0.410  10.958  0.1294 -0.2349  0.2571
 8429TIP3    H146778   3.890   0.420  10.977  0.4485 -0.5971 -0.9558
 8429TIP3    H246779   3.793   0.406  10.862 -1.2367  0.6758  0.2425
 8430TIP3   OH246780   3.347   3.223   9.105  0.1005 -0.0002 -0.0571
 8430TIP3    H146781   3.332   3.212   9.199  0.2477  2.3860  0.3135
 8430TIP3    H246782   3.392   3.307   9.098  0.4711 -0.3222 -2.2563
 8431TIP3   OH246783   0.174   1.255   8.829  0.1164 -0.3179 -0.0241
 8431TIP3    H146784   0.239   1.196   8.791 -0.0397  0.9008 -2.3512
 8431TIP3    H246785   0.091   1.207   8.823 -0.3308  0.6102 -3.5238
 8432TIP3   OH246786   3.511   3.511  11.665  0.1014 -0.7211 -0.5233
 8432TIP3    H146787   3.572   3.525  11.737  0.4520  0.4094 -1.0239
 8432TIP3    H246788   3.424   3.526  11.705  0.2456 -0.7915 -0.1749
 8433TIP3   OH246789   3.933   0.376   0.940  0.2393  0.0810 -0.1733
 8433TIP3    H146790   3.978   0.305   0.985  1.8674  1.5285  0.6301
 8433TIP3    H246791   3.978   0.384   0.856  0.2559  0.3343 -0.1420
 8434TIP3   OH246792   0.314   4.333  37.874  0.5218 -0.2824 -0.1038
 8434TIP3    H146793   0.262   4.291  37.805  0.5491 -0.4246 -0.0403
 8434TIP3    H246794   0.326   4.265  37.940  1.0511 -0.3409 -0.2575
 8435TIP3   OH246795   4.265   1.455  26.472  0.1597  0.5518 -0.2136
 8435TIP3    H146796   4.220   1.442  26.389 -0.3574  0.4779  0.0717
 8435TIP3    H246797   4.305   1.370  26.491 -1.6782 -0.1516  0.7453
 8436TIP3   OH246798   3.703   1.610  26.973 -0.4501 -0.6976  0.1058
 8436TIP3    H146799   3.689   1.551  26.899 -2.6622 -0.6121  0.3968
 8436TIP3    H246800   3.795   1.635  26.966 -0.7559 -0.0076 -3.1455
 8437TIP3   OH246801   4.137   3.167   7.402  0.4424  0.8973 -0.0935
 8437TIP3    H146802   4.060   3.218   7.427 -0.7521 -0.4617 -0.8523
 8437TIP3    H246803   4.211   3.224   7.422 -0.6160  1.4763  2.5515
 8438TIP3   OH246804   2.005   3.332  34.117  0.3423  0.1602  0.1551
 8438TIP3    H146805   2.090   3.374  34.134  0.4272  0.8816 -1.8285
 8438TIP3    H246806   1.956   3.343  34.198  0.7651  3.1727  0.1080
 8439TIP3   OH246807   1.239   3.667   7.315 -0.5715 -0.4370 -0.0826
 8439TIP3    H146808   1.168   3.721   7.349 -1.2381 -0.8007 -0.8554
 8439TIP3    H246809   1.196   3.605   7.256 -0.1841 -3.2116  2.2796
 8440TIP3   OH246810   2.278   2.395  31.652 -0.3763 -0.6062 -0.3543
 8440TIP3    H146811   2.233   2.321  31.693 -0.2094  0.7487  2.5290
 8440TIP3    H246812   2.349   2.356  31.602  0.1938 -2.3840  1.7310
 8441TIP3   OH246813   3.956   1.981  27.644  0.4731 -0.0724  0.3460
 8441TIP3    H146814   3.925   2.046  27.706 -2.1408 -0.7022 -0.2014
 8441TIP3    H246815   3.945   1.897  27.689  0.6410 -0.3836 -0.1811
 8442TIP3   OH246816   0.900   3.276  38.123  0.3301  0.0013 -0.1958
 8442TIP3    H146817   0.928   3.274  38.214 -0.4975  0.5126  0.0817
 8442TIP3    H246818   0.926   3.363  38.091 -1.5128  0.7735  0.2826
 8443TIP3   OH246819   3.497   0.880   6.764  0.2342  0.0021  0.0492
 8443TIP3    H146820   3.437   0.914   6.830 -0.5778 -1.7000  0.2603
 8443TIP3    H246821   3.440   0.861   6.689  0.9430  0.7436 -0.6889
 8444TIP3   OH246822   0.208   0.703  30.888 -0.0748  0.7508 -0.4037
 8444TIP3    H146823   0.153   0.781  30.880 -0.5035  0.5854  0.6966
 8444TIP3    H246824   0.183   0.648  30.814 -1.0495  0.9024 -0.2073
 8445TIP3   OH246825   1.201   3.569  10.366  0.3058  0.0439  0.6063
 8445TIP3    H146826   1.296   3.571  10.357  0.5704 -1.5119  2.3508
 8445TIP3    H246827   1.187   3.539  10.456 -1.8263 -1.4988 -0.1651
 8446TIP3   OH246828   1.047   0.161   2.949  0.2513 -0.3282 -0.6072
 8446TIP3    H146829   0.982   0.210   2.998  0.8119 -0.2625  0.0955
 8446TIP3    H246830   0.997   0.113   2.883 -0.0932  3.4034 -3.3712
 8447TIP3   OH246831   0.260   2.258   4.209 -0.5638 -0.1640 -0.0750
 8447TIP3    H146832   0.303   2.315   4.272 -3.3963  1.9937  0.1274
 8447TIP3    H246833   0.239   2.179   4.259  0.7452 -0.1797  0.5052
 8448TIP3   OH246834   1.729   3.174  31.653 -0.1218 -0.4301 -0.0146
 8448TIP3    H146835   1.644   3.152  31.691  0.3168  1.1786  2.0771
 8448TIP3    H246836   1.791   3.162  31.725  1.4401 -1.4079 -1.4540
 8449TIP3   OH246837   1.008   1.896   3.602 -0.2872  0.1137  0.2213
 8449TIP3    H146838   0.921   1.856   3.600  1.1437 -3.2657 -1.8360
 8449TIP3    H246839   1.014   1.944   3.519 -0.1773  0.4219  0.4023
 8450TIP3   OH246840   2.477   0.731   9.223  0.1702  0.4939  0.2707
 8450TIP3    H146841   2.444   0.814   9.188 -0.9027 -0.6899 -1.6768
 8450TIP3    H246842   2.425   0.716   9.302 -1.8946  0.2089 -1.0596
 8451TIP3   OH246843   4.112   4.146   9.933  0.5230  0.5246 -0.1850
 8451TIP3    H146844   4.054   4.118   9.861  0.5220 -0.0181  0.0222
 8451TIP3    H246845   4.072   4.227   9.965 -0.0238  0.2570 -0.1698
 8452TIP3   OH246846   4.082   3.090   5.947 -0.1864 -0.3449  0.6611
 8452TIP3    H146847   4.082   3.123   5.856  1.5372  0.4991  0.9174
 8452TIP3    H246848   4.169   3.052   5.958 -0.6938 -1.2469  1.7118
 8453TIP3   OH246849   0.884   2.131  38.761 -0.2661 -0.0588 -0.2169
 8453TIP3    H146850   0.815   2.108  38.824 -0.1158 -1.1607 -0.4247
 8453TIP3    H246851   0.839   2.135  38.677 -0.4034  1.0810 -0.1083
 8454TIP3   OH246852   0.631   1.895  30.816  0.2163 -0.9817  0.7717
 8454TIP3    H146853   0.692   1.933  30.880 -0.8047  0.7466  0.8135
 8454TIP3    H246854   0.664   1.923  30.731 -1.7045  2.1660  0.8716
 8455TIP3   OH246855   3.582   0.998  26.712 -1.3035 -0.7347  0.2322
 8455TIP3    H146856   3.489   1.017  26.725 -1.3973 -2.1716  2.1623
 8455TIP3    H246857   3.587   0.958  26.625 -2.2872  0.3816 -0.3645
 8456TIP3   OH246858   1.032   0.908  26.381 -0.0108  0.0662  0.0748
 8456TIP3    H146859   1.101   0.890  26.446 -0.2814 -2.3027 -0.2229
 8456TIP3    H246860   0.956   0.932  26.434 -0.2911 -2.0472  0.7231
 8457TIP3   OH246861   1.769   4.312  10.652 -0.1606 -0.4805  0.1411
 8457TIP3    H146862   1.690   4.365  10.653 -0.9314 -1.5565 -0.5990
 8457TIP3    H246863   1.781   4.289  10.559  0.6377 -0.8632  0.3306
 8458TIP3   OH246864   0.389   3.075   7.904 -0.3148  0.1950  0.0025
 8458TIP3    H146865   0.298   3.099   7.886  0.1863  0.1012 -3.0908
 8458TIP3    H246866   0.440   3.129   7.844  1.7269  0.2869  1.7234
 8459TIP3   OH246867   1.960   3.343  31.478 -0.3936 -0.0244 -0.0229
 8459TIP3    H146868   1.878   3.302  31.451 -0.3113 -0.8526  0.9449
 8459TIP3    H246869   1.977   3.309  31.566  0.0770  1.5185  0.5127
 8460TIP3   OH246870   2.184   3.240   3.347 -0.8550  0.0412  0.3416
 8460TIP3    H146871   2.115   3.175   3.335  0.1035 -0.7288 -1.3502
 8460TIP3    H246872   2.265   3.194   3.327 -0.0486  1.4799  0.1181
 8461TIP3   OH246873   3.252   3.271  31.429 -0.1049 -0.3743 -0.2118
 8461TIP3    H146874   3.255   3.366  31.425  0.9261 -0.3275  0.8434
 8461TIP3    H246875   3.189   3.252  31.499  0.4792 -0.4156  0.3170
 8462TIP3   OH246876   4.214   1.388  35.793 -0.2385  0.1573 -0.5984
 8462TIP3    H146877   4.299   1.429  35.779 -1.0127  1.7373 -0.9877
 8462TIP3    H246878   4.199   1.336  35.714  0.8960 -1.1875  0.0368
 8463TIP3   OH246879   3.404   1.713  27.218  0.0565  0.1190 -0.7895
 8463TIP3    H146880   3.402   1.730  27.123  0.3567 -0.6153 -0.9383
 8463TIP3    H246881   3.335   1.649  27.232  1.6148 -1.6944 -0.9433
 8464TIP3   OH246882   3.559   1.755  29.898 -0.0591 -0.4362 -0.2876
 8464TIP3    H146883   3.597   1.740  29.812 -0.6053 -1.3120 -0.3872
 8464TIP3    H246884   3.532   1.668  29.928  0.3650 -0.1945  0.8864
 8465TIP3   OH246885   1.105   2.510   4.606  0.5517 -0.2716 -0.2103
 8465TIP3    H146886   1.095   2.446   4.677 -0.6690 -1.2545 -1.2233
 8465TIP3    H246887   1.121   2.593   4.651 -2.0895 -0.4999  1.3208
 8466TIP3   OH246888   3.685   1.750  37.197 -0.1506  0.2323 -0.0866
 8466TIP3    H146889   3.711   1.766  37.106  1.3512 -0.6779  0.1422
 8466TIP3    H246890   3.719   1.826  37.245  0.7863 -0.2183 -0.0163
 8467TIP3   OH246891   1.196   0.589  39.578  0.5732  0.2237  0.1066
 8467TIP3    H146892   1.175   0.575  39.670  1.7650  2.0210  0.6978
 8467TIP3    H246893   1.128   0.649  39.547 -0.7392 -1.5607 -0.6681
 8468TIP3   OH246894   0.243   3.199   8.514 -0.1630 -0.1504  0.3758
 8468TIP3    H146895   0.269   3.286   8.544 -0.0196 -0.0359 -0.0645
 8468TIP3    H246896   0.279   3.139   8.579 -0.1293  0.1100  0.5987
 8469TIP3   OH246897   1.611   2.931  41.002 -0.4281 -0.4615 -0.9224
 8469TIP3    H146898   1.542   2.997  41.002 -0.4495 -0.4782 -1.7127
 8469TIP3    H246899   1.633   2.919  41.094 -1.0837 -0.0451 -0.7119
 8470TIP3   OH246900   1.432   1.620  13.824 -0.3163  0.5513  0.9635
 8470TIP3    H146901   1.398   1.696  13.776  1.8850  1.2775  0.3935
 8470TIP3    H246902   1.523   1.612  13.793 -0.4714 -2.3125  1.0580
 8471TIP3   OH246903   0.251   0.231   3.343 -0.0954 -0.3988 -0.5764
 8471TIP3    H146904   0.261   0.303   3.406  0.1986  0.0161 -1.0927
 8471TIP3    H246905   0.170   0.187   3.371  0.3181 -0.5560  0.4155
 8472TIP3   OH246906   0.786   2.512  36.968  0.0288 -0.0580 -0.3374
 8472TIP3    H146907   0.793   2.426  37.009  1.1574 -0.5664 -1.5342
 8472TIP3    H246908   0.871   2.526  36.927 -0.4892  1.1708 -1.0546
 8473TIP3   OH246909   1.659   3.183  13.171  0.4706  0.8836 -0.9498
 8473TIP3    H146910   1.564   3.169  13.172  0.5082  0.6484 -0.7857
 8473TIP3    H246911   1.696   3.104  13.209  0.7254  1.0429 -0.8622
 8474TIP3   OH246912   1.927   1.923  10.760 -0.2944 -0.1797  0.3946
 8474TIP3    H146913   1.883   1.876  10.830 -1.9413 -1.1243 -1.1874
 8474TIP3    H246914   1.893   1.884  10.679  1.8832  0.5257 -0.9586
 8475TIP3   OH246915   0.554   1.010   9.101  0.0234  0.2640  0.2413
 8475TIP3    H146916   0.502   0.948   9.050 -2.0711 -0.4024  2.8848
 8475TIP3    H246917   0.552   0.974   9.190  0.0749  3.2779  1.5776
 8476TIP3   OH246918   1.118   0.400  27.958 -0.1210  0.0690 -0.8970
 8476TIP3    H146919   1.179   0.349  28.012 -0.3629 -1.2883 -1.8505
 8476TIP3    H246920   1.143   0.379  27.868 -1.1342  0.5616 -1.3076
 8477TIP3   OH246921   0.017   0.071  28.497 -0.4967 -0.3382 -0.5721
 8477TIP3    H146922   0.059  -0.009  28.529 -2.2091 -0.6475  1.1053
 8477TIP3    H246923   0.084   0.139  28.505 -0.4278 -0.6536  2.6744
 8478TIP3   OH246924   3.660   1.450  38.816  0.4354  0.2966 -0.0902
 8478TIP3    H146925   3.636   1.427  38.906  2.2197  2.1772  0.9550
 8478TIP3    H246926   3.643   1.370  38.766 -0.9068 -0.7114  1.8357
 8479TIP3   OH246927   3.995   3.089  37.658  0.2946  0.3697  0.5611
 8479TIP3    H146928   4.080   3.127  37.637 -0.4877  0.5747 -2.6865
 8479TIP3    H246929   3.938   3.165  37.674  0.4409  0.2501  1.8155
 8480TIP3   OH246930   4.127   3.382  13.372 -0.2365  0.3379 -0.6887
 8480TIP3    H146931   4.040   3.353  13.347 -1.0558  1.4241  0.7344
 8480TIP3    H246932   4.128   3.475  13.351  0.5680  0.3434 -0.6505
 8481TIP3   OH246933   3.083   2.194   3.156 -0.0365 -0.0816  0.9022
 8481TIP3    H146934   3.159   2.241   3.121 -1.5561  2.5074  0.8216
 8481TIP3    H246935   3.091   2.204   3.251 -0.0859 -0.1096  0.9094
 8482TIP3   OH246936   0.393   0.566  28.213  0.1032 -0.5011 -0.0300
 8482TIP3    H146937   0.363   0.569  28.122 -0.4607 -0.5932  0.1505
 8482TIP3    H246938   0.333   0.624  28.259 -1.1506 -2.2982  0.7154
 8483TIP3   OH246939   1.003   0.329   0.815 -0.0356  0.3478 -0.3340
 8483TIP3    H146940   1.055   0.384   0.755 -1.5002  1.5396 -0.5730
 8483TIP3    H246941   0.922   0.312   0.768 -1.4509  1.7449  1.4506
 8484TIP3   OH246942   4.257   4.186  37.589 -0.3860  0.5146  0.0513
 8484TIP3    H146943   4.278   4.251  37.656  0.0378 -1.2601  1.6964
 8484TIP3    H246944   4.342   4.161  37.552 -0.1226 -1.6178  1.9030
 8485TIP3   OH246945   4.057   3.383  39.987 -0.3028 -0.4068  0.0390
 8485TIP3    H146946   4.092   3.297  40.012 -1.2808 -1.4197 -1.8311
 8485TIP3    H246947   3.975   3.390  40.036  0.6597  0.3477  1.6258
 8486TIP3   OH246948   0.020   2.584  25.666  0.0467  0.0548  0.6983
 8486TIP3    H146949   0.056   2.636  25.595 -1.2093 -0.6573 -0.4947
 8486TIP3    H246950   0.079   2.600  25.740  1.1985  1.0444 -0.4030
 8487TIP3   OH246951   0.045   0.649   8.088  0.5244 -0.7690 -0.6025
 8487TIP3    H146952   0.044   0.677   8.180  0.5932 -0.8029 -0.5914
 8487TIP3    H246953   0.035   0.731   8.039  0.2420 -0.7795 -0.5590
 8488TIP3   OH246954   3.686   1.278  11.101  0.0551  0.2163 -0.0480
 8488TIP3    H146955   3.708   1.341  11.032  0.2961  1.7729  1.3838
 8488TIP3    H246956   3.600   1.245  11.077 -0.2385  1.3715 -0.6614
 8489TIP3   OH246957   2.456   3.894  31.014  0.2802  0.1504 -0.3178
 8489TIP3    H146958   2.422   3.885  31.103 -1.3015  0.6550 -0.8395
 8489TIP3    H246959   2.420   3.820  30.966  0.6790  0.1840 -0.6792
 8490TIP3   OH246960   1.689   1.775  36.676 -0.1991  0.2025  0.4089
 8490TIP3    H146961   1.597   1.751  36.686 -0.6300  0.6151 -1.9723
 8490TIP3    H246962   1.726   1.706  36.622  0.7330  0.3881  0.7954
 8491TIP3   OH246963   0.764   2.027  31.428 -0.0190 -0.6073 -0.2597
 8491TIP3    H146964   0.789   2.078  31.351  1.0510  1.5792  1.4174
 8491TIP3    H246965   0.668   2.029  31.427 -0.0303 -0.8317 -1.6538
 8492TIP3   OH246966   2.727   0.725  33.906 -0.2005  0.2116  0.2027
 8492TIP3    H146967   2.792   0.663  33.870 -0.8626 -1.0304  1.0907
 8492TIP3    H246968   2.749   0.808  33.864  0.7976 -0.5835 -0.9492
 8493TIP3   OH246969   3.843   2.650   2.258 -0.5422  0.0643  0.3645
 8493TIP3    H146970   3.785   2.642   2.333 -0.8164  1.8201  0.3678
 8493TIP3    H246971   3.909   2.714   2.284 -0.0596 -0.0334 -0.5485
 8494TIP3   OH246972   3.339   2.965  31.210  0.4794  0.1202 -0.1273
 8494TIP3    H146973   3.398   3.029  31.170  0.1567  0.1804 -0.5191
 8494TIP3    H246974   3.329   2.993  31.301 -0.0329  0.9039 -0.4181
 8495TIP3   OH246975   2.471   3.885  40.812 -0.5440  0.1160 -0.5128
 8495TIP3    H146976   2.439   3.965  40.770  1.8141  0.8520 -1.0946
 8495TIP3    H246977   2.509   3.914  40.895  0.2938 -0.3612 -0.7080
 8496TIP3   OH246978   4.073   3.488   6.082 -0.1094 -0.5081 -0.1891
 8496TIP3    H146979   4.168   3.499   6.075 -0.3314  1.8081 -0.3642
 8496TIP3    H246980   4.060   3.451   6.169  0.8384  2.4159  1.3259
 8497TIP3   OH246981   3.989   3.022   2.589  0.4329 -0.0617 -0.4357
 8497TIP3    H146982   4.001   3.100   2.643  1.0115 -0.4227 -0.0187
 8497TIP3    H246983   4.073   2.976   2.596 -0.3125 -1.3657  0.3824
 8498TIP3   OH246984   2.897   1.992   2.771 -0.0177  0.2822  0.2374
 8498TIP3    H146985   2.874   2.066   2.715  0.1471  1.6940  1.9627
 8498TIP3    H246986   2.968   1.947   2.724 -1.3062  0.1057 -1.6866
 8499TIP3   OH246987   2.782   3.830   9.839  0.3501  0.4719 -0.4078
 8499TIP3    H146988   2.780   3.740   9.873  1.4351  0.4169 -0.4730
 8499TIP3    H246989   2.789   3.885   9.917  0.3793  0.4708 -0.4102
 8500TIP3   OH246990   1.391   0.029  16.346  0.2573  0.1074  0.1437
 8500TIP3    H146991   1.482   0.028  16.315  0.2353 -3.2638 -0.1759
 8500TIP3    H246992   1.397   0.001  16.437 -0.3672  1.9462  0.7961
 8501TIP3   OH246993   1.279   0.958   5.463 -0.1523  0.0764 -0.0872
 8501TIP3    H146994   1.308   0.956   5.554 -0.3967  1.8210  0.0490
 8501TIP3    H246995   1.352   0.995   5.414 -1.0199  1.8348 -0.1455
 8502TIP3   OH246996   4.348   4.256  25.536 -0.3067 -0.8192  0.4388
 8502TIP3    H146997   4.280   4.215  25.588 -0.0752 -2.2696 -0.3434
 8502TIP3    H246998   4.304   4.285  25.456 -0.3827  0.1104  0.7994
 8503TIP3   OH246999   3.530   3.859   1.423 -0.2472  0.0771  0.2081
 8503TIP3    H147000   3.590   3.793   1.387  2.8839  2.8689 -0.2468
 8503TIP3    H247001   3.570   3.884   1.506 -0.5551  2.2827 -0.2659
 8504TIP3   OH247002   0.229   0.936  10.431  0.0858  0.3460 -0.0833
 8504TIP3    H147003   0.185   0.996  10.491  1.7873  2.4389 -0.7999
 8504TIP3    H247004   0.165   0.920  10.362 -0.0830  2.2740 -0.4354
 8505TIP3   OH247005   4.169   0.794  33.894  0.9078  0.1375 -0.4595
 8505TIP3    H147006   4.246   0.793  33.837  2.5830  3.7268  1.3791
 8505TIP3    H247007   4.107   0.851  33.849  0.7450  0.0258 -0.3744
 8506TIP3   OH247008   3.306   1.918  12.740 -0.0819  0.3265 -0.1843
 8506TIP3    H147009   3.337   1.990  12.795  0.2792  0.8444 -1.0509
 8506TIP3    H247010   3.384   1.866  12.721 -0.5158 -0.9580  1.3557
 8507TIP3   OH247011   2.158   1.686   3.345 -0.0039  0.0866  0.5022
 8507TIP3    H147012   2.119   1.728   3.269  1.3246  1.1356  0.3633
 8507TIP3    H247013   2.207   1.756   3.389 -0.0866 -0.6761  1.8729
 8508TIP3   OH247014   0.504   2.035   4.960 -0.5140 -0.3162  0.4548
 8508TIP3    H147015   0.506   1.985   5.042 -1.2293  0.4675  0.9597
 8508TIP3    H247016   0.527   2.124   4.985 -0.9073 -0.0310 -0.1654
 8509TIP3   OH247017   4.190   0.013  39.748  0.0636  0.0442  0.0062
 8509TIP3    H147018   4.226  -0.018  39.665 -0.5453  0.2320 -0.3353
 8509TIP3    H247019   4.151  -0.064  39.788  1.1914 -0.2524  0.5732
 8510TIP3   OH247020   1.541   2.058  16.379 -0.1350  0.0237  0.3304
 8510TIP3    H147021   1.497   2.028  16.459 -1.6129  1.8435  0.2661
 8510TIP3    H247022   1.633   2.037  16.393 -0.6472 -1.6088  1.5888
 8511TIP3   OH247023   2.871   2.562   1.766  0.2988 -0.1777  0.3598
 8511TIP3    H147024   2.911   2.642   1.800  0.1089  1.1555 -2.3239
 8511TIP3    H247025   2.945   2.505   1.746  0.5002 -0.1701  1.0448
 8512TIP3   OH247026   3.638   3.720  37.990 -0.4150  0.0337 -0.1266
 8512TIP3    H147027   3.706   3.782  38.017 -1.5007  0.9730  0.5525
 8512TIP3    H247028   3.598   3.692  38.072 -1.1211 -0.1951 -0.5452
 8513TIP3   OH247029   2.231   0.184  19.067  0.0334  0.6627  0.8922
 8513TIP3    H147030   2.315   0.228  19.061  0.3844  0.0040  0.8854
 8513TIP3    H247031   2.212   0.155  18.977  0.8662 -1.1112  1.2460
 8514TIP3   OH247032   1.454   3.370  28.797 -0.0504 -0.2820 -0.0519
 8514TIP3    H147033   1.483   3.303  28.858 -1.4061  0.4522  1.4940
 8514TIP3    H247034   1.527   3.381  28.736  1.2081 -1.3339  1.2003
 8515TIP3   OH247035   1.451   0.980   2.239 -0.1520 -0.2014 -0.2344
 8515TIP3    H147036   1.398   1.058   2.258  2.0173  1.2691  0.1923
 8515TIP3    H247037   1.445   0.927   2.318 -1.2331 -0.2576 -0.3295
 8516TIP3   OH247038   3.257   3.222  40.904  0.3720  0.4135  0.1716
 8516TIP3    H147039   3.163   3.214  40.920  0.2431  1.4127 -0.0560
 8516TIP3    H247040   3.265   3.232  40.810  0.2765  5.0186  0.4379
 8517TIP3   OH247041   3.032   0.221   1.009  0.5196  0.3919 -0.2820
 8517TIP3    H147042   3.052   0.128   1.018 -1.4552  0.0537  1.4482
 8517TIP3    H247043   3.073   0.246   0.927 -1.2437 -2.7226 -2.3609
 8518TIP3   OH247044   0.142   1.337  36.417  0.0224 -0.9355 -0.3990
 8518TIP3    H147045   0.107   1.267  36.473 -0.5496 -1.3253 -1.2272
 8518TIP3    H247046   0.133   1.303  36.328 -0.5109  0.2865 -0.8370
 8519TIP3   OH247047   2.555   1.981  35.010 -0.3664  0.2939  0.0963
 8519TIP3    H147048   2.479   1.980  34.951 -0.0727  0.2652 -0.2858
 8519TIP3    H247049   2.594   1.894  35.000 -1.1663 -0.2558  1.4608
 8520TIP3   OH247050   0.433   4.072  40.527 -0.2549 -0.3472  0.1386
 8520TIP3    H147051   0.423   4.160  40.562 -0.6239 -0.1367 -0.4909
 8520TIP3    H247052   0.461   4.085  40.437 -1.8320 -0.8508 -0.4481
 8521TIP3   OH247053   2.607   1.621  31.980  0.0642  0.2034 -0.1198
 8521TIP3    H147054   2.522   1.580  31.965 -1.2708  2.6803  0.1399
 8521TIP3    H247055   2.667   1.547  31.991 -2.4679 -1.7681  2.2876
 8522TIP3   OH247056   2.740   0.203  30.138 -0.4272  0.1809  0.0241
 8522TIP3    H147057   2.701   0.279  30.182  1.5175  1.2218  0.0838
 8522TIP3    H247058   2.766   0.145  30.210 -1.0785 -0.1230  0.0206
 8523TIP3   OH247059   4.125   3.386  27.685 -0.2199 -0.7643 -0.1576
 8523TIP3    H147060   4.102   3.467  27.641  0.1644 -0.1536  0.7284
 8523TIP3    H247061   4.105   3.402  27.778 -1.5506 -2.2024 -0.1466
 8524TIP3   OH247062   0.676   0.230  40.841  0.5942 -0.1327  0.0955
 8524TIP3    H147063   0.710   0.297  40.900  3.2110 -0.8412 -0.4709
 8524TIP3    H247064   0.673   0.272  40.755 -1.1506  0.2532  0.3102
 8525TIP3   OH247065   3.918   3.398  30.608  0.3586  0.3083  0.1943
 8525TIP3    H147066   3.873   3.364  30.686 -0.5239  2.2995  0.6239
 8525TIP3    H247067   3.990   3.337  30.594  0.3472 -0.3045  2.3716
 8526TIP3   OH247068   0.784   0.314  36.902  0.3702  0.3034 -0.2730
 8526TIP3    H147069   0.815   0.284  36.987  0.6493 -0.1395 -0.5244
 8526TIP3    H247070   0.844   0.384  36.878  0.6486  0.0392 -0.3614
 8527TIP3   OH247071   3.792   1.010  29.061 -0.2798 -0.1277  0.1849
 8527TIP3    H147072   3.834   0.965  28.987 -0.6104  0.5151 -0.4078
 8527TIP3    H247073   3.828   1.099  29.058 -0.4586 -0.0382  0.6666
 8528TIP3   OH247074   1.235   1.350  11.852  0.2651 -0.7293  1.0404
 8528TIP3    H147075   1.147   1.327  11.882 -1.9116  3.0976 -1.5919
 8528TIP3    H247076   1.240   1.314  11.763  0.7029  0.3863  0.5972
 8529TIP3   OH247077   0.492   0.155  40.032 -0.2924  0.0690 -0.0775
 8529TIP3    H147078   0.477   0.063  40.053 -1.1890  0.1433 -0.3615
 8529TIP3    H247079   0.567   0.154  39.972  1.0939 -0.2903  1.5852
 8530TIP3   OH247080   3.700   1.975   3.198 -0.0467  0.8995  0.2235
 8530TIP3    H147081   3.633   2.013   3.254 -1.3820  0.5804 -1.0825
 8530TIP3    H247082   3.739   2.049   3.152 -0.8160  0.9637 -0.3624
 8531TIP3   OH247083   1.766   3.414   1.588 -0.0797 -0.0881 -0.3250
 8531TIP3    H147084   1.695   3.367   1.544  0.9275  0.4055 -2.6209
 8531TIP3    H247085   1.727   3.497   1.613 -0.4158  0.1029 -1.4006
 8532TIP3   OH247086   1.534   3.275   1.567  0.0874  0.0654 -0.1954
 8532TIP3    H147087   1.483   3.235   1.496 -2.1333 -0.5889  1.6387
 8532TIP3    H247088   1.480   3.260   1.646  0.0265  4.9653  0.9807
 8533TIP3   OH247089   3.331   1.755  35.745  0.2512 -0.4223  0.0242
 8533TIP3    H147090   3.351   1.709  35.827 -1.3243 -1.3640 -0.0740
 8533TIP3    H247091   3.308   1.685  35.684  0.4081  0.3381 -0.9194
 8534TIP3   OH247092   0.795   0.007  17.969  0.4179  0.3815 -0.0471
 8534TIP3    H147093   0.824  -0.035  18.050  2.5916  1.3559 -0.2525
 8534TIP3    H247094   0.757  -0.064  17.917  1.1355 -0.7107  0.8756
 8535TIP3   OH247095   2.392   1.448  39.897  0.4732 -0.5275  0.5785
 8535TIP3    H147096   2.415   1.536  39.866 -0.1234 -1.7565 -4.0819
 8535TIP3    H247097   2.299   1.454  39.917 -0.5211 -0.6549 -3.1992
 8536TIP3   OH247098   1.153   0.384   8.706  0.2279 -0.3190  0.1886
 8536TIP3    H147099   1.218   0.443   8.668  1.1260 -2.0758 -1.1499
 8536TIP3    H247100   1.194   0.353   8.787  0.1301  0.1811  0.4363
 8537TIP3   OH247101   1.476   1.350  41.651 -0.5016 -0.3735 -0.0717
 8537TIP3    H147102   1.405   1.366  41.713  1.3203 -0.5863  2.2141
 8537TIP3    H247103   1.496   1.437  41.615  0.2183  0.2877  1.7923
 8538TIP3   OH247104   0.642   4.348  29.421  0.1636 -0.2130  0.0190
 8538TIP3    H147105   0.618   4.321  29.509  0.5857  0.7378  0.4385
 8538TIP3    H247106   0.559   4.374  29.380 -0.1494 -1.4404 -0.1649
 8539TIP3   OH247107   4.403   0.851   2.894  0.2647  0.4462  0.4610
 8539TIP3    H147108   4.342   0.794   2.941 -0.1341  1.1938  0.8710
 8539TIP3    H247109   4.417   0.807   2.810 -1.0864  0.4037  0.2316
 8540TIP3   OH247110   3.332   0.472   6.677 -0.5028  0.1975  0.2225
 8540TIP3    H147111   3.321   0.412   6.602 -1.7857  2.8486 -1.9048
 8540TIP3    H247112   3.362   0.416   6.748  0.5630 -2.5680 -2.1863
 8541TIP3   OH247113   1.411   0.980   0.170  0.6903  0.1482  0.4323
 8541TIP3    H147114   1.358   1.029   0.232  1.6422 -0.1338  1.5022
 8541TIP3    H247115   1.372   0.999   0.084 -0.4972  0.7348  1.0811
 8542TIP3   OH247116   1.061   0.884  37.712 -0.1316  0.4980  0.2515
 8542TIP3    H147117   0.978   0.866  37.755  0.7663 -1.1539  1.3969
 8542TIP3    H247118   1.088   0.801  37.673  1.5096  0.7005  0.8575
 8543TIP3   OH247119   1.339   2.891  17.052 -0.1054 -0.3699  0.4661
 8543TIP3    H147120   1.312   2.876  17.142 -1.3304 -0.6361  0.0800
 8543TIP3    H247121   1.362   2.984  17.048 -0.5861 -0.2281  0.9173
 8544TIP3   OH247122   3.251   2.500  32.433 -0.1777  0.3926 -0.0710
 8544TIP3    H147123   3.286   2.430  32.378  1.0323  0.6875  0.2869
 8544TIP3    H247124   3.159   2.477  32.447 -0.1881 -0.3122 -1.2066
 8545TIP3   OH247125   3.080   1.398  40.552  0.0346  0.1852  0.4876
 8545TIP3    H147126   2.985   1.396  40.564  0.1128  0.0100  1.1205
 8545TIP3    H247127   3.093   1.449  40.472 -0.7249 -1.9765 -1.0971
 8546TIP3   OH247128   0.110   1.601  32.681  0.3965  0.0191 -0.0000
 8546TIP3    H147129   0.026   1.554  32.682  0.6781 -0.5884  2.7484
 8546TIP3    H247130   0.141   1.592  32.592 -1.7533 -1.0392 -0.7161
 8547TIP3   OH247131   2.941   4.320  41.514  0.0390 -0.2063  0.1763
 8547TIP3    H147132   2.941   4.381  41.440 -1.2930  1.3132  1.3531
 8547TIP3    H247133   3.012   4.259  41.495  0.9675  1.2833 -1.4300
 8548TIP3   OH247134   1.218   0.094   5.451  0.5891  0.0717 -0.0652
 8548TIP3    H147135   1.138   0.138   5.420  0.5847  0.7262  0.8223
 8548TIP3    H247136   1.243   0.037   5.379 -0.2498  0.4339 -0.6695
 8549TIP3   OH247137   3.823   3.649   4.859 -0.2541 -0.4152 -0.7253
 8549TIP3    H147138   3.829   3.569   4.911 -0.2439 -0.0900 -0.2191
 8549TIP3    H247139   3.770   3.624   4.784 -1.8377 -0.4363  0.3415
 8550TIP3   OH247140   1.005   1.960   8.700 -0.2248  0.0569 -0.1063
 8550TIP3    H147141   0.912   1.975   8.715  0.0225  2.7110 -0.8215
 8550TIP3    H247142   1.007   1.880   8.646 -2.1525  0.4583 -0.8645
 8551TIP3   OH247143   0.483   2.512  38.633  0.5085 -0.2692  0.0670
 8551TIP3    H147144   0.428   2.543  38.705  1.3657  2.2311 -0.2753
 8551TIP3    H247145   0.572   2.517  38.666  0.9748  1.5417 -1.3132
 8552TIP3   OH247146   1.155   0.858   4.185  0.1875 -0.8591  0.5958
 8552TIP3    H147147   1.166   0.763   4.196  2.1744 -0.8326 -0.7913
 8552TIP3    H247148   1.230   0.886   4.133 -2.2365  0.8903 -2.3237
 8553TIP3   OH247149   2.263   2.152   9.956 -0.1085 -0.0158  0.1383
 8553TIP3    H147150   2.356   2.172   9.942  0.6570 -2.3024  1.4431
 8553TIP3    H247151   2.245   2.080   9.896 -1.2145  0.7324 -0.4586
 8554TIP3   OH247152   2.163   0.151   3.503 -0.4550  0.0864 -0.6576
 8554TIP3    H147153   2.162   0.166   3.598 -1.5225  1.1987 -0.8087
 8554TIP3    H247154   2.082   0.104   3.486 -0.3714  0.0831 -1.0380
 8555TIP3   OH247155   1.302   1.754   9.744 -0.4847 -0.2534 -0.3388
 8555TIP3    H147156   1.363   1.693   9.786  0.1684  0.0343 -0.8583
 8555TIP3    H247157   1.230   1.699   9.714 -0.0659 -0.7189 -0.4917
 8556TIP3   OH247158   3.506   3.641   9.648  0.1679 -0.0850 -0.1761
 8556TIP3    H147159   3.430   3.685   9.610  0.8865  0.6560 -0.7946
 8556TIP3    H247160   3.550   3.599   9.573  0.0695 -0.9766  0.2541
 8557TIP3   OH247161   1.205   3.143  39.397  0.0865  0.1305 -0.0493
 8557TIP3    H147162   1.115   3.175  39.400 -0.2645 -0.7266 -0.9857
 8557TIP3    H247163   1.198   3.054  39.363  1.1406 -0.6143  1.5678
 8558TIP3   OH247164   4.200   0.806   6.265  0.3724 -0.1004  0.1938
 8558TIP3    H147165   4.183   0.844   6.179 -0.6928 -0.0304  0.4199
 8558TIP3    H247166   4.167   0.871   6.327 -2.0293 -1.5481  0.5752
 8559TIP3   OH247167   0.550   2.136  33.643 -0.2497 -0.6218 -0.2536
 8559TIP3    H147168   0.545   2.041  33.634  1.2340 -0.6049 -1.5904
 8559TIP3    H247169   0.612   2.164  33.577 -1.5758  1.4376 -0.7469
 8560TIP3   OH247170   2.097   2.482  31.459 -0.4427 -0.4646 -0.5066
 8560TIP3    H147171   2.154   2.488  31.535  0.1912  1.1583 -1.0570
 8560TIP3    H247172   2.119   2.399  31.418  0.0097 -0.8283  0.4577
 8561TIP3   OH247173   3.569   3.022  34.789 -0.4274  1.1935 -0.3727
 8561TIP3    H147174   3.547   3.087  34.856  0.6777  0.8367  0.3631
 8561TIP3    H247175   3.484   2.986  34.762 -0.9388  1.8290  0.3438
 8562TIP3   OH247176   3.358   2.502   0.547 -0.2046  0.2414 -0.3773
 8562TIP3    H147177   3.390   2.444   0.478 -2.0363 -0.5850 -0.5959
 8562TIP3    H247178   3.405   2.584   0.533  0.0384 -0.1550 -2.1354
 8563TIP3   OH247179   3.599   0.198  33.373  0.1227 -0.2573 -0.4484
 8563TIP3    H147180   3.693   0.202  33.393 -0.3909  0.0353  2.2862
 8563TIP3    H247181   3.571   0.112  33.405 -0.2646 -1.1217 -2.9245
 8564TIP3   OH247182   0.718   2.188   7.800 -0.1930 -0.0025  0.0551
 8564TIP3    H147183   0.637   2.154   7.836  0.1578 -0.5924  0.2967
 8564TIP3    H247184   0.784   2.168   7.866  0.4949 -1.2846 -0.9793
 8565TIP3   OH247185   1.715   3.160  15.088 -0.1016 -0.2974 -0.0662
 8565TIP3    H147186   1.684   3.172  14.998  1.1956  0.1230 -0.4913
 8565TIP3    H247187   1.754   3.073  15.089 -0.0931 -0.2928  0.0845
 8566TIP3   OH247188   3.673   1.076  27.325 -0.0420 -0.8051 -0.3140
 8566TIP3    H147189   3.674   1.145  27.392  0.9693 -0.3565 -0.7766
 8566TIP3    H247190   3.732   1.009  27.359 -0.8892 -1.3827  0.0520
 8567TIP3   OH247191   2.608   3.114  39.619  0.1547 -0.1702  0.4093
 8567TIP3    H147192   2.648   3.029  39.597 -0.7061 -0.2472 -0.9593
 8567TIP3    H247193   2.612   3.117  39.715  1.3478 -1.1847  0.4262
 8568TIP3   OH247194   2.812   1.200   3.753 -0.0369  0.0984  0.0724
 8568TIP3    H147195   2.805   1.293   3.773  0.4285 -0.1416  1.4927
 8568TIP3    H247196   2.871   1.195   3.677 -0.7097  0.9918 -0.5188
 8569TIP3   OH247197   2.561   3.635  37.132  0.3011 -0.7780 -0.8132
 8569TIP3    H147198   2.564   3.727  37.104  1.3109 -0.4182  0.4114
 8569TIP3    H247199   2.555   3.586  37.050 -0.2453  0.3721 -1.4889
 8570TIP3   OH247200   3.454   3.867   7.664 -0.3067 -0.1368 -0.5264
 8570TIP3    H147201   3.484   3.797   7.607 -0.5044 -1.3177  0.7512
 8570TIP3    H247202   3.366   3.887   7.632 -0.4177 -0.7807 -0.6540
 8571TIP3   OH247203   2.327   2.845   3.410  0.1022  0.2373 -0.4572
 8571TIP3    H147204   2.341   2.937   3.429 -0.0898  0.3695 -0.9581
 8571TIP3    H247205   2.295   2.843   3.320  0.0980 -0.3158 -0.4477
 8572TIP3   OH247206   3.820   4.233   6.653  0.2169  0.3639 -0.1150
 8572TIP3    H147207   3.776   4.303   6.703  0.8910  2.0926 -1.8255
 8572TIP3    H247208   3.913   4.248   6.669  0.3511 -1.0040  0.5307
 8573TIP3   OH247209   4.186   1.583   4.434  0.4717  0.0290  0.4217
 8573TIP3    H147210   4.250   1.541   4.491 -0.3332 -1.0587  0.5744
 8573TIP3    H247211   4.140   1.510   4.392 -0.7237  0.7681  0.3929
 8574TIP3   OH247212   4.162   1.611   3.896  1.0566 -0.3879 -0.1836
 8574TIP3    H147213   4.145   1.702   3.920 -0.2687 -0.2386 -1.6059
 8574TIP3    H247214   4.110   1.560   3.958 -1.0053 -0.0482 -1.5361
 8575TIP3   OH247215   0.157   1.017  28.529  0.0836 -0.3193 -0.1005
 8575TIP3    H147216   0.144   0.925  28.549 -1.8847 -0.1474 -0.3639
 8575TIP3    H247217   0.091   1.063  28.581 -1.0717  0.6366 -2.2460
 8576TIP3   OH247218   3.855   0.418  34.598 -0.7110  0.0351  0.2412
 8576TIP3    H147219   3.813   0.398  34.682 -1.7781 -1.0858 -0.5113
 8576TIP3    H247220   3.783   0.449  34.542 -0.6536 -2.0930 -1.1365
 8577TIP3   OH247221   2.459   3.683  11.168 -0.0834 -0.4582 -0.1776
 8577TIP3    H147222   2.387   3.636  11.210 -1.8406 -0.1380 -2.6384
 8577TIP3    H247223   2.530   3.619  11.165 -0.8179 -1.3606  0.7444
 8578TIP3   OH247224   4.007   4.148  27.486 -0.2740  0.0167 -0.4162
 8578TIP3    H147225   4.065   4.214  27.525 -0.0856 -1.1276  1.3985
 8578TIP3    H247226   3.951   4.120  27.559 -3.3742  1.2485 -2.1467
 8579TIP3   OH247227   3.012   0.194  27.907 -0.1065 -0.2027  0.1134
 8579TIP3    H147228   3.090   0.197  27.850 -0.3411  1.1576 -0.1549
 8579TIP3    H247229   2.948   0.144  27.856 -0.3827  1.1726 -0.9418
 8580TIP3   OH247230   3.722   1.103   8.905  0.3216 -0.2605  0.0934
 8580TIP3    H147231   3.720   1.064   8.818  0.2592  0.4551 -0.2308
 8580TIP3    H247232   3.764   1.188   8.893  1.4459 -0.6675  0.9823
 8581TIP3   OH247233   0.041   3.789  30.949  0.2944  0.0130  0.5208
 8581TIP3    H147234   0.013   3.868  30.996  0.4985  0.5556 -0.2613
 8581TIP3    H247235   0.064   3.819  30.862  0.7182 -0.8627  0.3186
 8582TIP3   OH247236   0.743   0.541  38.724 -0.2283  0.0522 -0.3111
 8582TIP3    H147237   0.740   0.539  38.628 -0.2886 -0.3655 -0.3041
 8582TIP3    H247238   0.812   0.604  38.744 -0.1195  0.0404 -0.6323
 8583TIP3   OH247239   2.531   1.470  38.554  0.0255  0.6189  0.1515
 8583TIP3    H147240   2.600   1.510  38.502  0.3965 -0.0780  0.1001
 8583TIP3    H247241   2.510   1.536  38.621  0.5637  0.9305  0.0144
 8584TIP3   OH247242   1.311   1.895  29.715 -0.0480 -0.3401  0.3005
 8584TIP3    H147243   1.275   1.809  29.737 -0.3252 -0.8072 -1.7831
 8584TIP3    H247244   1.402   1.891  29.745  0.3559 -1.9159 -0.9693
 8585TIP3   OH247245   0.472   4.169  37.407 -0.0159  0.3250 -0.5574
 8585TIP3    H147246   0.397   4.176  37.348  0.5498 -0.0132 -1.3339
 8585TIP3    H247247   0.443   4.211  37.488 -0.6487  1.2089 -1.2223
 8586TIP3   OH247248   3.668   4.009  40.150 -0.0973  0.4583 -0.2917
 8586TIP3    H147249   3.722   4.061  40.090  1.8068  0.9480  1.7374
 8586TIP3    H247250   3.633   4.073  40.212  0.5691 -0.4056  1.0042
 8587TIP3   OH247251   0.659   0.814  30.501 -0.0361 -0.0597 -0.4009
 8587TIP3    H147252   0.653   0.758  30.424 -3.4343  0.7498 -0.8955
 8587TIP3    H247253   0.607   0.769  30.567  1.9496 -0.2180  1.1347
 8588TIP3   OH247254   0.945   0.743  33.263  0.3237  0.2127 -0.0935
 8588TIP3    H147255   0.889   0.741  33.185  0.4094 -0.6021 -0.1511
 8588TIP3    H247256   0.897   0.795  33.326 -1.5551 -2.1692  0.6066
 8589TIP3   OH247257   3.190   0.948   3.860  0.3163  0.0001  0.0913
 8589TIP3    H147258   3.206   0.951   3.954 -1.0730  0.6680  0.3345
 8589TIP3    H247259   3.241   0.874   3.829 -0.5224 -1.2964  1.6665
 8590TIP3   OH247260   1.311   2.218  34.911 -0.2432  0.5480  0.2863
 8590TIP3    H147261   1.365   2.294  34.894 -0.8701  0.7394 -0.9444
 8590TIP3    H247262   1.354   2.174  34.985  1.5752  0.6914 -0.6307
 8591TIP3   OH247263   0.119   1.911  34.536 -0.3592 -0.4676 -0.4883
 8591TIP3    H147264   0.171   1.952  34.605  0.1047  1.3104 -1.8187
 8591TIP3    H247265   0.033   1.899  34.576 -0.5618  1.9630 -0.0040
 8592TIP3   OH247266   3.699   1.299  41.157  0.1146 -0.3676 -0.1203
 8592TIP3    H147267   3.775   1.322  41.104  0.2973 -1.6926 -0.4712
 8592TIP3    H247268   3.717   1.210  41.188 -0.5995 -0.1313  1.0657
 8593TIP3   OH247269   1.177   3.595  29.363  0.4485 -0.4747  0.2866
 8593TIP3    H147270   1.192   3.635  29.449 -0.0313  0.4923 -0.0680
 8593TIP3    H247271   1.099   3.638  29.330  1.6210  0.4708 -1.3903
 8594TIP3   OH247272   3.450   3.282  37.258 -0.1496  0.2333 -0.5091
 8594TIP3    H147273   3.371   3.245  37.219  0.5394 -3.4015  1.1086
 8594TIP3    H247274   3.419   3.329  37.335 -0.8040 -1.9391  0.6431
 8595TIP3   OH247275   2.752   2.985   5.617  0.2314 -0.7010 -0.5605
 8595TIP3    H147276   2.749   3.080   5.611 -0.0832 -0.7537 -1.4394
 8595TIP3    H247277   2.672   2.955   5.573  0.1901 -1.3637 -0.0513
 8596TIP3   OH247278   1.775   3.392   4.640  0.2669  0.1372  0.4122
 8596TIP3    H147279   1.688   3.374   4.605  0.4090  1.0443 -0.4594
 8596TIP3    H247280   1.829   3.320   4.609 -0.1441 -0.3808  0.8773
 8597TIP3   OH247281   2.709   1.998  12.664  0.4490  0.4556  0.5766
 8597TIP3    H147282   2.660   2.007  12.745 -1.8111  0.3095 -0.6914
 8597TIP3    H247283   2.661   2.050  12.600  1.1736 -0.7936 -1.0771
 8598TIP3   OH247284   0.059   1.026  30.649 -0.1538  0.0056 -0.3432
 8598TIP3    H147285   0.017   0.980  30.722  0.0448  0.1662 -0.1241
 8598TIP3    H247286  -0.011   1.038  30.585 -0.8090  1.5291  0.6027
 8599TIP3   OH247287   1.840   3.162   2.960  0.4099 -0.1366 -0.2331
 8599TIP3    H147288   1.815   3.189   3.048 -0.0664 -0.2492 -0.3326
 8599TIP3    H247289   1.917   3.215   2.940  1.0565 -0.7312  0.5863
 8600TIP3   OH247290   3.414   0.997  27.483 -0.7068  1.0090 -0.3703
 8600TIP3    H147291   3.356   0.957  27.418  0.3160  1.8935 -1.9089
 8600TIP3    H247292   3.402   1.092  27.470  0.2869  1.1988 -0.0000
 8601TIP3   OH247293   3.782   3.571  32.046 -0.0084  0.3520  0.1195
 8601TIP3    H147294   3.798   3.662  32.022 -0.5660  0.8069  1.3574
 8601TIP3    H247295   3.687   3.566  32.061 -0.1495 -0.7022 -0.9139
 8602TIP3   OH247296   1.236   4.359  16.150 -0.2048  0.0144  0.0712
 8602TIP3    H147297   1.176   4.298  16.192  0.6003 -1.0045 -0.2369
 8602TIP3    H247298   1.293   4.389  16.221 -0.5292  0.3469  0.1994
 8603TIP3   OH247299   1.106   0.394   7.816 -0.4531 -0.0802  0.3115
 8603TIP3    H147300   1.167   0.324   7.794 -0.1371  0.4561 -0.5697
 8603TIP3    H247301   1.098   0.445   7.735  2.4112  3.2748  1.8809
 8604TIP3   OH247302   0.572   3.437  41.165  0.1987  0.2813 -0.1395
 8604TIP3    H147303   0.589   3.352  41.207  0.0531  0.7030  0.8165
 8604TIP3    H247304   0.480   3.432  41.138 -0.1862  0.5727  1.0409
 8605TIP3   OH247305   2.840   2.728   6.138  0.1825 -0.2093 -0.4821
 8605TIP3    H147306   2.891   2.797   6.096 -1.2464  2.5077  1.8497
 8605TIP3    H247307   2.785   2.693   6.069 -1.1098  3.0869 -1.2946
 8606TIP3   OH247308   3.808   3.969  21.597  0.0843  0.0251  0.1786
 8606TIP3    H147309   3.758   3.946  21.518  1.2755  2.0976 -1.2904
 8606TIP3    H247310   3.824   3.885  21.640 -1.0085 -1.1457 -1.5388
 8607TIP3   OH247311   3.186   2.262   0.591 -0.1224  0.1038  0.0167
 8607TIP3    H147312   3.102   2.306   0.605  0.5795  1.9105 -1.0248
 8607TIP3    H247313   3.248   2.333   0.575  1.2183 -1.2550 -1.1927
 8608TIP3   OH247314   3.124   4.183  36.458  0.1762 -0.0910  0.3022
 8608TIP3    H147315   3.184   4.227  36.398  1.0511  0.7670  1.7401
 8608TIP3    H247316   3.041   4.178  36.411  0.3084  2.2446 -0.2880
 8609TIP3   OH247317   3.557   3.616  39.994  0.2586 -0.4545  0.4832
 8609TIP3    H147318   3.652   3.609  39.984  0.4246  1.2310  0.4858
 8609TIP3    H247319   3.538   3.707  39.970 -1.6115 -1.2489 -1.3320
 8610TIP3   OH247320   1.559   0.352   9.821  0.4377  0.2743  0.3374
 8610TIP3    H147321   1.653   0.352   9.800  0.3598  1.2379 -0.0435
 8610TIP3    H247322   1.522   0.286   9.763  0.6613  0.9453 -0.5873
 8611TIP3   OH247323   3.701   2.291   0.605  0.2138  0.7443  0.1281
 8611TIP3    H147324   3.791   2.323   0.598 -0.1147  1.7100  0.1527
 8611TIP3    H247325   3.683   2.292   0.699  0.3091  0.1504  0.1576
 8612TIP3   OH247326   3.795   1.849  36.952  0.4529  0.1837  0.5994
 8612TIP3    H147327   3.824   1.929  36.995  0.7605  0.6074 -0.3561
 8612TIP3    H247328   3.839   1.851  36.867  0.6391 -1.1124  0.6524
 8613TIP3   OH247329   1.810   2.427  28.371 -0.0213  0.2946 -0.2894
 8613TIP3    H147330   1.772   2.484  28.437 -1.4703 -0.7512 -0.1788
 8613TIP3    H247331   1.884   2.385  28.415  0.8350  1.7644 -0.2650
 8614TIP3   OH247332   0.695   3.580  34.569 -0.0026 -0.0671  0.2381
 8614TIP3    H147333   0.674   3.605  34.659 -0.2028  1.2568 -0.1465
 8614TIP3    H247334   0.612   3.553  34.532 -0.3737  1.5628 -0.1885
 8615TIP3   OH247335   3.963   1.434   0.210 -0.3801  0.4228 -0.1767
 8615TIP3    H147336   4.025   1.461   0.278 -2.2355 -0.3820  1.9606
 8615TIP3    H247337   4.003   1.357   0.170  0.2704  0.2523  0.7626
 8616TIP3   OH247338   1.783   3.117  35.419  0.0109 -0.0512 -0.4367
 8616TIP3    H147339   1.798   3.060  35.494  1.5665  0.3545 -0.4009
 8616TIP3    H247340   1.764   3.203  35.457  0.9393  0.1869 -0.4908
 8617TIP3   OH247341   1.842   4.167  27.041  1.0999 -0.2728  1.0876
 8617TIP3    H147342   1.873   4.077  27.053  1.2039 -0.7508 -1.9831
 8617TIP3    H247343   1.767   4.159  26.981  0.5510  1.6282  1.4596
 8618TIP3   OH247344   2.735   2.793  41.105  0.6357  0.2156 -0.5634
 8618TIP3    H147345   2.756   2.721  41.165 -0.2373  0.2405 -0.2112
 8618TIP3    H247346   2.700   2.749  41.027 -0.7435  0.2767 -0.0000
 8619TIP3   OH247347   4.303   3.686   7.422  0.8805  0.0088 -0.7067
 8619TIP3    H147348   4.290   3.760   7.481 -0.5529 -0.6860 -0.0860
 8619TIP3    H247349   4.264   3.715   7.339  0.1771 -0.0838 -0.4191
 8620TIP3   OH247350   1.101   3.793  32.045  0.8860 -0.2258 -0.4618
 8620TIP3    H147351   1.114   3.745  31.963 -0.2127 -0.6900 -0.3839
 8620TIP3    H247352   1.084   3.883  32.018  2.3515  0.0205 -0.6414
 8621TIP3   OH247353   1.125   3.481  41.064  0.4972  0.0734  0.3349
 8621TIP3    H147354   1.120   3.516  41.153 -0.6794 -0.2209  0.4069
 8621TIP3    H247355   1.074   3.542  41.011  0.0499 -0.4855  0.1113
 8622TIP3   OH247356   2.902   1.011  34.290  0.0062  0.0419 -0.2076
 8622TIP3    H147357   2.886   1.067  34.214 -1.9774  2.2413  1.6626
 8622TIP3    H247358   2.899   0.922  34.255 -2.1659  0.9070 -2.5441
 8623TIP3   OH247359   3.924   3.819  40.712  0.9298 -0.3696  0.4367
 8623TIP3    H147360   4.002   3.873  40.709  1.1981 -0.8025 -0.9741
 8623TIP3    H247361   3.889   3.822  40.623 -0.8504  0.0753  1.1047
 8624TIP3   OH247362   3.399   4.143  35.640  0.0836 -0.0655 -0.3126
 8624TIP3    H147363   3.377   4.083  35.712 -0.3581 -0.3149 -0.6525
 8624TIP3    H247364   3.373   4.096  35.561 -1.3209  1.0303 -0.5340
 8625TIP3   OH247365   1.892   2.979  37.166  0.6513  0.0578 -0.4082
 8625TIP3    H147366   1.909   2.904  37.224  1.1488  0.5713  0.1255
 8625TIP3    H247367   1.931   3.053  37.212  1.7892  0.3510 -1.7904
 8626TIP3   OH247368   0.812   3.585   4.818  0.2079  0.1855 -0.0907
 8626TIP3    H147369   0.776   3.623   4.898  0.2563  0.0423 -0.0017
 8626TIP3    H247370   0.779   3.495   4.817 -0.4774  0.4284 -0.6496
 8627TIP3   OH247371   0.314   3.505  12.081  0.3252 -0.9820  0.0961
 8627TIP3    H147372   0.295   3.578  12.023  0.2813 -1.0652  0.0050
 8627TIP3    H247373   0.406   3.485  12.066  0.4362 -0.6965  0.4046
 8628TIP3   OH247374   2.707   2.764   2.041  0.0564 -0.1374 -0.3898
 8628TIP3    H147375   2.636   2.778   2.104  0.3851 -1.1064  0.2243
 8628TIP3    H247376   2.786   2.792   2.087  0.3881 -1.4962 -0.0905
 8629TIP3   OH247377   4.110   1.467  23.637 -0.2797  0.0467  0.2946
 8629TIP3    H147378   4.049   1.514  23.580  1.8724  2.8207  0.0644
 8629TIP3    H247379   4.102   1.512  23.722  0.0415 -0.8617  0.8207
 8630TIP3   OH247380   1.080   0.024  39.174  0.4921  0.1698 -0.3575
 8630TIP3    H147381   0.999  -0.027  39.163 -0.2616  1.5068 -1.2411
 8630TIP3    H247382   1.140  -0.013  39.108 -0.8980  1.9956 -2.8127
 8631TIP3   OH247383   1.829   4.121  10.847 -0.4450 -0.2823 -0.2502
 8631TIP3    H147384   1.861   4.171  10.922 -1.5263  2.2433 -1.3740
 8631TIP3    H247385   1.794   4.187  10.787  1.1029 -2.0849 -3.3967
 8632TIP3   OH247386   3.458   1.724  41.403 -0.0943 -0.8287  0.2993
 8632TIP3    H147387   3.477   1.816  41.421 -0.9120 -0.9340  1.9037
 8632TIP3    H247388   3.486   1.711  41.313 -0.9561  1.2760 -0.3334
 8633TIP3   OH247389   2.538   2.829   3.741 -0.0260 -0.4909  0.0021
 8633TIP3    H147390   2.620   2.864   3.705 -1.4285  0.7398 -2.1938
 8633TIP3    H247391   2.560   2.805   3.831  3.2855 -2.1138 -1.0567
 8634TIP3   OH247392   0.824   3.964  36.404 -0.5306 -0.2569 -0.3809
 8634TIP3    H147393   0.784   3.999  36.484  0.9616  1.4882 -0.3342
 8634TIP3    H247394   0.803   3.871  36.406 -2.0090  0.0600  1.1500
 8635TIP3   OH247395   0.889   2.849   2.961  0.3868 -0.3675 -0.2212
 8635TIP3    H147396   0.867   2.938   2.989  1.1691 -0.5903  1.2373
 8635TIP3    H247397   0.944   2.816   3.032  1.2899 -1.5154 -1.4268
 8636TIP3   OH247398   2.278   2.323  10.331 -0.4185 -0.0874  0.0148
 8636TIP3    H147399   2.255   2.364  10.415  0.6084 -0.8717  0.7086
 8636TIP3    H247400   2.252   2.231  10.341  0.3511 -0.3449 -0.2473
 8637TIP3   OH247401   3.414   0.725   8.384  0.4456 -0.0944  0.3723
 8637TIP3    H147402   3.369   0.678   8.313  0.8934  0.6663 -0.4248
 8637TIP3    H247403   3.348   0.729   8.454 -1.4889  2.5812 -1.3989
 8638TIP3   OH247404   2.523   0.658   6.438  0.2188  0.1498  0.1132
 8638TIP3    H147405   2.491   0.662   6.528  0.7064 -0.3519  0.3183
 8638TIP3    H247406   2.482   0.732   6.394  0.9187  1.1401  1.0627
 8639TIP3   OH247407   3.139   1.283  31.256 -0.1068 -0.5594  0.0456
 8639TIP3    H147408   3.045   1.279  31.273  0.0734 -1.5350  0.9806
 8639TIP3    H247409   3.169   1.193  31.269  1.1605 -0.0259  1.0246
 8640TIP3   OH247410   0.151   0.416  38.899  0.0643 -0.4950 -0.2795
 8640TIP3    H147411   0.212   0.348  38.870  0.1543  0.0562 -1.4250
 8640TIP3    H247412   0.065   0.378  38.884  0.0904 -0.0144 -1.9042
 8641TIP3   OH247413   2.347   4.186  28.775 -0.1521  0.0100 -0.3833
 8641TIP3    H147414   2.385   4.274  28.778 -0.7965  0.2777  0.1038
 8641TIP3    H247415   2.387   4.141  28.850  0.9572 -0.4492 -1.2246
 8642TIP3   OH247416   1.570   1.886  30.004 -0.2793 -0.4969 -0.0337
 8642TIP3    H147417   1.619   1.966  30.019  1.6925 -1.9903  2.2176
 8642TIP3    H247418   1.515   1.876  30.082 -1.9688 -0.4345 -1.1446
 8643TIP3   OH247419   3.764   4.376   9.598 -0.4021 -0.0971  0.0113
 8643TIP3    H147420   3.677   4.347   9.625 -0.2149 -1.2817 -0.6021
 8643TIP3    H247421   3.777   4.339   9.511  0.8102 -0.1447  0.1847
 8644TIP3   OH247422   0.348   2.979  28.815 -0.6247  0.0105  0.0361
 8644TIP3    H147423   0.335   2.902  28.760 -3.1567  2.2826 -2.8339
 8644TIP3    H247424   0.263   3.022  28.818  0.5992  2.6000  1.7756
 8645TIP3   OH247425   0.628   1.093  10.785  0.2310 -0.1985  0.0765
 8645TIP3    H147426   0.623   1.178  10.742  1.4466 -0.0133  0.2477
 8645TIP3    H247427   0.703   1.050  10.744  0.3922 -0.6798  0.8583
 8646TIP3   OH247428   2.060   3.105   6.078 -0.3823  0.8938 -0.8534
 8646TIP3    H147429   1.974   3.142   6.059 -1.3754 -1.2247 -0.8405
 8646TIP3    H247430   2.045   3.049   6.155  0.6762 -0.5372 -1.6328
 8647TIP3   OH247431   0.726   0.301   6.510 -0.2914  0.5183  0.2296
 8647TIP3    H147432   0.666   0.328   6.440 -1.2622  1.5784  1.4089
 8647TIP3    H247433   0.668   0.264   6.577  0.7030 -1.3482  0.1236
 8648TIP3   OH247434   0.748   2.888  38.259  0.3380  0.4320 -0.1040
 8648TIP3    H147435   0.726   2.908  38.350  3.6632  1.9174  0.5136
 8648TIP3    H247436   0.732   2.970  38.213  1.1915  0.4887 -0.3049
 8649TIP3   OH247437   1.675   1.923  41.455 -0.0924 -0.6016 -0.0319
 8649TIP3    H147438   1.686   1.870  41.533  1.6682 -0.1117  0.1009
 8649TIP3    H247439   1.698   1.865  41.383  1.5218 -0.1670  0.0905
 8650TIP3   OH247440   1.129   1.936  40.334  0.2831  0.4871 -0.2105
 8650TIP3    H147441   1.217   1.908  40.312  1.0036  2.6000 -0.2541
 8650TIP3    H247442   1.089   1.958  40.249 -0.7776 -1.6096 -0.3296
 8651TIP3   OH247443   3.987   0.996  27.398  0.4806  0.0345 -0.4979
 8651TIP3    H147444   4.020   0.979  27.310  1.3757 -0.3014 -0.1114
 8651TIP3    H247445   4.001   0.914  27.445  0.2089  0.2785  0.0133
 8652TIP3   OH247446   0.447   0.581   5.522  0.0072 -0.6533  0.2514
 8652TIP3    H147447   0.475   0.649   5.583 -0.8831  0.3576 -0.4195
 8652TIP3    H247448   0.518   0.574   5.459  0.3357 -0.7272  0.6292
 8653TIP3   OH247449   2.835   4.105  27.101 -0.0814  0.2061  0.2871
 8653TIP3    H147450   2.776   4.036  27.074 -0.9546  1.4487 -1.1203
 8653TIP3    H247451   2.791   4.187  27.077  2.9806  1.1952 -2.7922
 8654TIP3   OH247452   2.907   0.175   3.886 -0.0753 -0.2837 -0.5334
 8654TIP3    H147453   3.001   0.178   3.900  0.4735 -0.5575 -3.4077
 8654TIP3    H247454   2.887   0.256   3.840 -1.4550  0.1974  0.8313
 8655TIP3   OH247455   1.134   4.143  27.706 -0.2351 -0.5066 -0.1105
 8655TIP3    H147456   1.142   4.128  27.612  0.8443  1.1026 -0.3057
 8655TIP3    H247457   1.093   4.228  27.714 -1.1788 -1.0319  0.9059
 8656TIP3   OH247458   1.644   3.786  10.142  0.0675 -0.2471 -0.0148
 8656TIP3    H147459   1.724   3.791  10.089  1.3445  1.2271  1.8859
 8656TIP3    H247460   1.615   3.877  10.149 -0.9881 -0.6108  0.4632
 8657TIP3   OH247461   4.131   0.643  23.522 -0.0964  0.0983 -0.6109
 8657TIP3    H147462   4.213   0.628  23.569  0.0826 -0.3148 -1.0416
 8657TIP3    H247463   4.062   0.617  23.583  0.1359 -0.4991 -0.6038
 8658TIP3   OH247464   3.594   2.875  12.925  0.4586  0.7014 -0.2984
 8658TIP3    H147465   3.526   2.926  12.882  0.2495  0.2668 -0.4913
 8658TIP3    H247466   3.554   2.845  13.007 -0.1126 -0.7772 -1.0714
 8659TIP3   OH247467   2.207   3.854   6.329 -0.5778  0.2792  0.6581
 8659TIP3    H147468   2.196   3.789   6.260  1.1491 -0.6400  1.1788
 8659TIP3    H247469   2.173   3.812   6.408 -0.0216  0.2442  0.8824
 8660TIP3   OH247470   0.791   2.333  37.618 -0.0478  0.0612  0.1635
 8660TIP3    H147471   0.798   2.369  37.706  2.5270 -0.0496  0.0918
 8660TIP3    H247472   0.837   2.249  37.622 -1.7833 -1.0026 -0.8156
 8661TIP3   OH247473   3.730   3.448  34.983 -0.1507  0.5041 -0.0640
 8661TIP3    H147474   3.736   3.421  35.075 -1.7256 -0.5872 -0.2462
 8661TIP3    H247475   3.689   3.534  34.986 -2.2819 -0.4639  0.2017
 8662TIP3   OH247476   2.429   0.016  11.303 -0.5293  0.4921 -0.1355
 8662TIP3    H147477   2.441   0.088  11.241 -2.1424  0.5231 -0.4338
 8662TIP3    H247478   2.435  -0.063  11.250 -0.0636  0.4457 -0.0186
 8663TIP3   OH247479   3.831   1.528   4.029  0.2555  0.1382  0.4173
 8663TIP3    H147480   3.886   1.452   4.047  0.5111  0.3521  0.5358
 8663TIP3    H247481   3.826   1.575   4.113  1.6229  1.2548 -0.0940
 8664TIP3   OH247482   3.133   1.183   0.757 -0.2651  0.4358 -0.4372
 8664TIP3    H147483   3.095   1.268   0.775 -1.0464 -0.0644  0.3501
 8664TIP3    H247484   3.092   1.124   0.821  1.5670 -0.1938  0.2216
 8665TIP3   OH247485   3.127   1.413  32.166 -0.5365 -0.5976  0.0772
 8665TIP3    H147486   3.072   1.345  32.125 -0.0474 -0.7492 -0.3303
 8665TIP3    H247487   3.064   1.472  32.207 -1.0546 -0.3259 -1.0638
 8666TIP3   OH247488   2.343   3.917  30.543  0.3256  0.0044  0.0338
 8666TIP3    H147489   2.430   3.953  30.558  0.3155 -0.2865  0.8254
 8666TIP3    H247490   2.333   3.849  30.610 -0.0259 -0.8140 -0.8382
 8667TIP3   OH247491   2.623   2.644   8.641  0.0876  0.5014 -0.5525
 8667TIP3    H147492   2.608   2.550   8.645 -2.3568  0.7364 -1.9532
 8667TIP3    H247493   2.655   2.660   8.552 -1.7072  1.1726 -1.1258
 8668TIP3   OH247494   1.272   1.076  41.610  0.2681  0.5463 -0.0861
 8668TIP3    H147495   1.226   1.031  41.539  1.3636  1.1804 -1.2508
 8668TIP3    H247496   1.226   1.159  41.619 -0.4745  0.0664  0.6392
 8669TIP3   OH247497   3.004   4.216  29.159 -0.0124  0.0122  0.1611
 8669TIP3    H147498   3.079   4.241  29.104  0.8113  2.3359  2.1170
 8669TIP3    H247499   2.936   4.191  29.097  1.8803 -0.7480 -1.7557
 8670TIP3   OH247500   0.731   0.964  33.096  0.4211 -0.3922 -0.6732
 8670TIP3    H147501   0.702   0.880  33.061 -2.3329  0.3623 -0.4685
 8670TIP3    H247502   0.662   0.990  33.157  3.3981 -0.0481  2.8195
 8671TIP3   OH247503   3.604   0.880  11.718 -0.2128 -0.2261  0.3560
 8671TIP3    H147504   3.557   0.961  11.737 -2.3352 -1.6564  1.5526
 8671TIP3    H247505   3.537   0.820  11.685  1.2698 -1.5717 -0.3355
 8672TIP3   OH247506   1.438   2.469  32.639 -0.0074  0.0019  0.6501
 8672TIP3    H147507   1.465   2.551  32.678  1.4279 -0.1080 -0.0689
 8672TIP3    H247508   1.358   2.445  32.686  0.7324  0.7094  2.3364
 8673TIP3   OH247509   1.315   2.166   5.486 -0.1421  0.0049 -0.2124
 8673TIP3    H147510   1.266   2.248   5.493 -0.6455 -0.3417  0.4341
 8673TIP3    H247511   1.299   2.122   5.569  0.3889 -0.6028 -0.4306
 8674TIP3   OH247512   1.413   2.181   0.995 -0.4333  0.1035  0.3502
 8674TIP3    H147513   1.407   2.274   1.018  0.9725  0.1944  0.4372
 8674TIP3    H247514   1.353   2.138   1.055 -0.4674  0.8736  0.8884
 8675TIP3   OH247515   1.859   2.265  40.647  0.0384 -0.2012 -0.9542
 8675TIP3    H147516   1.845   2.228  40.734 -3.6025 -2.9210 -2.4362
 8675TIP3    H247517   1.805   2.344  40.645 -0.5026 -0.5690 -0.9647
 8676TIP3   OH247518   2.715   3.127  34.285 -0.2426 -0.0994 -0.4352
 8676TIP3    H147519   2.708   3.070  34.209  0.6801 -0.1185 -0.5145
 8676TIP3    H247520   2.713   3.068  34.360 -0.7759 -0.1101 -0.4518
 8677TIP3   OH247521   1.200   0.429   2.714  0.0553 -0.0584 -0.0803
 8677TIP3    H147522   1.258   0.369   2.761  1.0573  1.0940  0.2060
 8677TIP3    H247523   1.211   0.407   2.622 -0.8851 -1.4288  0.1101
 8678TIP3   OH247524   4.038   4.375  23.856 -0.0722 -0.1979  0.1976
 8678TIP3    H147525   4.105   4.348  23.918 -0.4735  1.7562  1.5636
 8678TIP3    H247526   3.978   4.429  23.907 -0.6508  1.1424 -1.7900
 8679TIP3   OH247527   0.704   0.161  41.157 -0.2421  0.4920 -0.0230
 8679TIP3    H147528   0.623   0.205  41.182 -0.0614  0.7556  0.0996
 8679TIP3    H247529   0.683   0.068  41.161 -0.7943  0.5689 -0.8377
 8680TIP3   OH247530   2.661   3.207  27.826 -0.1728  0.3528 -0.1556
 8680TIP3    H147531   2.578   3.184  27.867 -0.2770  2.6595  1.0448
 8680TIP3    H247532   2.636   3.251  27.744 -0.1141  0.6384 -0.0191
 8681TIP3   OH247533   4.353   3.060   0.277  0.3232 -0.0333  0.3236
 8681TIP3    H147534   4.289   3.071   0.207  0.5757  0.6413  0.1938
 8681TIP3    H247535   4.438   3.067   0.233  0.4839  1.1178  0.7951
 8682TIP3   OH247536   3.140   1.119   7.847  0.0495 -0.2106 -0.0338
 8682TIP3    H147537   3.063   1.071   7.877  0.5386 -1.1073 -0.1662
 8682TIP3    H247538   3.141   1.199   7.900 -2.1898  0.8998 -1.5370
 8683TIP3   OH247539   2.687   3.825   8.084  0.2222  0.1262  0.0797
 8683TIP3    H147540   2.744   3.761   8.125  0.1981 -0.8258 -1.2874
 8683TIP3    H247541   2.661   3.784   8.001  0.5930  2.1024 -1.0758
 8684TIP3   OH247542   0.784   1.344  31.861  0.2149 -0.0920 -0.2087
 8684TIP3    H147543   0.834   1.376  31.936  0.8314 -3.4647  0.9904
 8684TIP3    H247544   0.712   1.294  31.899 -1.3121  0.6692 -1.9279
 8685TIP3   OH247545   1.473   3.079  31.726  0.0437  0.0171  0.2833
 8685TIP3    H147546   1.386   3.089  31.766  0.0947  0.1993  0.3454
 8685TIP3    H247547   1.455   3.035  31.643  0.0536 -1.5172  1.0547
 8686TIP3   OH247548   1.237   2.859   3.366  0.2284  0.6920  0.2743
 8686TIP3    H147549   1.241   2.764   3.357 -0.0220  0.5593  1.3950
 8686TIP3    H247550   1.262   2.893   3.280 -0.0046 -0.3882 -0.2341
 8687TIP3   OH247551   0.574   2.944  41.426  0.4417 -0.1379 -0.3667
 8687TIP3    H147552   0.637   3.008  41.391  0.1960  0.2379 -0.1250
 8687TIP3    H247553   0.564   2.880  41.356 -1.5689  1.6554 -1.8707
 8688TIP3   OH247554   4.070   2.344  23.318 -0.0233 -0.2754 -0.4912
 8688TIP3    H147555   4.068   2.251  23.337  1.1772  0.2761  3.1854
 8688TIP3    H247556   4.160   2.361  23.289  0.1450 -0.0969  0.1184
 8689TIP3   OH247557   3.519   2.425   9.521 -0.2243  0.4640  0.0115
 8689TIP3    H147558   3.567   2.400   9.442  0.4056  1.3842  0.0931
 8689TIP3    H247559   3.574   2.491   9.563 -1.8386  2.0167 -0.2019
 8690TIP3   OH247560   1.794   3.287  11.713  0.2726 -0.1456  0.3235
 8690TIP3    H147561   1.836   3.212  11.754 -0.8426  0.1858  2.1619
 8690TIP3    H247562   1.823   3.362  11.764  0.5508  0.5821 -0.8502
 8691TIP3   OH247563   4.306   0.511  31.281 -0.0768 -0.1215  0.4284
 8691TIP3    H147564   4.363   0.582  31.311  0.2960  0.5467 -1.7276
 8691TIP3    H247565   4.360   0.432  31.291  0.1091  0.1012  1.2623
 8692TIP3   OH247566   1.344   3.913   5.611 -0.1889  0.6206  0.0593
 8692TIP3    H147567   1.270   3.887   5.556  0.4459  2.2318 -1.6609
 8692TIP3    H247568   1.404   3.839   5.606 -1.2610 -0.3217  0.7331
 8693TIP3   OH247569   2.631   2.863   9.236  0.3047 -0.0361  0.3392
 8693TIP3    H147570   2.725   2.851   9.252  0.4443  0.4861 -0.0333
 8693TIP3    H247571   2.608   2.942   9.285  0.1724  0.1196  0.0294
 8694TIP3   OH247572   2.883   0.826  39.210  0.4431  0.0057  0.0956
 8694TIP3    H147573   2.837   0.758  39.259 -4.8127  1.3028 -2.3684
 8694TIP3    H247574   2.916   0.781  39.133  0.5615 -0.4079  0.3802
 8695TIP3   OH247575   2.446   2.494   6.137  0.3277 -0.1202  0.1794
 8695TIP3    H147576   2.357   2.488   6.170 -0.6225 -0.6800 -2.2405
 8695TIP3    H247577   2.467   2.587   6.142 -0.3604  0.0116  0.8308
 8696TIP3   OH247578   0.149   0.409  32.275  0.1943  0.2676  0.1562
 8696TIP3    H147579   0.111   0.457  32.349  0.6687  2.4034 -0.8793
 8696TIP3    H247580   0.073   0.375  32.228 -0.0995 -1.4437  1.7725
 8697TIP3   OH247581   1.099   2.694  33.851  0.1303  0.0442  0.1635
 8697TIP3    H147582   1.142   2.653  33.776 -1.0669 -1.6921  0.3513
 8697TIP3    H247583   1.138   2.781  33.858  0.9794 -0.1418 -1.8411
 8698TIP3   OH247584   2.522   2.920  29.461  0.0398  0.0903 -0.1947
 8698TIP3    H147585   2.447   2.979  29.468  0.1488  0.3603 -1.1728
 8698TIP3    H247586   2.509   2.856  29.531  0.0445  1.3970  1.0615
 8699TIP3   OH247587   1.324   2.246  11.484  0.1098  0.4063 -0.1941
 8699TIP3    H147588   1.331   2.172  11.544  0.4471 -0.4813 -1.2999
 8699TIP3    H247589   1.260   2.218  11.418 -1.2593  1.8743  0.4324
 8700TIP3   OH247590   2.674   0.264  11.838  0.3365 -0.3079  0.0692
 8700TIP3    H147591   2.621   0.189  11.866 -0.1426  0.3312  0.9194
 8700TIP3    H247592   2.753   0.259  11.891 -0.3295  0.5890  1.1929
 8701TIP3   OH247593   3.334   2.435   9.189  0.2165  0.1173  0.5661
 8701TIP3    H147594   3.290   2.517   9.164  0.4503 -0.0548 -0.4332
 8701TIP3    H247595   3.273   2.366   9.164  0.1245 -0.0370  1.1876
 8702TIP3   OH247596   1.979   4.385   0.699 -0.1945 -0.2244  0.3871
 8702TIP3    H147597   2.068   4.408   0.672 -0.5904 -0.5717 -1.3234
 8702TIP3    H247598   1.984   4.292   0.722  0.4016  0.3245  2.8780
 8703TIP3   OH247599   4.152   4.114  35.244 -0.0753 -0.0951 -0.1826
 8703TIP3    H147600   4.146   4.038  35.302 -1.2951 -0.6255 -0.9580
 8703TIP3    H247601   4.205   4.082  35.170  1.2476  0.4952  0.4774
 8704TIP3   OH247602   4.130   1.493  39.581  0.7805 -0.2355  0.2783
 8704TIP3    H147603   4.121   1.577  39.626 -0.0502  0.0903 -0.4624
 8704TIP3    H247604   4.211   1.501  39.530  1.1219 -0.1855  0.8230
 8705TIP3   OH247605   0.813   2.209  28.647  0.3431  0.3780  0.1588
 8705TIP3    H147606   0.718   2.198  28.645  0.3939 -0.3946  1.2584
 8705TIP3    H247607   0.832   2.232  28.737  1.1322  1.3118 -0.2384
 8706TIP3   OH247608   1.489   0.552  17.426  0.0692 -0.0745  0.4631
 8706TIP3    H147609   1.510   0.516  17.339  1.4284  1.1090  0.2653
 8706TIP3    H247610   1.399   0.526  17.441 -0.0497 -0.7000 -1.1155
 8707TIP3   OH247611   3.973   2.361  31.281 -0.2305  0.2831 -0.6705
 8707TIP3    H147612   3.924   2.346  31.200 -0.2091 -1.2519 -0.4212
 8707TIP3    H247613   4.030   2.435  31.261 -1.6963  1.2796 -1.3780
 8708TIP3   OH247614   1.895   3.324  13.216 -0.1325 -0.1929 -0.1264
 8708TIP3    H147615   1.816   3.273  13.201  0.5859 -1.3056 -0.2262
 8708TIP3    H247616   1.868   3.393  13.277 -1.2825 -0.2513 -0.5491
 8709TIP3   OH247617   1.095   2.520   2.179 -0.0924  0.0352 -0.1681
 8709TIP3    H147618   1.061   2.523   2.269  0.6357  0.3096  0.1035
 8709TIP3    H247619   1.171   2.461   2.184 -1.0230 -1.2925 -0.9533
 8710TIP3   OH247620   3.650   1.177   9.739 -0.4146 -0.3708 -0.4379
 8710TIP3    H147621   3.640   1.272   9.735  0.9500 -0.0649  1.7915
 8710TIP3    H247622   3.629   1.147   9.650 -0.8868  1.9926 -1.1922
 8711TIP3   OH247623   0.683   2.123  13.715  0.3142  0.3030  0.3391
 8711TIP3    H147624   0.651   2.122  13.805 -0.6965 -0.6316 -0.0171
 8711TIP3    H247625   0.709   2.033  13.698  0.9500  0.5739 -0.1558
 8712TIP3   OH247626   1.600   0.678   8.129 -0.7272 -0.1503 -0.3556
 8712TIP3    H147627   1.575   0.671   8.222 -0.6882  2.7447 -0.0188
 8712TIP3    H247628   1.576   0.767   8.105 -0.2260 -0.6554 -3.0175
 8713TIP3   OH247629   3.899   2.476   9.707  0.2305  0.4564  0.1047
 8713TIP3    H147630   3.881   2.516   9.622 -0.4539 -1.3772 -0.6531
 8713TIP3    H247631   3.816   2.483   9.755 -0.0163 -0.3702 -0.1839
 8714TIP3   OH247632   2.847   2.511   3.655 -0.2808 -0.4835 -0.1500
 8714TIP3    H147633   2.799   2.566   3.593 -0.4031 -2.2277 -1.7195
 8714TIP3    H247634   2.932   2.497   3.613  0.4109 -0.0712  1.0677
 8715TIP3   OH247635   0.241   4.327  40.403  0.0716  0.6558  0.0658
 8715TIP3    H147636   0.305   4.351  40.470  1.3105 -0.7326 -0.5565
 8715TIP3    H247637   0.161   4.374  40.428  0.9343  1.3773  1.6275
 8716TIP3   OH247638   1.024   4.332  40.237 -0.0127 -0.2711 -0.2263
 8716TIP3    H147639   1.066   4.255  40.200  0.5234  0.1677 -0.5503
 8716TIP3    H247640   1.097   4.387  40.267 -0.3987 -0.0628  0.3496
 8717TIP3   OH247641   2.455   0.829   2.799 -0.0957 -0.3422 -0.2058
 8717TIP3    H147642   2.463   0.912   2.847  0.1659  0.3417 -1.3973
 8717TIP3    H247643   2.485   0.763   2.861 -0.2479  0.4547  0.7512
 8718TIP3   OH247644   4.371   2.185  37.715  0.4721  0.6544 -0.5474
 8718TIP3    H147645   4.394   2.210  37.804  0.8773  0.8166 -0.6933
 8718TIP3    H247646   4.290   2.232  37.696 -0.0291  0.0284  0.0015
 8719TIP3   OH247647   4.306   1.076  25.683 -0.2899  0.1121  0.0967
 8719TIP3    H147648   4.348   1.001  25.727 -0.9698 -0.1547  0.3006
 8719TIP3    H247649   4.217   1.046  25.666 -0.9494  1.3159  1.2947
 8720TIP3   OH247650   0.550   2.745  32.212  0.8895  0.5773 -0.0694
 8720TIP3    H147651   0.523   2.837  32.201 -0.4407  0.1569 -0.5469
 8720TIP3    H247652   0.481   2.695  32.168  0.3806 -0.7742  2.1233
 8721TIP3   OH247653   2.230   2.674  38.692  0.0488 -0.1554 -0.0601
 8721TIP3    H147654   2.204   2.710  38.777 -0.5269 -0.7892  0.0509
 8721TIP3    H247655   2.323   2.655  38.701 -0.0357 -0.3331  0.4875
 8722TIP3   OH247656   0.654   3.788   8.208 -0.0405  0.4287 -0.0683
 8722TIP3    H147657   0.691   3.790   8.120  0.1562  0.5355  0.0174
 8722TIP3    H247658   0.622   3.877   8.223 -1.1473  0.1307 -0.4859
 8723TIP3   OH247659   4.107   1.199  28.232 -0.0571 -0.1779 -0.0127
 8723TIP3    H147660   4.167   1.128  28.255  0.0505  0.3547  1.4398
 8723TIP3    H247661   4.086   1.184  28.139  1.8447 -0.7237 -0.3952
 8724TIP3   OH247662   2.050   1.251  13.299 -0.1772 -0.0718 -0.5909
 8724TIP3    H147663   1.999   1.216  13.226 -1.3648  1.6056 -0.6271
 8724TIP3    H247664   2.076   1.339  13.270 -0.3837  0.4941  0.8650
 8725TIP3   OH247665   2.515   0.463  31.502  0.2111  0.0368  0.7705
 8725TIP3    H147666   2.549   0.551  31.490  0.1727  0.1505  1.4522
 8725TIP3    H247667   2.421   0.474  31.511  0.1259 -0.1489  0.1615
 8726TIP3   OH247668   0.781   2.217   9.005  0.6885 -0.0499 -0.0153
 8726TIP3    H147669   0.739   2.184   8.925 -0.4500  0.2294  0.4501
 8726TIP3    H247670   0.853   2.156   9.021 -1.7458 -2.8335  1.2000
 8727TIP3   OH247671   4.168   1.477   6.662 -0.8414  0.2133  0.2558
 8727TIP3    H147672   4.159   1.530   6.741  0.9622  3.6459 -1.6493
 8727TIP3    H247673   4.078   1.464   6.631 -1.3547  2.4535  0.6740
 8728TIP3   OH247674   0.809   2.370  27.105 -0.0657 -0.2990  0.0001
 8728TIP3    H147675   0.786   2.450  27.057  3.2111  0.0279 -1.2487
 8728TIP3    H247676   0.845   2.312  27.039  1.1363 -1.3026  1.4783
 8729TIP3   OH247677   3.077   1.017   6.719 -0.2461 -0.4541 -0.0870
 8729TIP3    H147678   3.021   1.072   6.774  0.7092 -1.0699  1.5569
 8729TIP3    H247679   3.053   0.927   6.743 -0.2496 -0.7603 -1.1636
 8730TIP3   OH247680   0.062   1.222  28.193  0.4742 -0.1507 -0.4309
 8730TIP3    H147681   0.144   1.238  28.146  1.1038 -1.6160  0.1004
 8730TIP3    H247682   0.040   1.131  28.172 -0.2621 -0.2218  0.5772
 8731TIP3   OH247683   2.355   3.514  28.714 -0.3953  0.4833  0.5737
 8731TIP3    H147684   2.286   3.552  28.769  0.1793  1.9991  0.2794
 8731TIP3    H247685   2.413   3.469  28.776  0.4394  2.4603  1.3009
 8732TIP3   OH247686   2.210   3.085  34.388  0.2473  0.1953  0.2120
 8732TIP3    H147687   2.119   3.078  34.359  0.7243 -1.7334 -0.9541
 8732TIP3    H247688   2.253   3.136  34.319 -0.0503  1.8030  1.1484
 8733TIP3   OH247689   0.565   4.383  10.829 -0.4062  0.0511  0.5095
 8733TIP3    H147690   0.601   4.355  10.913  1.6169 -0.5027 -0.4519
 8733TIP3    H247691   0.643   4.404  10.777 -1.6401  1.1633 -0.9499
 8734TIP3   OH247692   2.338   1.742  18.663  0.4600 -0.4250 -0.4942
 8734TIP3    H147693   2.411   1.774  18.610 -0.8161 -0.5426 -2.4187
 8734TIP3    H247694   2.355   1.648  18.672  0.2658 -0.5600 -1.4407
 8735TIP3   OH247695   0.255   1.614   2.691 -0.4228 -0.8890 -0.5316
 8735TIP3    H147696   0.252   1.688   2.630 -1.5887 -0.7650 -0.3388
 8735TIP3    H247697   0.349   1.595   2.701  0.1885  2.4220  1.6158
 8736TIP3   OH247698   0.140   3.544   7.803  0.2014 -0.0504 -0.2797
 8736TIP3    H147699   0.111   3.615   7.860 -1.0445  1.1673 -2.3154
 8736TIP3    H247700   0.132   3.579   7.714  0.3002 -2.4738 -1.3297
 8737TIP3   OH247701   2.860   0.361  40.177  0.1645  0.3720 -0.2243
 8737TIP3    H147702   2.827   0.341  40.265 -1.5088  0.7562 -0.7380
 8737TIP3    H247703   2.953   0.382  40.191  0.1753 -0.5558  1.3034
 8738TIP3   OH247704   0.052   0.591  32.455  0.5364  0.4046 -0.1267
 8738TIP3    H147705   0.033   0.667  32.400 -0.2926  1.1520  1.1226
 8738TIP3    H247706  -0.006   0.601  32.531  1.1826 -0.9087  0.5931
 8739TIP3   OH247707   4.377   3.320  41.403  0.4588  0.1547 -0.1853
 8739TIP3    H147708   4.455   3.303  41.350  0.9400  0.2119  0.4875
 8739TIP3    H247709   4.333   3.392  41.359 -0.6832 -1.6104 -2.1054
 8740TIP3   OH247710   3.775   2.457  26.205 -0.5082  0.0825 -0.8175
 8740TIP3    H147711   3.786   2.536  26.152  1.2542 -0.7276 -1.7241
 8740TIP3    H247712   3.799   2.386  26.147 -1.5851 -1.1124  0.1439
 8741TIP3   OH247713   2.247   2.254  31.379 -0.4563  0.4158 -0.7784
 8741TIP3    H147714   2.307   2.198  31.330 -0.6229  0.4266 -0.9984
 8741TIP3    H247715   2.177   2.195  31.407  0.6613 -0.0484  1.2668
 8742TIP3   OH247716   4.171   0.841  32.398 -1.1074  0.2665  0.3999
 8742TIP3    H147717   4.240   0.794  32.351 -1.4677 -0.9649  1.0431
 8742TIP3    H247718   4.216   0.884  32.471 -0.8359  0.5511  0.0615
 8743TIP3   OH247719   3.606   2.399   9.241  0.1589 -0.4795 -0.0530
 8743TIP3    H147720   3.514   2.404   9.217  0.0455 -0.7580  0.3256
 8743TIP3    H247721   3.644   2.480   9.206 -0.0587 -0.7313 -0.9136
 8744TIP3   OH247722   3.795   3.790   1.189 -0.1449  0.0881  0.0995
 8744TIP3    H147723   3.873   3.748   1.153  0.0632  0.0031  0.6385
 8744TIP3    H247724   3.730   3.720   1.193  0.2778 -0.2644  1.2272
 8745TIP3   OH247725   3.410   2.963   1.329 -0.1152  0.5169  1.0500
 8745TIP3    H147726   3.482   3.027   1.323 -0.5570  0.9368 -0.4453
 8745TIP3    H247727   3.392   2.955   1.422  0.0816  2.4638  1.2944
 8746TIP3   OH247728   2.904   3.982  33.148  0.3785 -0.0400  0.0352
 8746TIP3    H147729   2.959   3.961  33.072  1.8508 -0.6137  1.2203
 8746TIP3    H247730   2.826   3.927  33.137  0.4642  0.0414 -1.1461
 8747TIP3   OH247731   2.263   0.162  12.726 -0.0264  0.2028  0.3515
 8747TIP3    H147732   2.306   0.240  12.761 -0.2522  0.2649  0.4891
 8747TIP3    H247733   2.189   0.195  12.676  0.1903  0.1034 -0.0342
 8748TIP3   OH247734   2.194   1.746  27.010  0.5169 -0.3272  0.0341
 8748TIP3    H147735   2.178   1.656  26.982  0.9438 -0.0342 -1.1972
 8748TIP3    H247736   2.271   1.741  27.066 -0.1564 -0.8782  0.9403
 8749TIP3   OH247737   1.232   2.392   5.314 -0.1995  0.1600  0.2032
 8749TIP3    H147738   1.263   2.343   5.238  1.3742 -2.0114  2.1176
 8749TIP3    H247739   1.308   2.442   5.343 -0.5205  0.2271  0.9388
 8750TIP3   OH247740   1.138   0.092   3.508 -0.1176 -0.1254  0.7151
 8750TIP3    H147741   1.055   0.132   3.535 -0.0459  0.1550  0.5345
 8750TIP3    H247742   1.126  -0.001   3.521 -1.0062 -0.2446 -0.6877
 8751TIP3   OH247743   3.950   4.348   0.807  0.1366  0.3515 -0.1976
 8751TIP3    H147744   3.857   4.355   0.828  0.3558 -1.2941  1.5765
 8751TIP3    H247745   3.956   4.266   0.757  0.8726 -0.8208  1.6995
 8752TIP3   OH247746   2.970   3.546   6.359  0.0469  0.4906 -0.0932
 8752TIP3    H147747   2.920   3.535   6.277  1.9841 -0.8618 -1.1777
 8752TIP3    H247748   2.917   3.606   6.411 -2.2822 -0.2074 -1.4911
 8753TIP3   OH247749   1.393   4.213  33.628  0.2511  0.1890  0.7220
 8753TIP3    H147750   1.299   4.201  33.642 -0.2185 -1.0245 -2.6519
 8753TIP3    H247751   1.428   4.123  33.624  1.5118  0.6143  1.4996
 8754TIP3   OH247752   3.968   3.879  32.228 -0.4917 -0.1945 -0.4574
 8754TIP3    H147753   3.949   3.869  32.135  0.2030 -1.4024 -0.5014
 8754TIP3    H247754   4.031   3.809  32.247  0.9530  1.3052  0.4802
 8755TIP3   OH247755   0.050   3.534  25.961 -0.2024 -0.5710  0.4163
 8755TIP3    H147756  -0.036   3.519  25.923  0.6025 -0.7251 -1.4391
 8755TIP3    H247757   0.101   3.457  25.937  1.0040  0.3904 -0.1970
 8756TIP3   OH247758   0.935   1.904   5.844  0.5748 -0.0295 -0.2974
 8756TIP3    H147759   0.896   1.821   5.816  2.7934 -1.0745 -0.4731
 8756TIP3    H247760   0.938   1.957   5.765 -0.8707  0.2626 -0.1806
 8757TIP3   OH247761   4.151   0.918   9.053 -0.1577  0.2415 -0.3095
 8757TIP3    H147762   4.064   0.881   9.074  0.0592  0.0073  0.2041
 8757TIP3    H247763   4.145   0.943   8.961  0.3439 -3.0527 -1.3590
 8758TIP3   OH247764   2.208   1.648   6.819 -0.1147  0.1496  0.4067
 8758TIP3    H147765   2.242   1.714   6.880  1.5727 -1.5903  1.4584
 8758TIP3    H247766   2.192   1.571   6.874  2.7405 -1.9464 -1.4428
 8759TIP3   OH247767   0.781   0.758   0.510 -0.5800 -0.4574 -0.0470
 8759TIP3    H147768   0.835   0.698   0.458 -0.0433  0.7744 -0.9596
 8759TIP3    H247769   0.719   0.701   0.556  0.1311 -1.7289 -0.6196
 8760TIP3   OH247770   1.019   2.660  31.602  0.3764  0.5059 -0.1122
 8760TIP3    H147771   1.076   2.701  31.537  0.7988 -0.4396 -0.3668
 8760TIP3    H247772   1.065   2.668  31.685  0.9419 -0.3136 -0.3274
 8761TIP3   OH247773   2.907   1.961   8.269 -0.4951  0.1341 -0.0880
 8761TIP3    H147774   2.982   1.908   8.297 -0.4458  0.6237  0.7445
 8761TIP3    H247775   2.940   2.051   8.273 -0.8120  0.2810 -0.7384
 8762TIP3   OH247776   2.580   2.968  33.595 -0.9946 -0.3021 -0.0846
 8762TIP3    H147777   2.550   2.880  33.574 -1.0850 -0.2340 -0.2393
 8762TIP3    H247778   2.528   2.992  33.672 -1.4275 -0.1399 -0.4230
 8763TIP3   OH247779   0.381   2.924  29.224 -0.5223 -0.5797  0.4633
 8763TIP3    H147780   0.456   2.864  29.219 -1.3311 -1.7257  1.3738
 8763TIP3    H247781   0.412   3.005  29.183  0.2939 -1.9150 -1.7226
 8764TIP3   OH247782   2.782   1.154  11.357 -0.3248  0.2327  0.3106
 8764TIP3    H147783   2.862   1.203  11.339  0.5150 -0.7078  1.4061
 8764TIP3    H247784   2.750   1.190  11.440 -0.3901 -0.1999  0.4754
 8765TIP3   OH247785   2.679   3.593  41.290  0.3606 -0.4118  0.0602
 8765TIP3    H147786   2.682   3.639  41.375  0.6036 -0.9181  0.3321
 8765TIP3    H247787   2.771   3.580  41.267  0.3269  0.9315 -0.9576
 8766TIP3   OH247788   0.025   1.815   4.982 -0.0516  0.0173  0.0640
 8766TIP3    H147789   0.108   1.781   4.948  0.9481  0.0530  2.2677
 8766TIP3    H247790   0.014   1.900   4.939  0.9097 -0.1154 -0.4776
 8767TIP3   OH247791   4.068   3.315   6.681 -0.0664 -0.7867  0.6377
 8767TIP3    H147792   3.995   3.265   6.646  0.2764 -0.4519 -0.6017
 8767TIP3    H247793   4.030   3.366   6.753 -0.9439 -0.9815  0.3217
 8768TIP3   OH247794   3.827   2.689  31.496 -0.6461  0.1840 -0.6088
 8768TIP3    H147795   3.804   2.642  31.576 -1.0115  0.4571 -0.5506
 8768TIP3    H247796   3.837   2.780  31.523 -0.6698  0.2616 -0.8550
 8769TIP3   OH247797   0.743   0.456   8.501  0.0947 -0.2263  0.1611
 8769TIP3    H147798   0.671   0.519   8.508 -0.3418 -0.7845  0.7903
 8769TIP3    H247799   0.790   0.465   8.584  2.1284  1.7365 -1.0794
 8770TIP3   OH247800   0.032   2.524  36.675 -0.2894  0.5604  0.0927
 8770TIP3    H147801   0.109   2.563  36.636 -1.1080  2.0997 -0.0418
 8770TIP3    H247802   0.063   2.440  36.710  1.5024  1.2769  0.3344
 8771TIP3   OH247803   2.599   2.449  27.067 -0.0482  0.0248 -0.4495
 8771TIP3    H147804   2.530   2.405  27.117 -0.5957 -0.1427 -1.3350
 8771TIP3    H247805   2.667   2.382  27.056  0.0916  0.0745  0.0962
 8772TIP3   OH247806   2.481   0.978   0.453 -0.2502  0.4575  0.5041
 8772TIP3    H147807   2.508   0.926   0.377 -1.9216  2.0113 -1.2862
 8772TIP3    H247808   2.385   0.983   0.445 -0.3755  1.4137  2.2117
 8773TIP3   OH247809   2.012   0.451   4.381  0.0190  0.1786 -0.2644
 8773TIP3    H147810   1.922   0.449   4.348 -0.2444  0.2528  0.4445
 8773TIP3    H247811   2.037   0.359   4.387 -0.0268  0.1566 -0.3945
 8774TIP3   OH247812   1.952   1.277   0.084  0.5397 -0.4844  0.2470
 8774TIP3    H147813   1.929   1.184   0.090  1.6914 -0.7577  0.7716
 8774TIP3    H247814   1.870   1.323   0.104 -0.1253 -1.3670 -0.3241
 8775TIP3   OH247815   1.724   2.950  36.966 -0.8796  0.1841 -0.2344
 8775TIP3    H147816   1.729   3.045  36.954 -0.8143  0.4340  1.6102
 8775TIP3    H247817   1.787   2.930  37.035 -1.7639 -1.0329  0.2632
 8776TIP3   OH247818   1.199   4.281   0.214 -0.7859 -0.4343 -0.2019
 8776TIP3    H147819   1.146   4.216   0.260 -1.3703  0.4435  0.3986
 8776TIP3    H247820   1.201   4.252   0.124 -0.0789 -1.9062  0.2629
 8777TIP3   OH247821   3.612   0.654   1.028  0.5007 -0.2650  0.1073
 8777TIP3    H147822   3.689   0.684   0.979  0.8816 -1.2988  0.0563
 8777TIP3    H247823   3.632   0.563   1.050 -1.1429 -0.8766 -0.7967
 8778TIP3   OH247824   1.885   3.035  33.315 -0.2384  0.2326 -0.6364
 8778TIP3    H147825   1.926   3.112  33.274 -1.0901  1.6885  1.1271
 8778TIP3    H247826   1.947   3.009  33.383  0.0081 -0.6496 -1.1745
 8779TIP3   OH247827   0.279   1.655  25.432 -0.0425  0.1914  0.0264
 8779TIP3    H147828   0.259   1.581  25.489 -1.2054  0.0986 -0.4769
 8779TIP3    H247829   0.265   1.732  25.487 -0.4339  0.0830  0.0782
 8780TIP3   OH247830   0.866   3.935  33.818  0.1412  0.1697  0.0765
 8780TIP3    H147831   0.946   3.882  33.822  0.5313  0.8223  1.5765
 8780TIP3    H247832   0.795   3.871  33.808  0.8198 -0.4328 -1.1092
 8781TIP3   OH247833   0.363   0.490  28.644  1.0635  0.2844 -0.1706
 8781TIP3    H147834   0.425   0.541  28.696  0.3162 -0.3416  1.4026
 8781TIP3    H247835   0.278   0.503  28.688  0.7451 -1.7749 -0.0701
 8782TIP3   OH247836   3.490   4.330   9.962 -0.2656  0.2440  0.4972
 8782TIP3    H147837   3.449   4.363  10.042  2.3965 -1.2518  2.6395
 8782TIP3    H247838   3.533   4.407   9.924 -2.8677  1.3208 -0.5262
 8783TIP3   OH247839   4.361   4.209  10.706 -0.3907  0.6220 -0.5889
 8783TIP3    H147840   4.274   4.169  10.710 -0.1903  0.2931  0.5486
 8783TIP3    H247841   4.345   4.296  10.670 -0.9514 -0.0723 -2.1348
 8784TIP3   OH247842   4.047   1.006  25.604 -0.4003  0.4200  0.1062
 8784TIP3    H147843   3.998   1.037  25.528  0.2991 -0.4073 -0.6999
 8784TIP3    H247844   3.998   1.038  25.679 -0.8587  1.6400 -0.6927
 8785TIP3   OH247845   3.337   1.732   5.449  0.2274  0.4255  0.0217
 8785TIP3    H147846   3.297   1.704   5.531 -0.4788  0.7269 -0.2084
 8785TIP3    H247847   3.295   1.816   5.429 -1.7340 -0.8977 -2.0490
 8786TIP3   OH247848   0.688   2.315   4.719 -0.3979  0.1254 -0.0951
 8786TIP3    H147849   0.765   2.300   4.774  0.9768 -0.3746 -2.0459
 8786TIP3    H247850   0.650   2.396   4.753  0.9464  0.3492  0.9683
 8787TIP3   OH247851   0.774   2.476  33.605  0.1905 -0.2601  0.7470
 8787TIP3    H147852   0.780   2.410  33.674 -0.6823  1.4862  2.5965
 8787TIP3    H247853   0.862   2.514  33.600  0.3389 -0.6111  0.6827
 8788TIP3   OH247854   0.735   1.007  30.087 -0.0165 -0.1091  0.2199
 8788TIP3    H147855   0.684   1.088  30.098 -0.2042 -0.3511  1.2023
 8788TIP3    H247856   0.817   1.036  30.046 -0.7365  0.3500 -0.9420
 8789TIP3   OH247857   3.673   0.370   1.037  0.0430 -1.2483  0.3747
 8789TIP3    H147858   3.748   0.385   0.980 -0.9501 -0.8677 -0.8894
 8789TIP3    H247859   3.711   0.357   1.124  1.5109 -0.0023 -0.0283
 8790TIP3   OH247860   1.570   3.312   9.456  0.4656  0.1453  0.0191
 8790TIP3    H147861   1.555   3.309   9.550 -1.1350  2.4782 -0.0830
 8790TIP3    H247862   1.654   3.356   9.446 -0.1985  1.5654  0.3876
 8791TIP3   OH247863   2.067   3.178  37.274  0.8610 -0.0987  0.3594
 8791TIP3    H147864   2.151   3.222  37.285  1.5132 -1.2455  0.1760
 8791TIP3    H247865   2.008   3.223  37.334  1.3194  1.4185 -0.2762
 8792TIP3   OH247866   1.255   3.708   7.790 -0.2647 -0.6633  0.1106
 8792TIP3    H147867   1.305   3.700   7.871 -0.1319  0.2188  0.1312
 8792TIP3    H247868   1.204   3.789   7.801 -0.7054 -0.8547 -0.4373
 8793TIP3   OH247869   0.674   4.195  11.559  0.7241  0.6430  0.2011
 8793TIP3    H147870   0.648   4.142  11.634  0.4422 -0.5823 -0.7216
 8793TIP3    H247871   0.602   4.258  11.548 -0.8627 -1.2233 -0.9236
 8794TIP3   OH247872   3.672   2.797  28.088 -0.3646 -0.9417  0.6854
 8794TIP3    H147873   3.693   2.705  28.103 -1.7390 -1.5524 -0.8315
 8794TIP3    H247874   3.604   2.817  28.153 -0.5842 -1.2137  0.5397
 8795TIP3   OH247875   3.546   0.069  29.926 -0.1386 -0.1832  0.1699
 8795TIP3    H147876   3.498   0.133  29.979  1.6518  0.9090  0.5796
 8795TIP3    H247877   3.502  -0.014  29.942 -1.2494  0.5867  1.2964
 8796TIP3   OH247878   2.395   0.165  37.203 -0.6503  0.1224  0.1443
 8796TIP3    H147879   2.410   0.244  37.254  0.2267  0.7995 -1.1228
 8796TIP3    H247880   2.374   0.098  37.268 -0.9932  1.2850  1.2654
 8797TIP3   OH247881   3.196   2.729  40.898  0.3503  0.2244 -0.2260
 8797TIP3    H147882   3.141   2.807  40.905 -0.4142 -0.3135 -0.1870
 8797TIP3    H247883   3.138   2.657  40.920  1.3797 -0.2452  1.0737
 8798TIP3   OH247884   4.136   1.618  28.504  0.0689  0.5904  0.0215
 8798TIP3    H147885   4.058   1.563  28.499  2.8043 -3.8271  0.4984
 8798TIP3    H247886   4.126   1.666  28.586 -1.1835 -1.6585  1.2900
 8799TIP3   OH247887   2.121   1.899  35.689  0.2418 -0.5866 -0.8368
 8799TIP3    H147888   2.052   1.958  35.719  0.2208 -0.5647 -0.9288
 8799TIP3    H247889   2.160   1.943  35.614  1.5665  0.2445  0.3024
 8800TIP3   OH247890   3.311   2.895  32.325 -0.4136 -0.1449  0.3058
 8800TIP3    H147891   3.269   2.970  32.283 -1.7715 -1.2253 -0.3510
 8800TIP3    H247892   3.397   2.928  32.352 -0.4679  1.2722 -1.0967
 8801TIP3   OH247893   3.055   2.262  12.761 -0.4271  0.5280  0.0149
 8801TIP3    H147894   3.087   2.333  12.817 -0.5561  0.2369  0.4617
 8801TIP3    H247895   3.115   2.262  12.686  0.6159  0.0112  0.8298
 8802TIP3   OH247896   3.891   2.922  12.206 -0.3616  0.3248  0.1514
 8802TIP3    H147897   3.915   3.000  12.156 -0.3416  1.1480  1.3976
 8802TIP3    H247898   3.797   2.911  12.191 -0.6953  1.5391  1.2102
 8803TIP3   OH247899   3.285   3.141   7.684 -0.0496  0.1519  0.3109
 8803TIP3    H147900   3.348   3.188   7.630  0.0391  0.3153  0.5612
 8803TIP3    H247901   3.204   3.143   7.632  0.6039 -1.6553 -0.8697
 8804TIP3   OH247902   1.059   1.319  31.509  0.3130  0.6545  0.2740
 8804TIP3    H147903   1.043   1.306  31.416  0.2057  1.6506  0.1425
 8804TIP3    H247904   0.984   1.279  31.553  0.3556  0.2029 -0.0632
 8805TIP3   OH247905   0.480   0.058  33.068 -0.1391  0.3311 -0.3442
 8805TIP3    H147906   0.528  -0.018  33.035  0.3921  0.4753  0.0647
 8805TIP3    H247907   0.391   0.027  33.080  0.1139 -0.2894  0.0075
 8806TIP3   OH247908   4.394   1.864  24.766  0.5730 -0.2625  0.0441
 8806TIP3    H147909   4.348   1.939  24.729 -1.2622 -0.3858  1.8919
 8806TIP3    H247910   4.484   1.874  24.738  0.2155  2.2390 -0.3668
 8807TIP3   OH247911   1.341   1.964  28.228 -0.2631 -0.4070 -0.0146
 8807TIP3    H147912   1.282   2.026  28.271  1.8258  0.5011  1.7040
 8807TIP3    H247913   1.349   1.997  28.139 -1.1179  0.3390  0.1701
 8808TIP3   OH247914   4.329   3.873  22.818  0.4882  0.0232 -0.0403
 8808TIP3    H147915   4.293   3.875  22.729 -0.5799  1.0498  0.3814
 8808TIP3    H247916   4.295   3.953  22.859  0.4861 -0.7305  1.4754
 8809TIP3   OH247917   0.186   4.164  31.473 -0.2643 -0.0756  0.4103
 8809TIP3    H147918   0.239   4.241  31.489  0.3858  0.4554 -3.3278
 8809TIP3    H247919   0.227   4.121  31.397 -2.9559 -1.7741 -0.2453
 8810TIP3   OH247920   2.605   2.256   1.462  0.5531  0.2302  0.0195
 8810TIP3    H147921   2.612   2.161   1.455 -0.4666  0.2197 -1.3915
 8810TIP3    H247922   2.694   2.288   1.450  1.0943 -0.5769  1.6476
 8811TIP3   OH247923   3.389   3.168  39.880 -0.3474 -0.2143 -0.4952
 8811TIP3    H147924   3.475   3.206  39.867 -1.1706  1.5381 -1.1600
 8811TIP3    H247925   3.349   3.222  39.948 -1.4781  0.0593 -1.3305
 8812TIP3   OH247926   4.001   2.476  29.553  0.3838  0.1293  0.2352
 8812TIP3    H147927   3.995   2.569  29.529 -0.4835  0.4353  1.5424
 8812TIP3    H247928   3.993   2.475  29.648 -0.4408 -1.3637  0.1768
 8813TIP3   OH247929   1.540   1.754  39.491  0.4380 -0.1358 -0.5281
 8813TIP3    H147930   1.633   1.774  39.481  1.1089 -2.0711  1.0608
 8813TIP3    H247931   1.512   1.809  39.564  0.4221  0.2307 -0.8117
 8814TIP3   OH247932   1.452   1.214  12.296  0.1691 -0.0423 -0.2463
 8814TIP3    H147933   1.432   1.298  12.254 -2.8864  0.6021  2.1229
 8814TIP3    H247934   1.380   1.157  12.271  0.8060 -1.1191  0.3090
 8815TIP3   OH247935   1.408   4.136  37.225  0.3032 -0.4227 -0.1655
 8815TIP3    H147936   1.385   4.045  37.241 -0.0222 -0.6041 -1.4821
 8815TIP3    H247937   1.421   4.140  37.130  2.1476  0.4860  0.0814
 8816TIP3   OH247938   2.056   4.009   4.645 -0.2887  0.3071 -0.1036
 8816TIP3    H147939   2.100   4.063   4.711 -0.2811  1.2345 -0.8487
 8816TIP3    H247940   2.011   4.072   4.589 -0.7746 -0.5058 -0.6444
 8817TIP3   OH247941   2.858   0.781   7.894 -0.0035 -0.6706  0.0828
 8817TIP3    H147942   2.910   0.704   7.919  1.6421  0.7119  1.1102
 8817TIP3    H247943   2.892   0.806   7.808  0.7173 -0.0446  0.5452
 8818TIP3   OH247944   2.388   4.393   7.062  0.2971  0.2458 -0.1144
 8818TIP3    H147945   2.309   4.442   7.040 -0.0828 -0.1696  0.3051
 8818TIP3    H247946   2.371   4.358   7.149  0.6432 -0.4531 -0.3164
 8819TIP3   OH247947   3.665   1.663   2.217 -0.6488  0.1548  0.3606
 8819TIP3    H147948   3.749   1.693   2.252  0.0966  0.3281 -1.4511
 8819TIP3    H247949   3.606   1.665   2.292  0.7189  0.9581  1.4780
 8820TIP3   OH247950   1.188   3.189  32.134 -0.3216  0.0001  0.1273
 8820TIP3    H147951   1.198   3.284  32.137  0.6481 -0.0890  0.0736
 8820TIP3    H247952   1.109   3.172  32.185 -2.7119  1.1148 -2.8648
 8821TIP3   OH247953   3.916   2.285   3.333  0.1292 -0.2264 -0.4044
 8821TIP3    H147954   3.905   2.210   3.274  2.1209 -0.3155 -0.7486
 8821TIP3    H247955   3.955   2.247   3.412  0.4831  0.3491 -0.2999
 8822TIP3   OH247956   1.954   2.890  39.331  0.2768 -0.2079  0.0907
 8822TIP3    H147957   2.001   2.939  39.398  1.5227 -0.2253 -0.7412
 8822TIP3    H247958   1.861   2.904  39.352  0.6298  0.6734  1.1611
 8823TIP3   OH247959   1.813   1.386  32.592  0.0538  0.2992 -0.5063
 8823TIP3    H147960   1.724   1.350  32.589 -0.2889  1.0801 -0.0880
 8823TIP3    H247961   1.845   1.364  32.679  0.6366 -0.8065 -0.9894
 8824TIP3   OH247962   2.912   0.984   2.990  0.1673 -0.1163 -0.5806
 8824TIP3    H147963   2.818   0.987   3.007  0.0743  0.2096 -1.1175
 8824TIP3    H247964   2.950   1.045   3.052 -0.1384  0.8787 -1.3335
 8825TIP3   OH247965   1.280   4.406  34.367  0.1965 -0.2558  0.3665
 8825TIP3    H147966   1.212   4.381  34.430 -0.4389 -2.2443 -0.9928
 8825TIP3    H247967   1.258   4.496  34.343 -2.0778 -0.8810 -0.1165
 8826TIP3   OH247968   2.202   3.854   3.983 -0.5074 -0.6885  0.6383
 8826TIP3    H147969   2.190   3.944   3.950  3.2574 -0.5332 -0.7949
 8826TIP3    H247970   2.283   3.858   4.033  0.8141 -3.5804 -1.0414
 8827TIP3   OH247971   0.585   2.744   2.161  0.1449  0.0119  0.3848
 8827TIP3    H147972   0.612   2.700   2.080  0.6479 -1.1541  1.1508
 8827TIP3    H247973   0.668   2.769   2.203 -0.0468 -0.5784  1.1503
 8828TIP3   OH247974   1.065   2.230  32.270  0.0235 -0.5968  0.3758
 8828TIP3    H147975   1.000   2.207  32.204 -0.8793 -1.1102  1.3948
 8828TIP3    H247976   1.054   2.324  32.283 -0.1253 -0.5814  0.1325
 8829TIP3   OH247977   0.508   1.701   5.713 -0.8183 -0.0822 -0.5915
 8829TIP3    H147978   0.541   1.619   5.676  0.2174 -0.2415  0.6294
 8829TIP3    H247979   0.451   1.673   5.785 -0.1229  0.2588  0.1056
 8830TIP3   OH247980   3.772   1.895  12.615 -0.1180  0.3112 -0.4372
 8830TIP3    H147981   3.743   1.907  12.525 -0.0340  0.0056 -0.5074
 8830TIP3    H247982   3.865   1.917  12.614 -0.0782  0.1484 -0.4628
 8831TIP3   OH247983   0.645   2.023  38.856  0.4896 -0.2601  0.1024
 8831TIP3    H147984   0.613   2.049  38.770 -2.4758 -0.1639  1.1381
 8831TIP3    H247985   0.604   1.938  38.873  1.6913 -0.6816  1.1210
 8832TIP3   OH247986   4.392   1.350  30.690  0.6989 -0.2992  0.6277
 8832TIP3    H147987   4.418   1.412  30.758  0.7636  0.1692  0.1811
 8832TIP3    H247988   4.377   1.268  30.737 -1.3889  0.5409  1.5348
 8833TIP3   OH247989   2.706   2.954  36.215  0.4259  0.2328 -0.1303
 8833TIP3    H147990   2.800   2.945  36.227  0.6491  0.4917 -1.4584
 8833TIP3    H247991   2.667   2.911  36.291  1.5465 -3.3028 -1.3549
 8834TIP3   OH247992   1.475   2.586  33.648 -0.0277 -0.5017 -0.4457
 8834TIP3    H147993   1.465   2.672  33.689  0.0131 -0.4573 -0.5273
 8834TIP3    H247994   1.565   2.559  33.668  0.0003 -0.4692 -0.5261
 8835TIP3   OH247995   2.642   2.881  31.023 -0.2577 -0.8572 -0.0400
 8835TIP3    H147996   2.693   2.808  31.058  1.0502 -0.3890 -0.9102
 8835TIP3    H247997   2.689   2.907  30.944 -2.1417 -0.7455 -1.1841
 8836TIP3   OH247998   2.770   0.336   1.011  0.7865  0.5726 -0.7935
 8836TIP3    H147999   2.716   0.259   0.993 -0.6411  1.4855 -0.5733
 8836TIP3    H248000   2.860   0.304   1.003  0.2402 -1.1292 -0.6415
 8837TIP3   OH248001   0.900   1.179  40.831 -0.5717 -0.5295  0.0513
 8837TIP3    H148002   0.834   1.131  40.781  1.1923 -1.6918 -1.2674
 8837TIP3    H248003   0.966   1.113  40.853  1.0350  0.9122 -0.2402
 8838TIP3   OH248004   0.486   4.342  14.090  0.3159 -0.6476  0.0836
 8838TIP3    H148005   0.559   4.383  14.137  1.5958 -2.0584 -0.5935
 8838TIP3    H248006   0.411   4.396  14.112  1.8349  1.8516 -0.4816
 8839TIP3   OH248007   2.487   2.388  12.103 -0.5814  0.2502 -0.6107
 8839TIP3    H148008   2.490   2.471  12.056  0.0055  0.4638 -0.2108
 8839TIP3    H248009   2.420   2.337  12.058 -0.1736  0.5282 -1.5401
 8840TIP3   OH248010   0.766   2.960  38.515  0.1203  0.0713  0.0785
 8840TIP3    H148011   0.690   2.973  38.572 -0.2478  2.4248 -0.8177
 8840TIP3    H248012   0.828   3.028  38.542  0.9619 -0.3475 -0.7267
 8841TIP3   OH248013   0.990   3.200  11.356 -0.0441  0.6355 -0.1930
 8841TIP3    H148014   1.052   3.130  11.334 -1.2320 -0.9761  1.2834
 8841TIP3    H248015   0.998   3.262  11.284  1.8919 -0.4420 -1.0013
 8842TIP3   OH248016   1.832   2.746  30.191  0.7918  0.3015  0.3617
 8842TIP3    H148017   1.815   2.659  30.153  0.2663  1.2069 -1.6203
 8842TIP3    H248018   1.804   2.738  30.282  1.1860 -1.7341  0.3593
 8843TIP3   OH248019   1.755   2.805  30.489  0.5855  0.0630 -0.2984
 8843TIP3    H148020   1.783   2.868  30.555  0.4430  1.7060 -1.7220
 8843TIP3    H248021   1.730   2.727  30.539 -1.9166  2.0479  1.8155
 8844TIP3   OH248022   0.238   2.117  10.006  0.1030  0.1352 -0.3524
 8844TIP3    H148023   0.167   2.055   9.988  0.2921 -0.2390  0.1616
 8844TIP3    H248024   0.258   2.104  10.098  1.4239 -0.3926 -0.6864
 8845TIP3   OH248025   2.673   3.833  33.162 -0.2670  0.8152 -0.1382
 8845TIP3    H148026   2.614   3.863  33.231  1.7827  0.8564  1.6894
 8845TIP3    H248027   2.652   3.740  33.152  0.0803  0.5726  1.2628
 8846TIP3   OH248028   2.366   3.482  13.813  0.4712  0.0981  0.3128
 8846TIP3    H148029   2.375   3.496  13.719  0.8636 -0.6985  0.2281
 8846TIP3    H248030   2.437   3.533  13.852 -0.2886  1.2224  0.2490
 8847TIP3   OH248031   2.954   0.632  35.413 -0.2328 -0.1707 -0.3634
 8847TIP3    H148032   2.985   0.552  35.370 -2.2698  0.3918 -3.0728
 8847TIP3    H248033   2.941   0.695  35.343  0.4112  2.3198  1.5990
 8848TIP3   OH248034   2.564   2.466  27.621 -0.0496  0.2334 -0.1984
 8848TIP3    H148035   2.527   2.496  27.704 -1.6107 -3.0731  0.4873
 8848TIP3    H248036   2.628   2.399  27.647  1.2719  0.8735 -1.6450
 8849TIP3   OH248037   1.408   0.954  34.078 -0.2782  0.3238 -0.0999
 8849TIP3    H148038   1.379   1.007  34.152 -0.7541  0.0172 -0.0677
 8849TIP3    H248039   1.336   0.894  34.061  0.3635 -0.4867  0.0255
 8850TIP3   OH248040   2.214   2.801  37.112  0.0813  0.0504  0.0482
 8850TIP3    H148041   2.218   2.737  37.041 -0.7036  1.4132 -1.2899
 8850TIP3    H248042   2.216   2.886  37.067 -2.0355  0.9651  1.5390
 8851TIP3   OH248043   3.819   1.523  11.243  0.2153  0.0132  0.5133
 8851TIP3    H148044   3.875   1.455  11.205 -0.6133 -1.5579  1.9721
 8851TIP3    H248045   3.734   1.510  11.201  0.5687  1.5648 -0.7581
 8852TIP3   OH248046   4.260   4.103   0.090 -0.1655 -0.0748  0.5369
 8852TIP3    H148047   4.231   4.079   0.002  1.0569 -2.4319  0.6852
 8852TIP3    H248048   4.185   4.081   0.146  0.0087 -1.2401  0.3495
 8853TIP3   OH248049   3.614   4.050  41.298 -0.3570 -0.0139  0.2053
 8853TIP3    H148050   3.633   4.143  41.288  0.2897 -0.0053  1.3926
 8853TIP3    H248051   3.698   4.007  41.286 -0.6377 -0.4488 -0.2474
 8854TIP3   OH248052   1.652   0.988  32.810 -0.1471  0.2965 -0.1351
 8854TIP3    H148053   1.690   0.998  32.723  0.0073 -0.9453 -0.2297
 8854TIP3    H248054   1.721   0.946  32.861  0.1702  2.0020  0.9147
 8855TIP3   OH248055   0.419   3.272   0.526  0.6599  0.0324 -0.1181
 8855TIP3    H148056   0.362   3.343   0.497 -1.8446 -1.9193 -0.3141
 8855TIP3    H248057   0.411   3.204   0.459  1.2882 -1.2856  1.0734
 8856TIP3   OH248058   0.234   0.906  39.340  0.3356  0.2936  0.4244
 8856TIP3    H148059   0.233   0.810  39.337  0.3436  0.3079 -0.0655
 8856TIP3    H248060   0.322   0.930  39.314  1.0645  0.3788  2.7300
 8857TIP3   OH248061   1.116   3.951  29.853  0.0374 -0.0712 -0.0419
 8857TIP3    H148062   1.041   3.899  29.823 -0.3285  0.5239 -0.1723
 8857TIP3    H248063   1.094   3.975  29.943 -0.9438  1.8995 -0.7511
 8858TIP3   OH248064   0.967   3.320  28.764 -0.2731 -0.0533 -0.2012
 8858TIP3    H148065   1.053   3.341  28.799  0.6767 -0.0555 -2.3607
 8858TIP3    H248066   0.941   3.240  28.808  1.4747 -0.8164 -0.5030
 8859TIP3   OH248067   0.687   3.774  38.889  0.4148 -0.3495  0.5822
 8859TIP3    H148068   0.701   3.799  38.980 -1.0251  2.0435  0.2286
 8859TIP3    H248069   0.734   3.840  38.838 -2.3715  1.0650 -0.3848
 8860TIP3   OH248070   2.974   1.368  33.643 -0.1552  0.7646  0.1706
 8860TIP3    H148071   3.030   1.386  33.568 -0.9187 -0.7693 -0.8283
 8860TIP3    H248072   3.005   1.426  33.712  3.3983 -0.7257  0.0211
 8861TIP3   OH248073   0.558   1.966   5.714  0.4136  0.4594 -0.1448
 8861TIP3    H148074   0.548   1.872   5.699  0.2711  0.4549 -0.0180
 8861TIP3    H248075   0.484   1.990   5.769  0.1563  0.7494 -0.6080
 8862TIP3   OH248076   2.194   0.254  40.540 -0.5529 -0.3319 -0.4710
 8862TIP3    H148077   2.284   0.240  40.508 -0.0478  1.2511  0.1767
 8862TIP3    H248078   2.205   0.296  40.625 -1.9206 -0.2029 -0.3410
 8863TIP3   OH248079   2.552   2.039  31.516 -0.1821 -0.1244 -0.4072
 8863TIP3    H148080   2.559   2.024  31.610  0.2706 -0.7171 -0.5263
 8863TIP3    H248081   2.573   2.132  31.505  1.4600 -0.4238 -0.0837
 8864TIP3   OH248082   1.368   1.061  17.984  0.0408  0.2725  0.1704
 8864TIP3    H148083   1.452   1.096  18.013  0.7860 -2.0441  1.0644
 8864TIP3    H248084   1.359   1.092  17.894  2.4667 -0.3330 -0.3668
 8865TIP3   OH248085   4.141   4.301  30.341 -0.0971 -0.5253 -0.8768
 8865TIP3    H148086   4.089   4.221  30.336 -0.8127 -0.0661 -0.9368
 8865TIP3    H248087   4.211   4.281  30.402  0.3054 -1.5206 -1.6400
 8866TIP3   OH248088   3.898   4.237  13.484 -0.7418 -0.9705 -0.2517
 8866TIP3    H148089   3.825   4.183  13.454 -0.5582 -1.5656  0.3568
 8866TIP3    H248090   3.892   4.235  13.580 -0.0672 -0.8376 -0.1999
 8867TIP3   OH248091   2.363   1.941  11.169 -0.3010 -0.0038  0.2752
 8867TIP3    H148092   2.356   1.949  11.074 -1.8277 -0.9043  0.2726
 8867TIP3    H248093   2.421   1.866  11.183 -1.3309 -0.8807 -0.0006
 8868TIP3   OH248094   1.856   1.402  34.115 -0.0641 -0.2380  0.3253
 8868TIP3    H148095   1.827   1.463  34.047 -0.1281  0.7954  1.2558
 8868TIP3    H248096   1.872   1.457  34.192  1.1267 -1.2288  0.8184
 8869TIP3   OH248097   0.511   0.801  28.616  0.0314 -0.2661  0.8178
 8869TIP3    H148098   0.594   0.772  28.653 -0.2341 -2.4691 -0.1686
 8869TIP3    H248099   0.524   0.796  28.521 -0.5868  1.4087  0.6080
 8870TIP3   OH248100   2.593   4.061   6.806  0.0402  0.2975 -0.0434
 8870TIP3    H148101   2.576   4.058   6.900  0.6746 -1.8481  0.0475
 8870TIP3    H248102   2.530   4.124   6.772 -1.2091 -0.0118  1.6075
 8871TIP3   OH248103   1.620   2.963  12.885  0.4254  0.0221  0.0252
 8871TIP3    H148104   1.709   2.930  12.870  1.1793  1.5517  0.8808
 8871TIP3    H248105   1.596   2.929  12.972 -0.1696 -1.0379 -0.5318
 8872TIP3   OH248106   3.018   4.106  37.810 -0.2386  0.6238  0.0503
 8872TIP3    H148107   3.054   4.136  37.893  0.4993  0.2373 -0.1251
 8872TIP3    H248108   2.996   4.014  37.825 -0.2328  0.5914 -0.1381
 8873TIP3   OH248109   0.776   1.789  13.160  0.3807  0.8152 -0.3128
 8873TIP3    H148110   0.750   1.701  13.188  1.8333 -0.1197 -1.7578
 8873TIP3    H248111   0.718   1.847  13.209 -1.1454 -0.9618  0.1128
 8874TIP3   OH248112   0.106   1.781  27.237 -0.7987 -0.0694  0.1432
 8874TIP3    H148113   0.058   1.700  27.219  0.0280 -0.5169 -0.1226
 8874TIP3    H248114   0.057   1.848  27.189 -0.6921 -0.6535 -0.8291
 8875TIP3   OH248115   3.878   1.874  11.402 -0.4044  0.6785 -0.4031
 8875TIP3    H148116   3.971   1.851  11.401 -1.0058 -2.0576 -0.5089
 8875TIP3    H248117   3.863   1.917  11.318  0.6310  0.5802 -0.6552
 8876TIP3   OH248118   2.603   3.407  41.093 -0.2621  0.0294 -0.2142
 8876TIP3    H148119   2.627   3.419  41.185  1.6656  1.7942 -0.8688
 8876TIP3    H248120   2.527   3.463  41.079  0.0109  0.4780  0.0917
 8877TIP3   OH248121   1.485   3.535   4.280 -0.2734 -0.3114 -0.2236
 8877TIP3    H148122   1.574   3.510   4.306 -0.4041  0.5535  1.1352
 8877TIP3    H248123   1.493   3.625   4.249 -0.5699 -0.4729 -0.7914
 8878TIP3   OH248124   2.802   0.828  40.370  0.8135 -0.2077  0.0429
 8878TIP3    H148125   2.878   0.797  40.320  0.0890 -0.5573 -0.8605
 8878TIP3    H248126   2.823   0.920  40.389  1.0764 -0.0446 -0.9723
 8879TIP3   OH248127   1.343   0.480  14.721  0.2058  0.6124  0.2026
 8879TIP3    H148128   1.296   0.502  14.802 -1.2490 -1.3463 -0.0239
 8879TIP3    H248129   1.434   0.467  14.749 -0.5557 -1.6941  1.9225
 8880TIP3   OH248130   1.958   4.303   6.341 -0.1682 -0.5109  0.2252
 8880TIP3    H148131   1.872   4.264   6.360  0.0998 -0.6983  1.0574
 8880TIP3    H248132   1.959   4.309   6.245 -1.2029 -0.2917  0.2110
 8881TIP3   OH248133   2.981   3.618  38.583  0.7719 -0.5990 -0.0646
 8881TIP3    H148134   2.917   3.683  38.613 -0.4413 -2.4160  1.4539
 8881TIP3    H248135   2.937   3.572  38.512  2.1170  0.9577 -2.0607
 8882TIP3   OH248136   1.169   0.791  38.287  0.0914 -0.2070 -0.4453
 8882TIP3    H148137   1.206   0.797  38.199  1.1787  0.5263  0.0489
 8882TIP3    H248138   1.202   0.868  38.333  2.0000 -2.0542  1.5299
 8883TIP3   OH248139   1.732   4.135   6.340  0.4511 -0.4909 -0.0739
 8883TIP3    H148140   1.789   4.074   6.294 -0.0790 -1.6736  0.7758
 8883TIP3    H248141   1.711   4.091   6.422 -0.4402  0.5818  0.3018
 8884TIP3   OH248142   4.126   0.171   5.401 -0.2895  0.1496  0.0972
 8884TIP3    H148143   4.104   0.246   5.347  0.5175 -1.0609 -2.0211
 8884TIP3    H248144   4.044   0.149   5.446 -0.9356  1.3265 -0.4628
 8885TIP3   OH248145   3.322   1.025  39.536 -0.6437  0.6058 -0.3064
 8885TIP3    H148146   3.405   1.069  39.557  0.0542 -0.0391 -1.5659
 8885TIP3    H248147   3.342   0.975  39.456 -2.1678  0.1865 -0.4413
 8886TIP3   OH248148   2.508   1.789  39.296  0.7105  0.0361  0.3808
 8886TIP3    H148149   2.511   1.878  39.262 -0.7183  0.0705  0.2710
 8886TIP3    H248150   2.577   1.743  39.248 -0.2955  0.4408 -1.5805
 8887TIP3   OH248151   0.921   0.641  40.393  0.0111 -0.5467 -0.2441
 8887TIP3    H148152   0.896   0.567  40.448  0.2934  0.0970  0.7791
 8887TIP3    H248153   0.975   0.696  40.449 -1.9455  1.5434 -0.2710
 8888TIP3   OH248154   2.692   4.386  13.665 -0.2113  0.4092  0.1263
 8888TIP3    H148155   2.680   4.314  13.727 -1.1311  0.7150  0.3200
 8888TIP3    H248156   2.744   4.451  13.713 -1.3670  0.8725  0.7737
 8889TIP3   OH248157   0.486   0.655  33.619 -0.2939 -0.1517 -0.1290
 8889TIP3    H148158   0.392   0.641  33.616 -0.4270  0.6279 -3.4004
 8889TIP3    H248159   0.498   0.746  33.592  1.3842 -0.4190 -0.4346
 8890TIP3   OH248160   0.578   0.799  11.535 -0.0284 -0.5045  0.1719
 8890TIP3    H148161   0.529   0.853  11.473 -0.6524  0.3104  1.3453
 8890TIP3    H248162   0.660   0.846  11.548 -0.2113 -0.2775  0.5276
 8891TIP3   OH248163   3.274   1.606   8.757  0.1789  0.2623  0.1582
 8891TIP3    H148164   3.258   1.512   8.765 -0.7510  0.2688 -1.2474
 8891TIP3    H248165   3.365   1.612   8.727 -0.1633 -0.2739 -1.0418
 8892TIP3   OH248166   0.585   2.123  34.889 -0.0683 -0.3876 -0.2538
 8892TIP3    H148167   0.663   2.102  34.940  0.3114 -0.1346 -0.7166
 8892TIP3    H248168   0.563   2.041  34.845  0.5564 -0.2044 -0.9295
 8893TIP3   OH248169   1.278   0.015  10.961  0.5869  0.4235 -0.5726
 8893TIP3    H148170   1.371   0.028  10.977  0.7558 -0.7116 -0.5609
 8893TIP3    H248171   1.254  -0.058  11.017 -0.5784  1.4118  0.2653
 8894TIP3   OH248172   1.229   3.899  32.735 -0.5331 -0.2061  0.2532
 8894TIP3    H148173   1.175   3.858  32.803 -1.7259  0.4624 -0.2640
 8894TIP3    H248174   1.316   3.862  32.748 -1.0556 -1.1274  1.2742
 8895TIP3   OH248175   1.378   2.690  10.622  0.2205 -0.2227 -0.4454
 8895TIP3    H148176   1.296   2.644  10.607  0.2213 -0.6431  0.7247
 8895TIP3    H248177   1.446   2.623  10.614  0.4189  0.0246 -0.9109
 8896TIP3   OH248178   4.142   3.333   2.130 -0.2421 -0.4438 -0.5771
 8896TIP3    H148179   4.089   3.401   2.089 -1.6442 -1.4490 -0.4915
 8896TIP3    H248180   4.205   3.308   2.062  0.7964  1.4115 -0.3700
 8897TIP3   OH248181   3.490   2.232  25.128 -0.5220 -0.2463  0.3754
 8897TIP3    H148182   3.509   2.304  25.188 -0.7132  0.1764 -0.0662
 8897TIP3    H248183   3.441   2.272  25.057 -0.1754 -0.7205 -0.1376
 8898TIP3   OH248184   3.249   2.308  32.220  0.3420  0.3195  0.5142
 8898TIP3    H148185   3.173   2.312  32.163 -1.0089 -0.6631  2.1580
 8898TIP3    H248186   3.306   2.242  32.180 -0.4231 -0.1130  0.1244
 8899TIP3   OH248187   2.360   2.313  39.059  0.2758  0.1378 -0.4074
 8899TIP3    H148188   2.294   2.356  39.113 -0.2136 -0.6985 -0.3216
 8899TIP3    H248189   2.378   2.375  38.988  0.3449  0.9069  0.2734
 8900TIP3   OH248190   2.029   3.056  12.630 -0.5015  0.3379 -0.1252
 8900TIP3    H148191   2.057   3.041  12.539 -1.7563 -0.3919 -0.4060
 8900TIP3    H248192   2.089   3.002  12.682  0.7539  1.3826 -0.4291
 8901TIP3   OH248193   2.701   3.384  37.816 -0.0247  0.5646  0.0041
 8901TIP3    H148194   2.694   3.408  37.908 -2.5317  2.7405 -0.6065
 8901TIP3    H248195   2.687   3.467  37.769 -1.8488 -0.9149 -2.3126
 8902TIP3   OH248196   1.053   1.755  10.441  0.3495  0.0842  0.5773
 8902TIP3    H148197   0.962   1.769  10.414  0.9141  0.0932 -1.4758
 8902TIP3    H248198   1.059   1.798  10.526 -2.4433 -2.7897  2.5116
 8903TIP3   OH248199   2.891   2.619   4.034  0.0715  0.1614 -0.0276
 8903TIP3    H148200   2.816   2.571   3.997 -0.5205  1.3603 -0.4168
 8903TIP3    H248201   2.911   2.572   4.115 -0.1150 -1.0887 -0.6762
 8904TIP3   OH248202   2.441   0.103  36.298 -0.2756  0.4746 -0.1405
 8904TIP3    H148203   2.531   0.087  36.270 -0.8959 -0.8929 -1.4714
 8904TIP3    H248204   2.399   0.147  36.224 -1.3430 -1.1693 -0.5633
 8905TIP3   OH248205   2.203   3.634  27.049  0.4516 -0.1209  0.3184
 8905TIP3    H148206   2.127   3.612  27.103  0.1987  0.1918  0.0945
 8905TIP3    H248207   2.247   3.704  27.098  0.4620 -0.1406  0.3364
 8906TIP3   OH248208   0.175   1.208  36.161  0.1346  0.6176 -0.0333
 8906TIP3    H148209   0.140   1.249  36.083  0.6396  0.4597 -0.3486
 8906TIP3    H248210   0.193   1.117  36.135  0.5480  0.6324  0.1820
 8907TIP3   OH248211   2.767   3.249  12.879 -0.2138  0.3604 -0.1805
 8907TIP3    H148212   2.731   3.160  12.881  1.9096 -0.5351  1.1868
 8907TIP3    H248213   2.707   3.301  12.932 -1.8738 -0.0559 -1.5827
 8908TIP3   OH248214   1.257   2.176  41.474  0.1939 -0.2898  0.1763
 8908TIP3    H148215   1.161   2.170  41.473  0.0900  0.7881  1.1864
 8908TIP3    H248216   1.275   2.270  41.482  1.3895 -0.2030 -2.4841
 8909TIP3   OH248217   4.137   0.735  36.263 -0.3868  0.5353  0.2226
 8909TIP3    H148218   4.121   0.748  36.357 -1.0937  0.2932  0.1441
 8909TIP3    H248219   4.095   0.652  36.243 -0.8366  0.9168 -0.4554
 8910TIP3   OH248220   0.146   1.542  11.712 -0.3417 -0.3202 -0.0698
 8910TIP3    H148221   0.228   1.533  11.664 -0.1778  0.8806 -0.0297
 8910TIP3    H248222   0.167   1.596  11.788 -1.4164  1.1791 -0.7754
 8911TIP3   OH248223   0.305   2.744  28.694 -0.5016 -0.3258 -0.1967
 8911TIP3    H148224   0.368   2.698  28.639 -0.0591 -0.1127  0.1228
 8911TIP3    H248225   0.309   2.698  28.778  0.6815  0.8887  0.4425
 8912TIP3   OH248226   1.334   3.002  18.089 -0.1568  0.0157  0.2037
 8912TIP3    H148227   1.362   2.959  18.008 -1.0950  0.1767 -0.2095
 8912TIP3    H248228   1.265   3.062  18.062 -1.0269 -0.4886  1.2153
 8913TIP3   OH248229   3.954   1.754  30.040  0.7076  0.4022  0.2699
 8913TIP3    H148230   3.895   1.696  29.993 -0.2604  1.7414 -0.2108
 8913TIP3    H248231   3.985   1.701  30.114  0.2623 -0.8834 -0.4333
 8914TIP3   OH248232   3.584   2.001  10.910 -0.5745  0.2025 -0.2033
 8914TIP3    H148233   3.676   2.029  10.905 -0.2611 -0.7503 -0.1509
 8914TIP3    H248234   3.590   1.907  10.928 -1.4860 -0.6233 -3.4809
 8915TIP3   OH248235   0.435   1.272  13.012  0.1228 -0.2773 -0.4825
 8915TIP3    H148236   0.517   1.262  13.059 -0.0341 -1.2408 -0.3938
 8915TIP3    H248237   0.375   1.312  13.076  0.7366  1.2208 -0.8077
 8916TIP3   OH248238   3.623   3.000  39.380 -0.2529 -0.2153 -0.4944
 8916TIP3    H148239   3.584   2.978  39.464 -0.1069 -1.3089 -0.7041
 8916TIP3    H248240   3.554   2.980  39.316 -0.0358 -0.2881 -0.7069
 8917TIP3   OH248241   4.078   2.457  40.340  0.2943 -0.0509 -0.6030
 8917TIP3    H148242   4.170   2.443  40.316  0.7409  0.1280  0.8812
 8917TIP3    H248243   4.033   2.470  40.257  1.8737  1.3551 -1.2865
 8918TIP3   OH248244   3.214   2.316  31.466 -0.5307 -0.0467 -0.1716
 8918TIP3    H148245   3.220   2.288  31.557  1.7424 -0.7904 -0.4953
 8918TIP3    H248246   3.160   2.249  31.424 -0.6935 -0.2817  0.4025
 8919TIP3   OH248247   0.469   3.543   5.401  0.7877  0.2902  0.2340
 8919TIP3    H148248   0.532   3.473   5.389  1.6525  0.8941  1.0805
 8919TIP3    H248249   0.464   3.555   5.496  0.0309  0.8215  0.1423
 8920TIP3   OH248250   2.150   0.040  39.609  0.6664 -0.1914  0.5833
 8920TIP3    H148251   2.100  -0.015  39.670  0.8701 -1.4264 -0.3261
 8920TIP3    H248252   2.111   0.127  39.619 -1.1642 -0.9474  0.4699
 8921TIP3   OH248253   2.073   1.235  11.211 -0.1046 -0.0025  0.1170
 8921TIP3    H148254   2.107   1.222  11.300  0.9362  1.1098 -0.1005
 8921TIP3    H248255   2.057   1.329  11.205 -1.7427 -0.2731 -0.3421
 8922TIP3   OH248256   1.551   0.703   8.394  0.3725 -0.4286  0.0956
 8922TIP3    H148257   1.472   0.653   8.375  0.4892 -0.3821 -0.5330
 8922TIP3    H248258   1.542   0.729   8.486 -1.0380  0.8334 -0.3544
 8923TIP3   OH248259   1.295   0.388   0.768  0.1971 -0.3838 -0.1600
 8923TIP3    H148260   1.257   0.455   0.711 -0.6827 -1.0350 -0.3611
 8923TIP3    H248261   1.377   0.426   0.799  0.7551 -0.0628 -1.9521
 8924TIP3   OH248262   3.796   3.071  29.944  0.5988 -0.4382 -0.2945
 8924TIP3    H148263   3.745   2.999  29.982  1.4147 -0.8745  0.0028
 8924TIP3    H248264   3.885   3.054  29.973  1.0312 -0.0705 -1.3814
 8925TIP3   OH248265   3.725   3.018  31.308 -0.0320  0.3737  0.0362
 8925TIP3    H148266   3.752   3.079  31.240 -0.9635 -0.1018 -0.7876
 8925TIP3    H248267   3.759   2.933  31.280 -1.5772 -0.0800 -0.5877
 8926TIP3   OH248268   4.052   1.410  27.425 -0.1163  0.3270  0.2383
 8926TIP3    H148269   4.121   1.386  27.362 -0.5479 -0.0716 -0.0908
 8926TIP3    H248270   4.082   1.372  27.508 -0.0941 -0.1347  0.0271
 8927TIP3   OH248271   0.366   0.054  34.373 -0.0153  0.8982 -0.2184
 8927TIP3    H148272   0.360  -0.020  34.433 -0.2760  0.7527 -0.4249
 8927TIP3    H248273   0.303   0.118  34.407 -0.3493  0.7106 -0.4892
 8928TIP3   OH248274   1.587   0.226   3.142 -0.9966  0.0582  0.4626
 8928TIP3    H148275   1.510   0.262   3.097 -0.4183  2.5164  1.2656
 8928TIP3    H248276   1.658   0.286   3.118  0.7042 -2.0467 -0.1275
 8929TIP3   OH248277   0.062   3.460  11.196 -0.0534 -0.4048  0.4365
 8929TIP3    H148278   0.003   3.399  11.241 -0.5066  0.5228  1.1305
 8929TIP3    H248279   0.022   3.474  11.110 -0.9660  0.3717  0.9729
 8930TIP3   OH248280   0.145   2.830   8.441  0.0939 -0.3376  0.1889
 8930TIP3    H148281   0.085   2.899   8.470 -0.6657 -0.4239 -1.1501
 8930TIP3    H248282   0.112   2.751   8.483 -0.3088 -0.2663  0.0074
 8931TIP3   OH248283   3.512   3.649  12.013 -0.2654 -0.1106  0.0307
 8931TIP3    H148284   3.517   3.706  12.089 -0.4857  0.8745 -0.6681
 8931TIP3    H248285   3.523   3.561  12.048 -0.4957  0.3108  1.2048
 8932TIP3   OH248286   3.981   4.222  27.895  0.6276  0.2614 -0.2892
 8932TIP3    H148287   4.061   4.201  27.847  1.0015 -2.2327  1.2200
 8932TIP3    H248288   3.998   4.190  27.984 -1.7254  0.4856  0.2996
 8933TIP3   OH248289   3.816   0.933  39.481 -0.8898  0.0534 -0.0584
 8933TIP3    H148290   3.781   0.997  39.419  0.3954  0.9999  0.1640
 8933TIP3    H248291   3.891   0.895  39.436 -0.7463 -0.2112  0.4017
 8934TIP3   OH248292   2.818   3.740   6.462  0.0242  0.4373 -0.1189
 8934TIP3    H148293   2.835   3.801   6.390  1.2534 -1.1451 -1.2330
 8934TIP3    H248294   2.726   3.755   6.485  0.4485  3.1509  0.1379
 8935TIP3   OH248295   0.065   0.610   5.261  0.0701 -0.2961  0.5130
 8935TIP3    H148296   0.025   0.534   5.219  0.1105  1.3031 -2.7085
 8935TIP3    H248297   0.156   0.607   5.232 -0.3302  1.8669 -1.1518
 8936TIP3   OH248298   2.696   1.765  28.103  0.3178 -0.1840  0.7356
 8936TIP3    H148299   2.655   1.700  28.160  0.0795  0.6886  1.5922
 8936TIP3    H248300   2.729   1.832  28.163 -0.0887  0.8447 -0.1669
 8937TIP3   OH248301   4.349   3.819   2.336 -0.8414 -0.4438  0.0552
 8937TIP3    H148302   4.357   3.826   2.240 -0.2542  0.3481  0.1435
 8937TIP3    H248303   4.438   3.801   2.366 -1.0034 -0.5718  0.4614
 8938TIP3   OH248304   2.869   4.366  27.796 -0.7321 -0.1714  0.3343
 8938TIP3    H148305   2.817   4.288  27.777  1.2143 -0.9503 -2.4219
 8938TIP3    H248306   2.942   4.334  27.849  0.4831 -0.4680 -1.4364
 8939TIP3   OH248307   0.774   1.406  14.065 -0.3316  0.0703  0.1912
 8939TIP3    H148308   0.856   1.358  14.051 -0.0030  0.2775  1.3272
 8939TIP3    H248309   0.731   1.359  14.137 -0.4402  0.9332  0.6971
 8940TIP3   OH248310   3.392   1.487  35.040  0.1792 -0.6370 -0.0423
 8940TIP3    H148311   3.422   1.468  35.129 -1.2499 -0.0654  0.5819
 8940TIP3    H248312   3.418   1.577  35.024  2.5254 -1.4138 -1.1391
 8941TIP3   OH248313   3.007   0.988  37.220  0.4064 -0.1588  0.2007
 8941TIP3    H148314   2.970   0.965  37.305 -0.0913 -2.1593 -0.5048
 8941TIP3    H248315   2.995   0.910  37.167  1.2217  0.8531 -1.5541
 8942TIP3   OH248316   4.251   0.327   1.744  0.7395 -0.0146 -0.3146
 8942TIP3    H148317   4.309   0.317   1.669  2.5418 -0.0540  1.0074
 8942TIP3    H248318   4.270   0.414   1.779 -1.9604  1.0872 -1.3476
 8943TIP3   OH248319   3.469   2.117  40.875  0.0402  0.6206 -0.0873
 8943TIP3    H148320   3.539   2.128  40.939 -0.0629 -0.4733  0.2187
 8943TIP3    H248321   3.509   2.144  40.792  0.9968 -0.4723 -0.0036
 8944TIP3   OH248322   0.871   0.404  29.605 -0.2958 -0.7054  0.7106
 8944TIP3    H148323   0.886   0.419  29.512 -0.0892 -0.0460  0.8451
 8944TIP3    H248324   0.944   0.349  29.633  0.8208  0.8310  0.9235
 8945TIP3   OH248325   2.068   4.243   7.306  0.2296 -0.7291 -0.0155
 8945TIP3    H148326   2.007   4.170   7.320 -1.0778 -0.2304 -2.4834
 8945TIP3    H248327   2.045   4.307   7.372  0.0440 -1.7001  0.8994
 8946TIP3   OH248328   0.967   0.361  41.046  0.3137 -0.5042 -0.4296
 8946TIP3    H148329   0.999   0.438  40.999 -0.7770  0.6109  0.5692
 8946TIP3    H248330   0.872   0.363  41.033 -0.0273 -0.1489  1.7798
 8947TIP3   OH248331   4.332   1.048   8.841 -0.2967  0.5032  0.2550
 8947TIP3    H148332   4.255   1.099   8.867 -1.0539 -1.4970  2.2441
 8947TIP3    H248333   4.313   1.019   8.752 -1.3164  0.9678  0.3044
 8948TIP3   OH248334   0.338   2.213  28.374 -0.3421  0.0090 -0.2373
 8948TIP3    H148335   0.263   2.238  28.428  0.9393  1.7692  0.8020
 8948TIP3    H248336   0.398   2.169  28.434  0.3123  0.3648 -0.6221
 8949TIP3   OH248337   2.353   0.492  12.561  0.4081  0.2724 -0.4562
 8949TIP3    H148338   2.355   0.569  12.503 -0.6662  2.0002  1.6724
 8949TIP3    H248339   2.261   0.466  12.563  0.0533  1.4443  1.8605
 8950TIP3   OH248340   1.530   3.944  37.719 -0.0348  0.0548  0.1083
 8950TIP3    H148341   1.555   3.977  37.633  2.5678 -0.2077  0.6804
 8950TIP3    H248342   1.524   3.849  37.706 -0.3081  0.0704  0.1002
 8951TIP3   OH248343   3.789   0.232   3.526 -0.3114 -0.0254 -0.1527
 8951TIP3    H148344   3.878   0.262   3.544 -0.6144  1.9166 -1.5709
 8951TIP3    H248345   3.743   0.310   3.496 -2.1099 -1.3008 -0.9051
 8952TIP3   OH248346   4.002   3.968   7.157 -0.3290  0.0930  0.2960
 8952TIP3    H148347   4.003   4.044   7.215  1.6626 -0.1303  0.6333
 8952TIP3    H248348   4.037   4.001   7.074 -0.0115 -0.3155  0.2638
 8953TIP3   OH248349   1.907   3.714  27.193 -0.1036 -0.6968 -0.0351
 8953TIP3    H148350   1.814   3.737  27.193 -0.3350 -1.3892 -2.5508
 8953TIP3    H248351   1.912   3.634  27.246 -0.7758 -0.1792  0.8364
 8954TIP3   OH248352   0.781   3.910   4.984  0.6056  0.1947 -0.0438
 8954TIP3    H148353   0.692   3.894   5.012 -0.0635  2.5899 -0.5916
 8954TIP3    H248354   0.834   3.848   5.034 -1.1944 -0.2059  1.4593
 8955TIP3   OH248355   3.130   1.267  36.257  0.0503  0.4314 -0.2972
 8955TIP3    H148356   3.039   1.248  36.279 -0.5928  2.7096 -0.7067
 8955TIP3    H248357   3.138   1.243  36.165  0.4483 -1.5210  0.2008
 8956TIP3   OH248358   1.302   0.325  29.067 -0.8705 -0.3052  0.5094
 8956TIP3    H148359   1.270   0.401  29.114 -0.6490  2.2131 -2.9943
 8956TIP3    H248360   1.225   0.271  29.052 -1.4388  0.2720  1.2882
 8957TIP3   OH248361   4.141   0.358   2.382 -0.1646  0.4575  0.1800
 8957TIP3    H148362   4.137   0.441   2.334  0.1397  0.9482  0.9857
 8957TIP3    H248363   4.225   0.320   2.357 -0.6818 -0.0433 -0.8700
 8958TIP3   OH248364   0.953   3.980  14.728 -0.5247 -0.2223  0.5088
 8958TIP3    H148365   0.972   3.976  14.822 -0.8479 -1.2979  0.5445
 8958TIP3    H248366   1.029   4.023  14.689  0.0994 -0.7474  1.1304
 8959TIP3   OH248367   0.389   0.890   4.202  0.3188 -0.6493  0.1484
 8959TIP3    H148368   0.309   0.842   4.180  0.8417 -1.4157 -0.1413
 8959TIP3    H248369   0.445   0.824   4.243  1.5130 -0.5703 -1.3182
 8960TIP3   OH248370   1.431   3.144  11.190  0.0310  0.3598  0.8921
 8960TIP3    H148371   1.426   3.131  11.095  1.4349 -1.4257  1.0048
 8960TIP3    H248372   1.521   3.120  11.213 -0.3273  0.5849  2.6988
 8961TIP3   OH248373   2.585   4.153  39.794  0.1739  0.1907  0.1132
 8961TIP3    H148374   2.570   4.122  39.883  0.0602  1.1855  0.4587
 8961TIP3    H248375   2.581   4.074  39.740  2.4169 -0.7358  1.2057
 8962TIP3   OH248376   4.102   3.221  28.205 -0.3080 -0.5798  0.1934
 8962TIP3    H148377   4.112   3.185  28.117  0.5764 -0.6223  0.3032
 8962TIP3    H248378   4.168   3.290  28.211 -0.0904 -0.8429  0.9626
 8963TIP3   OH248379   0.413   3.598  30.657 -0.3238  0.1837 -0.1037
 8963TIP3    H148380   0.490   3.541  30.658 -1.0292 -0.8029 -0.2030
 8963TIP3    H248381   0.380   3.591  30.567 -0.9358  0.0426  0.1323
 8964TIP3   OH248382   0.917   1.313  26.495 -0.6490  0.8600 -0.2305
 8964TIP3    H148383   0.923   1.406  26.472 -2.0781  1.1514  0.4271
 8964TIP3    H248384   0.852   1.277  26.434 -2.0941  0.9311  1.1942
 8965TIP3   OH248385   2.593   3.172  36.427  0.5582  0.4667 -0.5783
 8965TIP3    H148386   2.530   3.143  36.361  1.9337  1.6824 -2.5444
 8965TIP3    H248387   2.650   3.096  36.441 -0.1640 -0.0238 -0.2184
 8966TIP3   OH248388   2.765   1.494   4.905  0.1680  0.1213  0.0992
 8966TIP3    H148389   2.846   1.464   4.866 -0.4551  0.0022 -1.1518
 8966TIP3    H248390   2.757   1.585   4.877  0.5363  0.5674  1.3609
 8967TIP3   OH248391   3.287   1.817  38.972 -0.9282 -0.0681  0.1611
 8967TIP3    H148392   3.370   1.852  38.940 -0.3329  0.9799  2.5834
 8967TIP3    H248393   3.234   1.805  38.894  0.8661  0.9571 -1.2973
 8968TIP3   OH248394   0.981   2.139  31.833 -0.0348  0.2756 -0.0656
 8968TIP3    H148395   0.953   2.113  31.921  0.2799 -2.0520 -0.6008
 8968TIP3    H248396   1.059   2.087  31.815  0.0512  0.8760 -1.6511
 8969TIP3   OH248397   0.476   3.108  34.747  0.4731  0.3450 -0.3017
 8969TIP3    H148398   0.462   3.131  34.655  2.1823  1.0203 -0.4271
 8969TIP3    H248399   0.404   3.152  34.794 -0.8798 -0.6628 -1.3527
 8970TIP3   OH248400   1.126   2.083  15.887 -0.0359  0.2912 -0.0171
 8970TIP3    H148401   1.156   2.021  15.821 -0.2314 -1.2100  1.2575
 8970TIP3    H248402   1.152   2.169  15.853  2.2996 -0.6360 -0.7393
 8971TIP3   OH248403   0.712   0.586  13.108 -0.3466  0.4446 -0.1765
 8971TIP3    H148404   0.708   0.670  13.153 -1.7166  0.0543  0.4559
 8971TIP3    H248405   0.712   0.609  13.015 -0.8685  1.1399 -0.0091
 8972TIP3   OH248406   3.104   1.670  35.945 -0.0151  0.4547 -0.2757
 8972TIP3    H148407   3.199   1.683  35.948  0.1294 -0.5733 -0.1547
 8972TIP3    H248408   3.091   1.604  35.877 -0.3649 -1.5677  1.6303
 8973TIP3   OH248409   3.300   2.887   7.565 -0.2476 -0.3453 -0.3197
 8973TIP3    H148410   3.290   2.933   7.649  1.6092  0.6001 -0.5613
 8973TIP3    H248411   3.212   2.885   7.528 -1.0459 -0.4776  1.4840
 8974TIP3   OH248412   2.146   0.452   9.534 -0.0107 -0.1580  0.1450
 8974TIP3    H148413   2.096   0.448   9.615  0.2517 -1.3362  0.2613
 8974TIP3    H248414   2.198   0.372   9.534 -1.0556 -0.9222 -1.8450
 8975TIP3   OH248415   1.920   2.782  39.675 -0.0082 -0.2346 -0.3062
 8975TIP3    H148416   1.930   2.869  39.636  0.1375 -0.5659 -1.0290
 8975TIP3    H248417   1.978   2.782  39.751  0.4575  0.0973 -0.6570
 8976TIP3   OH248418   3.393   4.213  12.363 -0.6991 -0.3620 -0.1376
 8976TIP3    H148419   3.430   4.125  12.356  0.0618 -0.0435 -0.1806
 8976TIP3    H248420   3.325   4.205  12.430 -0.6181 -0.9711 -0.1172
 8977TIP3   OH248421   1.504   0.063   2.767  0.6062  0.4651 -0.2366
 8977TIP3    H148422   1.533   0.014   2.690 -2.0433  0.0820 -1.1014
 8977TIP3    H248423   1.433   0.011   2.803  0.7803  1.4196  1.6004
 8978TIP3   OH248424   3.258   1.861  34.785  0.1831  0.6674  0.0292
 8978TIP3    H148425   3.302   1.944  34.768  0.3067  0.4195 -0.8699
 8978TIP3    H248426   3.249   1.820  34.699 -2.4502  1.0288  0.0551
 8979TIP3   OH248427   2.198   4.314  34.204 -0.0042 -0.0062 -0.4629
 8979TIP3    H148428   2.275   4.368  34.184  0.1612 -0.3953 -0.8990
 8979TIP3    H248429   2.126   4.358  34.159  0.0641  0.0437 -0.5227
 8980TIP3   OH248430   1.265   3.232  34.162 -0.2579 -0.0023 -0.0086
 8980TIP3    H148431   1.242   3.323  34.178 -1.1203 -0.0617 -0.8191
 8980TIP3    H248432   1.181   3.186  34.157 -0.1259 -0.1612 -3.4637
 8981TIP3   OH248433   2.186   2.460   4.051 -0.5480 -0.0446 -0.0992
 8981TIP3    H148434   2.189   2.516   3.974 -0.2909 -0.8390 -0.6844
 8981TIP3    H248435   2.094   2.463   4.080 -0.4535  0.9759  0.1240
 8982TIP3   OH248436   3.166   0.115   3.849 -0.1206  0.2470 -0.3341
 8982TIP3    H148437   3.197   0.117   3.759 -1.1532 -0.4944 -0.7166
 8982TIP3    H248438   3.238   0.153   3.900  1.8774 -2.3564 -1.0261
 8983TIP3   OH248439   1.426   0.989  39.329  0.3380  0.1796  0.3314
 8983TIP3    H148440   1.496   0.944  39.375 -0.1998  0.7457  1.7484
 8983TIP3    H248441   1.468   1.063  39.285  0.6261  0.5364  1.2036
 8984TIP3   OH248442   0.856   3.138  15.707  0.1323 -0.1406  0.4709
 8984TIP3    H148443   0.892   3.136  15.618 -3.0995  0.6726 -1.0067
 8984TIP3    H248444   0.804   3.218  15.710 -0.1550 -0.3411  3.0201
 8985TIP3   OH248445   3.618   2.884   2.180  0.7306 -0.2158 -0.1252
 8985TIP3    H148446   3.682   2.922   2.239  1.5938 -0.2226 -1.0405
 8985TIP3    H248447   3.665   2.814   2.135 -0.0398 -0.4963 -0.5110
 8986TIP3   OH248448   2.519   2.785   5.832 -0.5429 -0.1783 -0.6457
 8986TIP3    H148449   2.430   2.782   5.866  0.3019 -0.8667  1.7400
 8986TIP3    H248450   2.547   2.875   5.844 -0.6293 -0.1609 -0.5762
 8987TIP3   OH248451   0.000   0.790  32.252  0.8866  0.1369 -0.0491
 8987TIP3    H148452   0.095   0.787  32.237  1.0994  2.8383  0.1881
 8987TIP3    H248453  -0.033   0.844  32.181 -0.4816 -0.6699 -0.0506
 8988TIP3   OH248454   4.227   2.109   4.876 -0.1345  0.1944  0.3707
 8988TIP3    H148455   4.239   2.185   4.933 -1.2838  0.1297  0.7304
 8988TIP3    H248456   4.133   2.108   4.858  0.1162 -0.1638 -1.0190
 8989TIP3   OH248457   3.762   3.857  36.776 -0.1556  0.4152 -0.0273
 8989TIP3    H148458   3.829   3.923  36.797 -1.9741  2.5488 -0.4638
 8989TIP3    H248459   3.757   3.858  36.681  0.0377 -0.6451 -0.0526
 8990TIP3   OH248460   1.569   1.814  35.014 -0.1021  0.5055 -0.3842
 8990TIP3    H148461   1.617   1.892  34.985 -0.2080  1.4658  1.8650
 8990TIP3    H248462   1.545   1.770  34.932 -0.4286  3.0498 -1.7764
 8991TIP3   OH248463   3.581   1.254   3.259 -0.0061 -0.0578  0.7385
 8991TIP3    H148464   3.640   1.215   3.325  1.3011  1.1667  0.3426
 8991TIP3    H248465   3.611   1.344   3.252 -0.2476 -0.1156 -1.4018
 8992TIP3   OH248466   2.433   4.226   9.530  0.2281 -0.1776 -0.4087
 8992TIP3    H148467   2.471   4.313   9.529  0.9562 -0.4436  1.1957
 8992TIP3    H248468   2.499   4.170   9.489  0.9305 -0.3776  0.9412
 8993TIP3   OH248469   3.520   0.858  33.614 -0.0341 -0.0333  0.0303
 8993TIP3    H148470   3.495   0.828  33.701 -0.7374  1.8943  0.5605
 8993TIP3    H248471   3.445   0.839  33.558  1.0070 -2.7025 -0.5907
 8994TIP3   OH248472   1.068   1.920   7.009 -0.4618 -0.8350  0.1584
 8994TIP3    H148473   1.103   1.853   7.068 -0.3504 -0.3341  0.6625
 8994TIP3    H248474   1.007   1.970   7.063  0.4971  0.3469  0.1710
 8995TIP3   OH248475   0.231   4.211  34.604  0.2233  0.0662  0.0467
 8995TIP3    H148476   0.247   4.181  34.514  1.7787  1.0841 -0.0599
 8995TIP3    H248477   0.188   4.137  34.647 -0.4611 -0.4706 -1.5033
 8996TIP3   OH248478   1.868   3.615  31.495  0.3212  0.7412 -0.2889
 8996TIP3    H148479   1.817   3.547  31.538  0.9502  0.6169  0.2836
 8996TIP3    H248480   1.952   3.573  31.475  0.4188  1.1135 -0.6759
 8997TIP3   OH248481   1.946   1.645   1.926 -0.6586 -0.5903 -0.6147
 8997TIP3    H148482   1.880   1.714   1.929 -1.1743 -1.1042  0.3591
 8997TIP3    H248483   2.019   1.680   1.977 -0.6639 -0.5146 -0.6584
 8998TIP3   OH248484   0.964   3.292  13.376  0.3290 -0.5135 -0.1293
 8998TIP3    H148485   0.968   3.372  13.427  1.8873 -1.4727  1.3810
 8998TIP3    H248486   0.871   3.280  13.355 -0.2129  0.4965  1.5618
 8999TIP3   OH248487   1.112   1.972   0.991 -0.2870 -0.1075 -0.1324
 8999TIP3    H148488   1.173   1.985   1.064  0.9422  0.0591 -1.1632
 8999TIP3    H248489   1.064   1.893   1.015 -0.5129  0.4197  1.2630
 9000TIP3   OH248490   1.174   1.896  15.676  0.4481 -0.3119  0.4305
 9000TIP3    H148491   1.247   1.866  15.622 -0.2500 -0.1243 -0.6708
 9000TIP3    H248492   1.103   1.834  15.655 -0.6400  1.3014 -0.9517
 9001TIP3   OH248493   0.648   0.371  12.841 -0.1499  0.2433 -0.0324
 9001TIP3    H148494   0.718   0.436  12.832 -1.0590  1.4106  0.9932
 9001TIP3    H248495   0.567   0.422  12.840 -0.8180 -0.6256  2.5767
 9002TIP3   OH248496   1.715   2.325  10.425  1.3701  0.1483 -0.3682
 9002TIP3    H148497   1.795   2.354  10.381  2.4611  0.2749  1.5916
 9002TIP3    H248498   1.745   2.294  10.510 -0.9615  3.1624  1.7539
 9003TIP3   OH248499   1.248   0.122  35.359 -0.3701 -0.5992  0.3223
 9003TIP3    H148500   1.283   0.033  35.349  1.1092 -0.4138  2.9163
 9003TIP3    H248501   1.163   0.109  35.401  0.3146 -0.8113  1.7055
 9004TIP3   OH248502   4.039   0.822   2.121  0.2027  0.0502  0.9458
 9004TIP3    H148503   4.118   0.822   2.174  0.8736 -0.9607  0.0036
 9004TIP3    H248504   4.008   0.731   2.126  0.0086  0.0581  0.0233
 9005TIP3   OH248505   4.061   0.564  27.246  0.1394  0.4469 -0.2003
 9005TIP3    H148506   4.130   0.583  27.310 -0.8547  0.0213  1.0256
 9005TIP3    H248507   4.063   0.639  27.186  0.4848  1.3101  0.8611
 9006TIP3   OH248508   4.137   1.573  38.589 -0.4994 -0.2434  0.5024
 9006TIP3    H148509   4.210   1.536  38.639  1.1548  0.6481 -1.1039
 9006TIP3    H248510   4.141   1.529  38.504  0.3434  2.0791 -0.7806
 9007TIP3   OH248511   2.200   1.043   3.171  0.2415 -0.8562  0.1408
 9007TIP3    H148512   2.149   1.004   3.100 -1.3688  0.0323  0.7481
 9007TIP3    H248513   2.134   1.080   3.230  1.6207  1.8699  0.1189
 9008TIP3   OH248514   4.302   3.797  40.271  0.4754 -0.7579  0.3085
 9008TIP3    H148515   4.387   3.815  40.231 -0.2752  1.0666 -0.5777
 9008TIP3    H248516   4.244   3.779  40.197 -0.1969 -0.6906  0.8125
 9009TIP3   OH248517   4.187   2.126  27.322  0.6293 -0.3906  0.2435
 9009TIP3    H148518   4.158   2.217  27.319  0.0003 -0.5836  0.4500
 9009TIP3    H248519   4.202   2.109  27.415 -1.2560 -1.1134  0.4525
 9010TIP3   OH248520   1.519   2.671  12.801 -0.1503  0.1893 -0.4662
 9010TIP3    H148521   1.546   2.751  12.846 -1.6404  0.6908 -0.4024
 9010TIP3    H248522   1.426   2.684  12.785 -0.3979 -1.5171 -0.5096
 9011TIP3   OH248523   2.039   2.161  37.483 -0.5039  0.0447 -0.3576
 9011TIP3    H148524   2.109   2.097  37.497  1.3294  1.1558 -3.4034
 9011TIP3    H248525   2.049   2.223  37.555  2.3293  0.6273 -1.1213
 9012TIP3   OH248526   1.803   4.376   2.172  0.1459 -0.7650  0.0478
 9012TIP3    H148527   1.862   4.323   2.227  1.1820  0.2201 -0.0992
 9012TIP3    H248528   1.821   4.347   2.083  0.7141 -0.1875 -0.0329
 9013TIP3   OH248529   0.760   2.964  16.996  0.3968  0.4624 -0.2411
 9013TIP3    H148530   0.746   2.957  17.091  4.6512  1.0021  0.6487
 9013TIP3    H248531   0.773   3.057  16.980 -2.8286  0.7243 -1.9652
 9014TIP3   OH248532   0.825   2.483   8.373 -0.8065 -0.9614 -0.4367
 9014TIP3    H148533   0.910   2.522   8.352 -0.5902 -0.7304  0.7949
 9014TIP3    H248534   0.826   2.398   8.329  0.2177 -1.1218 -0.1292
 9015TIP3   OH248535   0.404   2.340  27.339 -0.5347 -0.6162  0.0930
 9015TIP3    H148536   0.499   2.337  27.331 -0.6103  0.3638 -1.7904
 9015TIP3    H248537   0.388   2.380  27.425  0.7671 -0.3636  0.2342
 9016TIP3   OH248538   3.056   3.785   5.756 -0.5200  0.2568  0.6026
 9016TIP3    H148539   3.042   3.834   5.837 -1.7739  1.5384 -0.3500
 9016TIP3    H248540   3.073   3.852   5.690  1.1269 -0.8008 -0.1088
 9017TIP3   OH248541   3.372   2.999  12.785  0.1110 -0.0191 -0.1419
 9017TIP3    H148542   3.326   2.974  12.704 -0.1189 -1.4822  0.4068
 9017TIP3    H248543   3.303   3.010  12.849  0.3801 -0.2806  0.1996
 9018TIP3   OH248544   1.610   0.776   1.429 -0.4784  0.2488  0.0932
 9018TIP3    H148545   1.555   0.788   1.507  0.3029 -0.9602  0.8720
 9018TIP3    H248546   1.575   0.698   1.387  0.2479 -0.1801  0.2679
 9019TIP3   OH248547   3.903   4.060  38.511 -0.0770  0.4103 -0.7011
 9019TIP3    H148548   3.875   4.002  38.440 -1.4426  0.3114 -0.1203
 9019TIP3    H248549   3.835   4.128  38.514  0.1560  0.6199  0.2697
 9020TIP3   OH248550   1.183   1.307   0.955  0.1552  0.1387  0.0667
 9020TIP3    H148551   1.147   1.320   1.043  0.0604  1.4121 -0.1301
 9020TIP3    H248552   1.107   1.311   0.897  0.2786 -0.1567 -0.1193
 9021TIP3   OH248553   0.739   3.704  28.871  0.4804  0.5738  0.0846
 9021TIP3    H148554   0.758   3.621  28.914 -3.8893 -0.9152 -0.3477
 9021TIP3    H248555   0.706   3.760  28.942  1.3026  1.2047 -0.0107
 9022TIP3   OH248556   1.903   1.581  28.702  0.7050 -0.0212 -0.0289
 9022TIP3    H148557   1.842   1.571  28.775  2.7451  3.3437  2.4721
 9022TIP3    H248558   1.963   1.507  28.709 -0.2834 -0.7857  0.4751
 9023TIP3   OH248559   0.791   0.041   0.164  0.1994  0.4646 -0.0799
 9023TIP3    H148560   0.798   0.111   0.229  0.3794 -1.2230  1.8263
 9023TIP3    H248561   0.709  -0.003   0.184 -0.0967  0.3098 -1.4827
 9024TIP3   OH248562   1.011   3.978  27.289  0.6231  0.2300  0.2456
 9024TIP3    H148563   0.917   3.998  27.281  0.2206 -2.1126 -4.2754
 9024TIP3    H248564   1.014   3.891  27.329  0.6103 -0.5206 -1.2932
 9025TIP3   OH248565   1.237   1.836  13.366 -0.0151 -0.2140  0.8236
 9025TIP3    H148566   1.154   1.812  13.325  0.0453  0.2793  0.4098
 9025TIP3    H248567   1.301   1.833  13.295 -0.3758  3.4104  0.1529
 9026TIP3   OH248568   4.354   4.214  27.166 -0.2128  0.1637  0.2179
 9026TIP3    H148569   4.392   4.243  27.249 -1.2327  0.1759  0.6903
 9026TIP3    H248570   4.392   4.273  27.101  2.2202 -1.1440  0.3492
 9027TIP3   OH248571   2.448   0.732  31.738  0.1496 -0.3740  0.0764
 9027TIP3    H148572   2.491   0.770  31.814  0.7602  1.8759 -1.2913
 9027TIP3    H248573   2.362   0.706  31.769  0.4252  0.3994  1.5635
 9028TIP3   OH248574   4.259   1.654  22.023  0.0964  0.0818  0.5728
 9028TIP3    H148575   4.291   1.644  22.112  0.5068  0.9793  0.5265
 9028TIP3    H248576   4.213   1.572  22.006 -0.7183  0.2349  1.9007
 9029TIP3   OH248577   3.965   3.991   7.715 -0.0007 -0.6802 -0.3470
 9029TIP3    H148578   3.970   4.085   7.701  0.4156 -0.9663 -2.4886
 9029TIP3    H248579   3.992   3.978   7.806  1.3268  1.1443 -0.4366
 9030TIP3   OH248580   2.819   1.620  27.889  0.1133 -0.3529 -0.2269
 9030TIP3    H148581   2.749   1.653  27.945 -1.3101 -0.0197 -2.1120
 9030TIP3    H248582   2.899   1.640  27.937 -0.9793  0.9629  1.1541
 9031TIP3   OH248583   3.255   0.441  30.168  0.5359  0.5793  0.1832
 9031TIP3    H148584   3.279   0.430  30.260 -0.0230  0.2946  0.3000
 9031TIP3    H248585   3.300   0.521  30.141  1.1948  0.3389  0.5350
 9032TIP3   OH248586   1.387   2.264   2.704  0.0229  0.3160 -0.0449
 9032TIP3    H148587   1.410   2.346   2.747 -0.2146  0.6992 -0.6323
 9032TIP3    H248588   1.449   2.256   2.632  1.7449 -1.3490  1.5311
 9033TIP3   OH248589   0.925   4.304   9.812  0.6212  0.3485 -0.3965
 9033TIP3    H148590   0.942   4.397   9.824  2.1506 -0.0827  1.1742
 9033TIP3    H248591   0.975   4.280   9.734  0.5690  0.7500 -0.5526
 9034TIP3   OH248592   0.653   1.285   3.040  0.3377 -0.5383 -0.2922
 9034TIP3    H148593   0.661   1.377   3.016  0.7873 -0.1712  1.1347
 9034TIP3    H248594   0.628   1.286   3.133 -2.0375 -1.8470 -0.8421
 9035TIP3   OH248595   0.488   4.167  10.674 -0.0000 -0.8407 -0.2351
 9035TIP3    H148596   0.397   4.138  10.682 -0.6279 -0.1404 -3.5190
 9035TIP3    H248597   0.488   4.254  10.716 -0.9698 -0.6475 -0.5992
 9036TIP3   OH248598   3.361   2.964   2.349  0.1488 -0.0098  0.9500
 9036TIP3    H148599   3.446   2.920   2.359  0.2669  0.3631  1.5925
 9036TIP3    H248600   3.332   2.939   2.261  2.5787  2.7245 -0.8036
 9037TIP3   OH248601   3.488   2.128   8.286  0.4305  0.1496 -0.2606
 9037TIP3    H148602   3.493   2.032   8.285  2.0518  0.2099 -0.2863
 9037TIP3    H248603   3.408   2.147   8.335 -0.0748 -1.2106 -0.4968
 9038TIP3   OH248604   2.120   1.700  18.821  0.2390  0.0082  0.4722
 9038TIP3    H148605   2.202   1.733  18.784 -1.1651  2.8473 -0.3274
 9038TIP3    H248606   2.076   1.658  18.748 -0.4542  1.4409  0.0447
 9039TIP3   OH248607   3.603   4.014   6.034 -0.4756 -0.7376  0.0344
 9039TIP3    H148608   3.662   3.987   5.964 -0.4266 -1.9202  0.5123
 9039TIP3    H248609   3.610   4.110   6.036  1.9559 -0.8729  0.5560
 9040TIP3   OH248610   1.531   1.724   7.190  0.4154 -0.1280 -0.2830
 9040TIP3    H148611   1.579   1.679   7.121  1.1555  0.4103 -0.1315
 9040TIP3    H248612   1.582   1.707   7.270  0.6784  0.9231 -0.2159
 9041TIP3   OH248613   1.972   3.452   6.884  0.2390 -0.0231  0.2555
 9041TIP3    H148614   1.917   3.400   6.942 -1.5353 -0.2559 -1.5178
 9041TIP3    H248615   1.911   3.490   6.820  1.7867  2.1482 -0.0734
 9042TIP3   OH248616   0.821   2.151  14.152  0.0479 -0.0239 -0.3577
 9042TIP3    H148617   0.870   2.085  14.201  1.3290  1.4389  0.4253
 9042TIP3    H248618   0.885   2.189  14.092 -0.2151  1.5634  0.3096
 9043TIP3   OH248619   3.783   1.991   0.478  0.1644  0.2983  0.1364
 9043TIP3    H148620   3.763   2.076   0.516  0.5201  0.5919 -0.3235
 9043TIP3    H248621   3.699   1.945   0.475  0.0677  0.4274  0.8876
 9044TIP3   OH248622   2.518   1.844  18.245 -0.4155  0.0961  0.1666
 9044TIP3    H148623   2.474   1.846  18.330 -1.3887 -1.2527 -0.2635
 9044TIP3    H248624   2.462   1.899  18.189  0.2563  1.0310  0.3901
 9045TIP3   OH248625   2.745   3.811   5.515  0.1485 -0.1699  0.3859
 9045TIP3    H148626   2.657   3.847   5.506  0.7024  1.3880  0.6929
 9045TIP3    H248627   2.789   3.872   5.575  1.3620 -1.0385  0.4207
 9046TIP3   OH248628   1.444   0.917   8.104  0.2049 -0.7296 -0.5451
 9046TIP3    H148629   1.366   0.872   8.136  0.6433 -0.9294  0.2821
 9046TIP3    H248630   1.418   0.954   8.020 -0.4783 -1.6274 -0.7366
 9047TIP3   OH248631   2.288   3.237  13.887  0.6221  0.1834  0.2763
 9047TIP3    H148632   2.198   3.229  13.921  0.3783 -0.2263 -0.4522
 9047TIP3    H248633   2.294   3.329  13.860 -0.1200 -0.1449 -1.1183
 9048TIP3   OH248634   4.160   2.839   0.956  0.0954  0.1533  0.1459
 9048TIP3    H148635   4.218   2.878   1.021  2.5871  1.4510 -2.6237
 9048TIP3    H248636   4.212   2.771   0.914 -1.3108 -0.4297 -0.7350
 9049TIP3   OH248637   3.194   0.378  41.131 -0.1460  0.2534 -0.2720
 9049TIP3    H148638   3.176   0.299  41.080  0.6616 -1.1517  1.4924
 9049TIP3    H248639   3.162   0.357  41.219  1.7276  1.1370  0.6800
 9050TIP3   OH248640   2.284   0.397  12.186  0.1057 -0.1094 -0.5161
 9050TIP3    H148641   2.232   0.445  12.250 -1.5051  0.8872 -2.4638
 9050TIP3    H248642   2.359   0.453  12.169 -0.6041  0.6983 -1.0909
 9051TIP3   OH248643   2.154   3.883   2.862  0.0354  0.1496 -0.4371
 9051TIP3    H148644   2.194   3.796   2.854  0.8912  0.6627 -2.2181
 9051TIP3    H248645   2.064   3.871   2.830  0.7300  0.2816 -2.5455
 9052TIP3   OH248646   0.485   1.582  10.347 -0.3085 -0.6741  0.2901
 9052TIP3    H148647   0.422   1.526  10.302  0.5428 -0.7112 -0.8863
 9052TIP3    H248648   0.467   1.670  10.315 -1.3549 -0.3062  1.8076
 9053TIP3   OH248649   0.362   1.850  32.453  0.4419  0.5718  0.1261
 9053TIP3    H148650   0.300   1.870  32.523  1.3602 -0.4736  1.2813
 9053TIP3    H248651   0.371   1.754  32.456  1.3352  0.6132 -0.6920
 9054TIP3   OH248652   2.068   3.144  16.991  0.2835  0.0341 -0.2272
 9054TIP3    H148653   2.046   3.062  16.947  1.7925 -0.5122 -0.0336
 9054TIP3    H248654   2.110   3.197  16.923 -0.3636  0.5079 -0.2622
 9055TIP3   OH248655   0.555   3.699  26.784  0.0799 -0.3005  0.2854
 9055TIP3    H148656   0.576   3.660  26.869 -0.7414 -0.7003  0.3169
 9055TIP3    H248657   0.493   3.769  26.805  0.3138 -0.0230  0.0629
 9056TIP3   OH248658   0.391   1.557  12.348  0.0031  0.2276 -0.1933
 9056TIP3    H148659   0.375   1.524  12.436  0.9227  1.5428  0.5135
 9056TIP3    H248660   0.312   1.607  12.326  0.9466  2.5487  1.2448
 9057TIP3   OH248661   1.947   3.761  30.837 -0.4422 -0.5106  0.2520
 9057TIP3    H148662   1.874   3.820  30.856  0.3928  0.9847 -0.8954
 9057TIP3    H248663   2.022   3.820  30.825  0.7827 -1.9441  0.6360
 9058TIP3   OH248664   3.684   3.890  34.825 -0.4880  0.6126  0.4535
 9058TIP3    H148665   3.663   3.825  34.893 -0.2389  1.6820  1.5927
 9058TIP3    H248666   3.613   3.954  34.830 -0.2355  0.9329  0.0072
 9059TIP3   OH248667   3.168   1.334  29.845  0.1767  0.3024  0.2817
 9059TIP3    H148668   3.085   1.290  29.827 -0.1875  0.6961  0.9490
 9059TIP3    H248669   3.144   1.425  29.861  0.8956  0.7107 -0.8393
 9060TIP3   OH248670   0.222   4.223   3.103 -0.1212 -0.0633 -0.3752
 9060TIP3    H148671   0.167   4.273   3.163 -0.5793 -2.6768  1.5524
 9060TIP3    H248672   0.170   4.218   3.022 -1.8536 -0.7591  0.7220
 9061TIP3   OH248673   1.014   0.444   5.148 -0.0122 -0.5475 -0.2899
 9061TIP3    H148674   0.985   0.535   5.154  0.0729 -0.5372  0.0195
 9061TIP3    H248675   1.007   0.422   5.056 -1.4853 -0.7060 -0.1518
 9062TIP3   OH248676   2.086   2.285  31.050  0.4513  0.4012 -0.1895
 9062TIP3    H148677   2.174   2.305  31.017  0.2237  2.0134  0.0726
 9062TIP3    H248678   2.097   2.205  31.101  1.1447 -1.1781 -2.6862
 9063TIP3   OH248679   1.813   3.970   4.859 -0.0856 -0.3539 -0.1503
 9063TIP3    H148680   1.758   4.005   4.789 -0.7893  0.4466  0.7751
 9063TIP3    H248681   1.902   3.984   4.828 -0.3733 -0.9679 -1.3376
 9064TIP3   OH248682   2.232   0.478   2.712 -0.0029  0.1458 -0.2653
 9064TIP3    H148683   2.318   0.457   2.748 -0.8563  0.4403  2.1243
 9064TIP3    H248684   2.197   0.546   2.770 -1.5054  0.6731 -1.7026
 9065TIP3   OH248685   0.241   3.056  11.282 -0.2041  0.5840  0.0332
 9065TIP3    H148686   0.157   3.090  11.313 -0.3313 -1.0450  1.6127
 9065TIP3    H248687   0.303   3.082  11.350 -0.2479 -1.9215  1.1344
 9066TIP3   OH248688   1.984   2.194  10.048 -0.3402  0.0460  0.4121
 9066TIP3    H148689   2.077   2.177  10.058 -0.2687 -0.4486 -0.8532
 9066TIP3    H248690   1.979   2.283  10.014 -0.2960 -0.0477  0.1532
 9067TIP3   OH248691   0.070   4.164  40.603 -0.1993 -0.1825  0.2364
 9067TIP3    H148692   0.019   4.219  40.544 -0.1613  0.6897  1.0059
 9067TIP3    H248693   0.151   4.145  40.555 -1.1480 -1.4634 -0.9318
 9068TIP3   OH248694   0.821   3.737  31.557 -0.8216  0.0426 -0.5208
 9068TIP3    H148695   0.786   3.795  31.624 -2.6659 -0.4102 -1.0244
 9068TIP3    H248696   0.771   3.656  31.567  1.3028 -1.2981 -0.1907
 9069TIP3   OH248697   0.358   1.597  13.158 -0.7295 -0.5207 -0.3983
 9069TIP3    H148698   0.439   1.577  13.204 -0.6472 -0.1004 -0.3511
 9069TIP3    H248699   0.309   1.515  13.158  0.9221 -1.6504 -3.0157
 9070TIP3   OH248700   1.994   0.150  41.484 -0.0781 -0.0087 -0.0846
 9070TIP3    H148701   1.983   0.078  41.422  1.6281  1.2976 -2.0451
 9070TIP3    H248702   2.053   0.116  41.551 -1.4624 -1.2463  0.5505
 9071TIP3   OH248703   1.391   1.636   7.966  0.3938 -0.2725 -0.6866
 9071TIP3    H148704   1.485   1.648   7.977  0.2411  0.7247 -0.3555
 9071TIP3    H248705   1.370   1.556   8.013  0.7429  0.6375  1.1043
 9072TIP3   OH248706   0.353   4.332   5.860  0.6220 -0.2958  0.3418
 9072TIP3    H148707   0.365   4.237   5.853 -2.3633 -0.7633  0.3248
 9072TIP3    H248708   0.278   4.342   5.919  0.8333  2.0675  0.2812
 9073TIP3   OH248709   0.035   3.719   4.488 -0.2844  0.2031  0.2357
 9073TIP3    H148710  -0.012   3.794   4.450 -0.1273  1.0468  1.6395
 9073TIP3    H248711   0.085   3.683   4.415 -0.9801  0.9701 -0.6526
 9074TIP3   OH248712   3.705   2.383  23.185  0.2616 -0.6920 -0.2380
 9074TIP3    H148713   3.654   2.380  23.266  0.0588 -2.3022 -0.3800
 9074TIP3    H248714   3.639   2.372  23.116  0.3726  1.1515 -0.6813
 9075TIP3   OH248715   1.182   3.462   6.839 -0.2880 -0.1232 -0.0005
 9075TIP3    H148716   1.263   3.417   6.860  0.6489  0.9612 -1.1259
 9075TIP3    H248717   1.156   3.426   6.754  0.3408  1.2004 -0.7986
 9076TIP3   OH248718   4.080   0.553  39.575 -0.4251  0.2259 -0.1935
 9076TIP3    H148719   4.036   0.488  39.521  2.0493 -3.1227  1.4722
 9076TIP3    H248720   4.040   0.544  39.661  0.9317 -0.2131  0.4176
 9077TIP3   OH248721   2.170   1.230   2.949 -0.1450 -0.2853 -0.0629
 9077TIP3    H148722   2.205   1.260   2.865 -3.2323  0.5654 -1.1704
 9077TIP3    H248723   2.222   1.277   3.014  0.4600  1.2383 -1.5627
 9078TIP3   OH248724   1.287   1.825  28.925 -0.0585 -0.2719 -0.4996
 9078TIP3    H148725   1.275   1.743  28.878  0.7144  0.1966 -1.5560
 9078TIP3    H248726   1.199   1.862  28.931 -0.6977 -1.9812  1.5732
 9079TIP3   OH248727   1.606   2.454  16.184  0.2706  0.5165  0.3841
 9079TIP3    H148728   1.588   2.513  16.110  1.6446  1.4053  0.7086
 9079TIP3    H248729   1.686   2.408  16.158  1.3880  1.6150  1.7196
 9080TIP3   OH248730   3.930   3.306   3.940 -0.0668 -0.0017  0.0811
 9080TIP3    H148731   3.906   3.230   3.886 -0.2926 -0.1243  0.3550
 9080TIP3    H248732   3.946   3.270   4.027 -0.5375  0.3187  0.3009
 9081TIP3   OH248733   2.722   2.155   2.312  0.4296 -0.0117  0.4169
 9081TIP3    H148734   2.674   2.215   2.255  0.8967 -0.2191 -0.2076
 9081TIP3    H248735   2.662   2.081   2.324 -1.3101  1.7057  3.4490
 9082TIP3   OH248736   0.050   1.004  25.963  0.2851 -0.4400  0.4896
 9082TIP3    H148737   0.143   0.989  25.982  0.5377 -0.6518 -0.8079
 9082TIP3    H248738   0.014   1.035  26.046  1.5694 -0.0593  0.9411
 9083TIP3   OH248739   1.912   1.432   8.104  0.0647 -0.0623  0.1952
 9083TIP3    H148740   1.980   1.398   8.162  0.4564 -0.7915 -0.6762
 9083TIP3    H248741   1.835   1.440   8.160  0.4999 -0.5326  0.8754
 9084TIP3   OH248742   1.901   2.227   3.207  0.3123  0.0702 -0.2039
 9084TIP3    H148743   1.978   2.280   3.231 -0.4749  0.2640  2.1881
 9084TIP3    H248744   1.874   2.186   3.289 -2.4404  0.4049 -0.8372
 9085TIP3   OH248745   1.411   3.221  15.124  0.2031 -0.0372 -0.3635
 9085TIP3    H148746   1.337   3.214  15.185  1.0113  1.6607  0.8911
 9085TIP3    H248747   1.379   3.180  15.043 -1.5483 -0.7301  0.6207
 9086TIP3   OH248748   1.822   1.213  37.429 -0.0727 -0.0938 -0.1955
 9086TIP3    H148749   1.912   1.201  37.459  0.2617 -1.8905 -1.7001
 9086TIP3    H248750   1.776   1.248  37.505  2.3967  3.5824 -0.1370
 9087TIP3   OH248751   1.331   0.059  11.626 -0.8507  0.2370 -0.4335
 9087TIP3    H148752   1.246   0.015  11.630 -0.1084 -1.5008 -2.0736
 9087TIP3    H248753   1.387   0.011  11.686 -0.5554  0.1724 -0.7519
 9088TIP3   OH248754   1.856   2.561   4.626  0.0296  0.1425 -0.1483
 9088TIP3    H148755   1.863   2.507   4.704 -0.1315  0.5771  0.1709
 9088TIP3    H248756   1.940   2.605   4.619 -0.6594  1.7814  1.0412
 9089TIP3   OH248757   3.549   2.658  10.481  0.1650 -0.1138  0.0594
 9089TIP3    H148758   3.539   2.640  10.575 -0.6156  0.8003  0.1650
 9089TIP3    H248759   3.600   2.584  10.448  0.7190 -0.2957  1.2589
 9090TIP3   OH248760   0.673   0.229   2.771 -0.2184  0.3931  0.3054
 9090TIP3    H148761   0.660   0.298   2.837  2.5636  2.1274 -0.8061
 9090TIP3    H248762   0.619   0.257   2.697 -0.6733  0.2657  0.5835
 9091TIP3   OH248763   4.023   2.754   9.722 -0.0445  0.5529  0.3252
 9091TIP3    H148764   4.084   2.730   9.792 -0.8448 -0.1064  0.8224
 9091TIP3    H248765   3.944   2.702   9.741  0.5091 -1.5090 -2.3913
 9092TIP3   OH248766   2.601   0.352  40.051  0.3576 -0.0701 -0.4179
 9092TIP3    H148767   2.695   0.366  40.063  0.4952 -1.3386  0.2457
 9092TIP3    H248768   2.563   0.373  40.136 -0.0392  0.9502 -0.8354
 9093TIP3   OH248769   0.636   3.307   2.949 -0.2103 -0.1344 -0.2111
 9093TIP3    H148770   0.711   3.274   2.899 -0.0413 -0.9427  0.5555
 9093TIP3    H248771   0.667   3.307   3.040 -0.7718  0.5837 -0.0134
 9094TIP3   OH248772   1.445   0.735  41.546 -0.3851 -0.4798 -0.6430
 9094TIP3    H148773   1.436   0.777  41.631 -0.2276 -1.1914 -0.2637
 9094TIP3    H248774   1.487   0.800  41.490  1.3890 -0.6982  0.3853
 9095TIP3   OH248775   0.008   2.175  10.539  0.4746 -0.6462  0.4535
 9095TIP3    H148776   0.065   2.199  10.613  0.3424 -0.8844  0.6329
 9095TIP3    H248777   0.038   2.088  10.513  0.8761 -0.3417 -0.1234
 9096TIP3   OH248778   0.707   2.095   1.965  0.1854 -0.3413 -0.3602
 9096TIP3    H148779   0.680   2.029   1.901  0.5398 -0.2511 -0.6087
 9096TIP3    H248780   0.803   2.095   1.960  0.1651  0.9607 -1.1609
 9097TIP3   OH248781   0.505   3.434  25.436 -0.2589  0.0391 -0.3102
 9097TIP3    H148782   0.541   3.414  25.523  1.0054  1.8726 -0.3653
 9097TIP3    H248783   0.580   3.427  25.377 -1.3020 -2.2145 -1.4921
 9098TIP3   OH248784   1.155   3.984  36.981  0.0519  0.5126 -0.1226
 9098TIP3    H148785   1.083   4.035  36.944 -0.5937 -1.1980 -1.3635
 9098TIP3    H248786   1.112   3.916  37.033  0.6208 -1.2411 -1.7970
 9099TIP3   OH248787   1.317   1.327  18.183  0.4185 -0.2369 -0.1758
 9099TIP3    H148788   1.357   1.413  18.167  0.6564 -0.8281 -3.4028
 9099TIP3    H248789   1.387   1.275  18.223  0.6669  0.6633  0.6129
 9100TIP3   OH248790   1.395   3.866  36.188  0.1687 -0.2150 -0.5178
 9100TIP3    H148791   1.357   3.897  36.271 -1.7775 -0.0250 -1.4348
 9100TIP3    H248792   1.403   3.945  36.134  0.5842 -0.4769 -0.8526
 9101TIP3   OH248793   1.652   0.243  33.672 -0.3988  0.4903  0.3901
 9101TIP3    H148794   1.621   0.260  33.761  2.0763 -0.3189  1.4801
 9101TIP3    H248795   1.591   0.177  33.637 -0.7430 -0.0233  1.9065
 9102TIP3   OH248796   2.298   1.915  35.295  0.4232 -0.2285  0.1325
 9102TIP3    H148797   2.239   1.845  35.266 -0.4376  0.6194 -0.2213
 9102TIP3    H248798   2.258   1.949  35.375  0.6796  0.0399  0.1466
 9103TIP3   OH248799   4.158   3.618   4.288  0.3189 -0.5986 -0.2620
 9103TIP3    H148800   4.233   3.567   4.256  0.6294 -0.0316 -0.4557
 9103TIP3    H248801   4.102   3.629   4.212 -0.4775 -1.8922  0.1135
 9104TIP3   OH248802   1.645   1.693  32.291 -0.1396  0.3667 -0.4068
 9104TIP3    H148803   1.712   1.695  32.359 -0.3678 -1.0271 -0.0994
 9104TIP3    H248804   1.562   1.695  32.339 -0.3515  2.1131 -0.7848
 9105TIP3   OH248805   0.573   2.367  40.573  0.2704 -0.0800  0.3900
 9105TIP3    H148806   0.552   2.446  40.623  0.8659  0.4508 -0.1675
 9105TIP3    H248807   0.649   2.392  40.521  1.0359 -1.3106  0.8692
 9106TIP3   OH248808   1.266   1.245  40.801  0.0547  0.1835 -0.4168
 9106TIP3    H148809   1.261   1.328  40.755 -0.4627  0.3186 -0.1252
 9106TIP3    H248810   1.359   1.220  40.796  0.1252  0.5298 -0.9292
 9107TIP3   OH248811   4.106   4.316  30.072  0.4469  0.5272  1.0597
 9107TIP3    H148812   4.157   4.291  30.149  0.1424 -0.2916  1.0047
 9107TIP3    H248813   4.040   4.377  30.106 -0.1377 -0.3707  1.5935
 9108TIP3   OH248814   0.373   1.954  36.492  0.2307  0.3208  0.2532
 9108TIP3    H148815   0.336   1.866  36.495  0.7898  0.0541 -0.2970
 9108TIP3    H248816   0.400   1.972  36.582 -0.2399  0.0878  0.4435
 9109TIP3   OH248817   3.024   3.244   7.675  0.3204 -0.3648  0.4129
 9109TIP3    H148818   3.092   3.308   7.693 -0.3734  0.8359 -0.9924
 9109TIP3    H248819   3.019   3.191   7.754  1.2443  1.0329  1.4553
 9110TIP3   OH248820   1.020   3.527  19.321 -0.5383  0.1123  0.2185
 9110TIP3    H148821   1.051   3.514  19.231  0.1674  0.2197  0.4385
 9110TIP3    H248822   0.935   3.484  19.323 -0.0164 -0.9853 -0.1614
 9111TIP3   OH248823   4.204   0.912  37.231 -0.4821  0.3539  1.5595
 9111TIP3    H148824   4.134   0.890  37.292 -0.2571 -1.4028  1.2239
 9111TIP3    H248825   4.285   0.889  37.278 -0.1846  1.1183  1.4405
 9112TIP3   OH248826   0.408   1.500  39.825 -0.3859 -0.3512  0.7505
 9112TIP3    H148827   0.473   1.479  39.758 -1.3533  0.5283 -0.5047
 9112TIP3    H248828   0.325   1.469  39.789 -1.3538  2.4882  0.2813
 9113TIP3   OH248829   0.243   1.153   3.210 -0.1562  0.4936 -0.3753
 9113TIP3    H148830   0.223   1.221   3.274 -0.4094 -2.0846  2.5396
 9113TIP3    H248831   0.166   1.149   3.153  0.2725  3.1793 -1.2471
 9114TIP3   OH248832   2.511   2.184   5.665 -0.1242  0.3085 -0.0602
 9114TIP3    H148833   2.445   2.115   5.669  0.3338 -0.0802  2.5000
 9114TIP3    H248834   2.497   2.236   5.745  2.7730  0.0291  0.7416
 9115TIP3   OH248835   2.776   2.540   0.669 -0.4785 -0.2555 -1.0065
 9115TIP3    H148836   2.783   2.543   0.573  0.5722 -3.2066 -1.1606
 9115TIP3    H248837   2.804   2.626   0.698 -0.3333  0.5670 -3.3539
 9116TIP3   OH248838   4.120   3.286  35.753 -0.0051 -0.5608  1.0898
 9116TIP3    H148839   4.157   3.254  35.835  0.9769  0.0460  0.8966
 9116TIP3    H248840   4.127   3.381  35.758  0.3475 -0.5282  0.1849
 9117TIP3   OH248841   0.032   2.261   3.481 -0.1735  0.1017 -0.5695
 9117TIP3    H148842   0.060   2.266   3.390  1.4941  1.8752 -0.0352
 9117TIP3    H248843   0.065   2.342   3.520 -1.4916 -0.2680  1.4461
 9118TIP3   OH248844   3.053   2.332   1.243  0.0141  0.1641 -0.3967
 9118TIP3    H148845   3.100   2.409   1.212  0.5949  0.6242  1.4749
 9118TIP3    H248846   3.119   2.263   1.246  0.1194  0.2858  0.3345
 9119TIP3   OH248847   2.790   3.573   9.494  0.2572  0.3954  0.2255
 9119TIP3    H148848   2.743   3.631   9.554  0.1189 -1.1373  1.6754
 9119TIP3    H248849   2.871   3.552   9.541  0.4571 -0.3143 -0.4217
 9120TIP3   OH248850   1.078   3.847  31.713  0.6576  0.4985 -0.1573
 9120TIP3    H148851   1.066   3.757  31.743  0.6660  0.3087 -0.7115
 9120TIP3    H248852   1.013   3.897  31.761  0.1835  0.0849 -0.3651
 9121TIP3   OH248853   0.142   4.093  39.722  0.2119 -0.5845  0.1559
 9121TIP3    H148854   0.212   4.147  39.688 -1.8684  1.4804 -1.1461
 9121TIP3    H248855   0.120   4.034  39.650 -0.3018 -0.2473  0.0279
 9122TIP3   OH248856   4.183   2.917   7.749  0.2055 -0.2247  0.2952
 9122TIP3    H148857   4.126   2.894   7.675 -2.0474  1.9834  1.1775
 9122TIP3    H248858   4.130   2.978   7.801  1.7840 -1.4409  3.6026
 9123TIP3   OH248859   0.934   0.943   4.892 -0.0922 -0.6544  0.1445
 9123TIP3    H148860   0.869   0.895   4.841 -0.5087  1.2473 -1.2447
 9123TIP3    H248861   0.896   1.030   4.904  1.0441 -0.3219  1.6857
 9124TIP3   OH248862   0.110   0.178  28.930  0.0395 -0.1054  0.1093
 9124TIP3    H148863   0.077   0.205  29.015  0.4161  1.0492 -0.0870
 9124TIP3    H248864   0.035   0.186  28.871  0.0335  0.0769  0.1409
 9125TIP3   OH248865   2.466   0.863  26.857 -0.0292  0.2434 -0.1168
 9125TIP3    H148866   2.494   0.794  26.917 -0.4923  0.0931 -0.0689
 9125TIP3    H248867   2.487   0.944  26.902 -1.3785  0.1390  0.7389
 9126TIP3   OH248868   0.790   4.380  32.340  0.0484 -0.1531 -0.2247
 9126TIP3    H148869   0.852   4.415  32.404  0.1951 -0.0992 -0.3956
 9126TIP3    H248870   0.756   4.457  32.294 -0.9305 -0.0829  0.5663
 9127TIP3   OH248871   2.793   0.576  33.255 -0.5489  0.1028 -0.3730
 9127TIP3    H148872   2.781   0.481  33.251 -1.1573  0.1520  0.0681
 9127TIP3    H248873   2.705   0.610  33.268 -0.2114  0.6543  0.5798
 9128TIP3   OH248874   1.576   0.717  32.414 -0.2341  0.0352  0.4426
 9128TIP3    H148875   1.558   0.631  32.376 -0.0546  0.0656  0.2919
 9128TIP3    H248876   1.589   0.699  32.507 -2.4075  0.1734  0.8247
 9129TIP3   OH248877   2.990   1.913  39.699  0.4517  0.4808 -0.4473
 9129TIP3    H148878   2.906   1.955  39.719  0.1275 -0.0663 -0.6495
 9129TIP3    H248879   2.984   1.891  39.606  0.9563  0.7436 -0.5475
 9130TIP3   OH248880   2.638   0.625   4.171 -0.0183  0.0679 -0.3194
 9130TIP3    H148881   2.674   0.687   4.235  1.2692  0.4375 -1.3408
 9130TIP3    H248882   2.603   0.553   4.224  1.3234  0.1929  0.8029
 9131TIP3   OH248883   3.132   0.534  37.050  0.0882  0.6385  0.0553
 9131TIP3    H148884   3.093   0.480  37.119 -0.5102  0.5402 -0.3596
 9131TIP3    H248885   3.211   0.486  37.025  0.9155  1.2125  1.4225
 9132TIP3   OH248886   2.884   2.802   8.985 -0.6162  0.2057 -0.0754
 9132TIP3    H148887   2.875   2.791   9.080  0.9246 -0.3512  0.0292
 9132TIP3    H248888   2.978   2.808   8.971 -0.8640  1.0846 -1.5013
 9133TIP3   OH248889   0.347   1.791  39.662 -0.1226  0.0838 -0.1038
 9133TIP3    H148890   0.294   1.869  39.650 -0.4324 -0.2608 -1.0836
 9133TIP3    H248891   0.343   1.773  39.756  1.8383  2.5236  0.5555
 9134TIP3   OH248892   4.140   1.326  35.198 -0.5555  0.2884 -0.1332
 9134TIP3    H148893   4.164   1.234  35.202 -0.1763  0.3104 -1.5238
 9134TIP3    H248894   4.078   1.338  35.270  0.4750 -0.7090  0.9631
 9135TIP3   OH248895   0.084   2.047  38.594  0.6375 -0.3410  0.3228
 9135TIP3    H148896   0.097   2.065  38.687 -1.1263 -0.7969  0.7056
 9135TIP3    H248897   0.012   2.104  38.569  0.5326 -0.8364 -0.5396
 9136TIP3   OH248898   1.796   1.326  37.181 -0.6454 -0.1255  0.0324
 9136TIP3    H148899   1.782   1.285  37.266 -3.7790  0.3543 -0.1319
 9136TIP3    H248900   1.752   1.411  37.188  0.1350  0.4686 -1.6779
 9137TIP3   OH248901   3.119   1.824   8.402 -0.2808  0.2134 -0.2010
 9137TIP3    H148902   3.082   1.761   8.464 -0.6688  0.9923  0.3720
 9137TIP3    H248903   3.194   1.779   8.364 -1.0896 -0.9437 -0.4879
 9138TIP3   OH248904   0.113   0.126   1.788 -0.5701  0.1708 -0.3396
 9138TIP3    H148905   0.122   0.206   1.737  2.8217  0.2983  0.2145
 9138TIP3    H248906   0.104   0.156   1.878 -1.7688 -0.0852 -0.3628
 9139TIP3   OH248907   1.555   0.530  10.920 -0.5853 -0.1934  0.0469
 9139TIP3    H148908   1.505   0.608  10.942  0.1409  0.2958 -0.0190
 9139TIP3    H248909   1.501   0.485  10.855 -0.7297  0.5706 -0.3743
 9140TIP3   OH248910   1.926   0.083   6.811 -0.1874 -0.0960  0.1595
 9140TIP3    H148911   1.982   0.046   6.743 -0.6175 -0.7165  0.1389
 9140TIP3    H248912   1.956   0.042   6.892 -1.1594 -1.0924  0.0384
 9141TIP3   OH248913   2.105   0.057   6.615 -0.0480  0.4097 -0.3609
 9141TIP3    H148914   2.107  -0.035   6.589 -3.6721  0.4929 -1.5287
 9141TIP3    H248915   2.153   0.103   6.546  0.2093 -0.4445 -0.7642
 9142TIP3   OH248916   0.370   0.254  32.196 -0.6872  0.3147 -0.2020
 9142TIP3    H148917   0.358   0.172  32.243  0.9313  0.1323 -0.0688
 9142TIP3    H248918   0.306   0.314  32.236 -0.5652 -0.3331  1.0082
 9143TIP3   OH248919   3.332   1.928  10.044  0.4957 -0.6763  0.0262
 9143TIP3    H148920   3.362   1.973  10.123  0.7462 -1.1561  0.2067
 9143TIP3    H248921   3.341   1.993   9.974 -0.8989  0.1638  0.5886
 9144TIP3   OH248922   4.075   4.352   0.159 -0.0811  0.0859  0.6470
 9144TIP3    H148923   4.110   4.404   0.087 -0.7443  0.0419  0.2805
 9144TIP3    H248924   4.108   4.264   0.143  2.2359  0.6243  2.0615
 9145TIP3   OH248925   2.816   2.666  36.210  0.3213 -0.1508 -0.0903
 9145TIP3    H148926   2.730   2.681  36.170  0.4495 -2.9459 -1.7050
 9145TIP3    H248927   2.873   2.647  36.135  1.7100 -0.9209  1.1235
 9146TIP3   OH248928   3.689   3.539  28.377 -0.1224  0.2243 -0.2459
 9146TIP3    H148929   3.688   3.448  28.405 -3.3489  0.1636 -0.2552
 9146TIP3    H248930   3.764   3.544  28.317  0.9981 -2.0126  0.8420
 9147TIP3   OH248931   2.877   2.605  34.536 -0.8944  0.0357  0.4783
 9147TIP3    H148932   2.804   2.649  34.492  0.4118  0.1573 -1.6573
 9147TIP3    H248933   2.920   2.555  34.467  1.8127  0.9606  1.4035
 9148TIP3   OH248934   4.223   0.444   9.906  0.0668  0.6180  0.4805
 9148TIP3    H148935   4.153   0.379   9.917 -0.5189  1.3608  1.2196
 9148TIP3    H248936   4.297   0.393   9.871 -0.3190 -0.4743  1.1912
 9149TIP3   OH248937   4.212   0.302  10.614  0.0104 -0.8116 -0.1183
 9149TIP3    H148938   4.211   0.331  10.705  1.1285 -1.0966  0.0006
 9149TIP3    H248939   4.165   0.370  10.566  2.2381  1.0636  0.1965
 9150TIP3   OH248940   0.964   1.591  33.793  0.6241 -0.0189 -0.2385
 9150TIP3    H148941   0.956   1.686  33.803  0.4070 -0.2476  2.5958
 9150TIP3    H248942   1.059   1.576  33.787  0.9666  0.2311  2.8874
 9151TIP3   OH248943   3.222   1.869   1.408  0.0946 -0.2853 -0.5085
 9151TIP3    H148944   3.194   1.952   1.370  0.0252 -0.1010 -0.0616
 9151TIP3    H248945   3.226   1.808   1.334 -3.9240 -1.0313 -0.3494
 9152TIP3   OH248946   4.222   3.301   4.902  0.2319 -0.4474  0.3482
 9152TIP3    H148947   4.175   3.361   4.843  0.3277 -0.8634 -0.1531
 9152TIP3    H248948   4.156   3.272   4.964  0.1928  0.2148  0.6262
 9153TIP3   OH248949   0.876   1.955  39.199 -0.3340 -0.3412  0.3734
 9153TIP3    H148950   0.921   1.984  39.279  0.7878 -2.2383  0.4899
 9153TIP3    H248951   0.838   2.035  39.163 -0.5971  0.6337  2.6172
 9154TIP3   OH248952   1.913   3.598  10.076 -0.0979  0.7120 -0.0395
 9154TIP3    H148953   1.860   3.591  10.155  1.7119  1.7540  1.3335
 9154TIP3    H248954   1.990   3.543  10.094  0.1623  0.6607 -1.2453
 9155TIP3   OH248955   0.543   3.386   9.612 -0.6771  0.1218  0.1325
 9155TIP3    H148956   0.602   3.460   9.628 -0.9577  0.9432 -2.2200
 9155TIP3    H248957   0.602   3.310   9.604 -0.3171  0.2050  1.7402
 9156TIP3   OH248958   3.850   0.204  38.126 -0.4027  0.0144  0.7458
 9156TIP3    H148959   3.810   0.276  38.079 -1.7547 -0.5696  0.9565
 9156TIP3    H248960   3.942   0.230  38.136 -0.5456  1.0517 -0.4006
 9157TIP3   OH248961   4.256   2.686  35.913  0.0760  0.5578 -0.3427
 9157TIP3    H148962   4.226   2.662  35.826 -1.2307 -0.4518  0.3467
 9157TIP3    H248963   4.261   2.603  35.961  0.5303  1.1165  0.6161
 9158TIP3   OH248964   3.155   2.447  27.476  0.0821 -0.0964  0.4730
 9158TIP3    H148965   3.133   2.470  27.567 -0.6395 -0.8889  0.5082
 9158TIP3    H248966   3.185   2.357  27.481 -1.2701 -0.6158 -0.2493
 9159TIP3   OH248967   3.287   3.787   8.257 -0.3689 -0.3818 -0.4886
 9159TIP3    H148968   3.306   3.861   8.198 -0.5305 -0.5292 -0.7293
 9159TIP3    H248969   3.203   3.754   8.226 -1.2071  0.4800  0.7837
 9160TIP3   OH248970   2.686   0.062  11.123  0.6399 -0.2009  0.1957
 9160TIP3    H148971   2.769   0.098  11.154  0.2842  0.9985 -0.1807
 9160TIP3    H248972   2.651   0.129  11.064  0.6273 -1.7880 -1.7163
 9161TIP3   OH248973   1.596   2.744  10.380  0.2931 -0.2632  0.1652
 9161TIP3    H148974   1.690   2.734  10.362  0.5746 -0.3958  1.6107
 9161TIP3    H248975   1.560   2.778  10.298  2.1206  2.7195  0.4440
 9162TIP3   OH248976   0.707   2.799   6.244 -0.2010 -0.2707  0.6897
 9162TIP3    H148977   0.612   2.811   6.245  0.0718  2.2095  0.7977
 9162TIP3    H248978   0.739   2.848   6.319  1.5298  3.1377 -2.0082
 9163TIP3   OH248979   2.918   2.835  10.812 -0.0847  0.1575  0.6264
 9163TIP3    H148980   2.899   2.911  10.757  0.1141  0.5143  1.0452
 9163TIP3    H248981   3.013   2.828  10.812 -0.1116 -0.2490  0.3850
 9164TIP3   OH248982   1.859   0.681  15.373  0.0830  0.0705 -1.3112
 9164TIP3    H148983   1.887   0.685  15.464 -0.5587  1.0233 -1.1468
 9164TIP3    H248984   1.795   0.609  15.370  0.3630 -0.1896 -1.0929
 9165TIP3   OH248985   1.021   3.738   5.072  0.1884  0.3048  0.7922
 9165TIP3    H148986   1.110   3.768   5.091  0.8084 -0.7375 -0.3212
 9165TIP3    H248987   1.021   3.724   4.977 -0.8225 -0.7888  0.9369
 9166TIP3   OH248988   2.209   0.926   0.257 -0.0350 -0.2905 -0.1918
 9166TIP3    H148989   2.204   1.020   0.241  0.9976 -0.0038  1.0706
 9166TIP3    H248990   2.161   0.913   0.339 -0.0591 -0.8601 -0.2897
 9167TIP3   OH248991   3.070   2.707  30.719 -0.3717 -0.0451 -0.1475
 9167TIP3    H148992   3.165   2.703  30.729 -0.5494 -2.4427  1.2792
 9167TIP3    H248993   3.056   2.774  30.652  2.2743  0.6755 -0.0940
 9168TIP3   OH248994   1.803   2.905   0.490  0.4134 -0.4959 -0.2846
 9168TIP3    H148995   1.720   2.943   0.462 -0.5259 -2.0489  0.2814
 9168TIP3    H248996   1.867   2.939   0.428 -0.8913 -0.4001 -1.6209
 9169TIP3   OH248997   3.447   2.501  38.075 -0.3928  0.2013 -0.1479
 9169TIP3    H148998   3.495   2.453  38.143  2.0537 -0.0560 -1.9434
 9169TIP3    H248999   3.407   2.575  38.122 -1.0557 -1.4043  1.9949
 9170TIP3   OH249000   2.459   0.234  10.223  0.0508 -0.2403  0.1725
 9170TIP3    H149001   2.379   0.271  10.186  0.1745 -0.6642 -0.5485
 9170TIP3    H249002   2.520   0.308  10.226 -0.2382 -0.0074  0.3335
 9171TIP3   OH249003   1.640   0.261   5.394  0.1476 -0.0797  0.0098
 9171TIP3    H149004   1.655   0.264   5.299  0.6660 -2.6975 -0.0724
 9171TIP3    H249005   1.717   0.216   5.429 -1.1469 -1.3401  1.3559
 9172TIP3   OH249006   0.321   2.728  26.990  0.0521  0.1073  0.9773
 9172TIP3    H149007   0.356   2.812  27.021  0.7218  0.2204 -0.0267
 9172TIP3    H249008   0.329   2.669  27.066  0.3061  0.7379  1.4488
 9173TIP3   OH249009   1.235   3.022  30.270  0.1761 -0.4831  0.2015
 9173TIP3    H149010   1.244   3.009  30.176  1.2559 -0.3346  0.2664
 9173TIP3    H249011   1.325   3.019  30.303 -0.0138  1.1643  0.9977
 9174TIP3   OH249012   3.577   4.346   4.403  0.1543  0.1005 -0.5474
 9174TIP3    H149013   3.635   4.338   4.327 -1.5012 -0.7657 -1.7709
 9174TIP3    H249014   3.558   4.440   4.409 -0.5977  0.0584 -1.9335
 9175TIP3   OH249015   3.955   0.198  41.048  0.3577 -0.0738  0.4615
 9175TIP3    H149016   3.968   0.141  40.972  0.1358 -0.0566  0.4095
 9175TIP3    H249017   3.885   0.156  41.098  0.8660 -0.3714  0.9365
 9176TIP3   OH249018   2.245   1.548  40.479 -0.6752 -0.4380 -0.7964
 9176TIP3    H149019   2.163   1.556  40.431 -2.2551 -1.4790  1.5401
 9176TIP3    H249020   2.256   1.453  40.491 -1.0169 -0.2220  1.8341
 9177TIP3   OH249021   3.264   2.560   3.534 -0.1233 -0.3069  0.5501
 9177TIP3    H149022   3.202   2.621   3.493 -1.0645 -1.0725  0.8042
 9177TIP3    H249023   3.342   2.614   3.551 -0.0883  0.2808 -1.2512
 9178TIP3   OH249024   4.214   2.325   5.850 -0.3589  0.4689 -0.2802
 9178TIP3    H149025   4.241   2.409   5.885 -0.1450  0.4201 -0.3269
 9178TIP3    H249026   4.245   2.261   5.913  0.4799  0.3433 -0.8026
 9179TIP3   OH249027   2.950   3.704  12.107 -0.4234  0.7926 -0.4442
 9179TIP3    H149028   3.000   3.691  12.187 -0.0484 -0.7219 -0.8767
 9179TIP3    H249029   2.923   3.796  12.109  1.2348  1.2957  0.4528
 9180TIP3   OH249030   3.465   4.098  39.824  0.3912 -0.1750  0.0403
 9180TIP3    H149031   3.538   4.051  39.784 -0.2269 -1.4793  0.3810
 9180TIP3    H249032   3.405   4.114  39.751 -0.2103 -1.5378  0.1983
 9181TIP3   OH249033   3.465   0.652   6.451 -0.3830 -0.2533 -0.5493
 9181TIP3    H149034   3.445   0.597   6.527 -1.0928  0.3973 -0.2508
 9181TIP3    H249035   3.413   0.731   6.465  1.1611  0.7952 -0.6262
 9182TIP3   OH249036   2.223   2.480  37.854 -0.1781 -0.2211 -0.1748
 9182TIP3    H149037   2.181   2.546  37.910  0.7301  0.3317 -0.1255
 9182TIP3    H249038   2.291   2.528  37.807  0.8946 -1.2282  0.2874
 9183TIP3   OH249039   2.836   2.876   6.672 -0.3435  0.2171 -0.1845
 9183TIP3    H149040   2.890   2.815   6.623  0.8035  1.3292 -0.3645
 9183TIP3    H249041   2.832   2.954   6.617 -0.5769  0.8166  0.6597
 9184TIP3   OH249042   2.728   2.812  37.645 -0.1364  0.0717  0.1599
 9184TIP3    H149043   2.673   2.821  37.567  1.9664  0.0061 -1.4133
 9184TIP3    H249044   2.783   2.890  37.646  0.7412 -0.5209  0.8530
 9185TIP3   OH249045   0.902   0.429  13.601 -0.1424  0.2395 -0.0676
 9185TIP3    H149046   0.873   0.491  13.667 -1.4591 -1.3780  0.9551
 9185TIP3    H249047   0.850   0.451  13.523 -0.3337  0.6382  0.1729
 9186TIP3   OH249048   0.553   1.960   1.784 -0.3726  0.4127 -0.0668
 9186TIP3    H149049   0.468   1.988   1.750 -0.4659  0.1318 -0.0711
 9186TIP3    H249050   0.604   1.937   1.707 -0.1959  0.8398 -0.0811
 9187TIP3   OH249051   0.434   2.623  10.013  0.2298 -0.5119  0.4616
 9187TIP3    H149052   0.519   2.609   9.972 -0.5196  1.5097 -2.0470
 9187TIP3    H249053   0.374   2.567   9.964 -0.5751  1.4450 -0.9090
 9188TIP3   OH249054   3.410   1.049  30.294  0.4473 -0.7560  0.2657
 9188TIP3    H149055   3.333   1.077  30.244 -0.1965 -1.0725  1.0620
 9188TIP3    H249056   3.482   1.052  30.230 -0.4570 -1.6952 -0.8539
 9189TIP3   OH249057   0.540   3.294  36.080 -0.3099 -0.1334  0.0066
 9189TIP3    H149058   0.624   3.258  36.108 -0.2446 -0.1480 -0.2133
 9189TIP3    H249059   0.562   3.359  36.013 -0.4899 -0.3203 -0.2376
 9190TIP3   OH249060   3.458   2.344  28.935 -0.3539  0.1245 -0.5325
 9190TIP3    H149061   3.454   2.406  29.007  1.1226  0.6207 -0.8525
 9190TIP3    H249062   3.497   2.394  28.863  0.4906 -1.0674 -0.9139
 9191TIP3   OH249063   4.131   1.870   3.975 -0.2147 -0.2927 -0.5829
 9191TIP3    H149064   4.079   1.950   3.965  1.9029  1.3495  0.5865
 9191TIP3    H249065   4.222   1.899   3.965  0.6787 -2.4602  0.4893
 9192TIP3   OH249066   3.464   0.854   2.757 -0.3913 -0.2990 -0.2827
 9192TIP3    H149067   3.412   0.934   2.760 -2.8601 -1.7929 -0.2209
 9192TIP3    H249068   3.404   0.785   2.786  1.2336 -2.3584 -1.4772
 9193TIP3   OH249069   3.659   3.470  31.180 -0.0282  0.0548 -0.2342
 9193TIP3    H149070   3.629   3.414  31.109 -0.2595  0.0692 -0.1467
 9193TIP3    H249071   3.698   3.410  31.243 -0.2231 -0.0023 -0.1684
 9194TIP3   OH249072   4.259   1.489  40.339 -0.4750 -0.4022  0.2021
 9194TIP3    H149073   4.275   1.579  40.310  0.4576 -0.4117  0.6811
 9194TIP3    H249074   4.255   1.438  40.257 -0.3985 -0.0264 -0.0385
 9195TIP3   OH249075   0.892   2.948  28.506 -0.4037  0.4738 -0.4432
 9195TIP3    H149076   0.967   2.920  28.454  0.2605 -1.2400  1.3047
 9195TIP3    H249077   0.869   3.034  28.472  1.9544  0.7720 -1.4315
 9196TIP3   OH249078   0.155   0.673  23.867 -0.1029  0.7966 -0.0632
 9196TIP3    H149079   0.146   0.642  23.957 -2.3188 -0.4293 -0.6340
 9196TIP3    H249080   0.176   0.595  23.816  1.6201  1.5507 -0.6097
 9197TIP3   OH249081   2.021   2.242   4.396 -0.0696 -0.4071 -0.2121
 9197TIP3    H149082   2.059   2.321   4.434 -1.0759  0.3855 -0.8043
 9197TIP3    H249083   1.961   2.209   4.463 -1.0944  0.4360 -0.6720
 9198TIP3   OH249084   3.246   3.048   4.883 -0.0413  0.2124  0.0634
 9198TIP3    H149085   3.176   3.010   4.830 -1.0614  1.4300  0.4742
 9198TIP3    H249086   3.209   3.055   4.971  0.6600  0.7025  0.3321
 9199TIP3   OH249087   1.653   1.657  33.947 -0.0056  0.0405  0.0214
 9199TIP3    H149088   1.612   1.697  34.023 -0.6853 -0.9349  0.1799
 9199TIP3    H249089   1.689   1.731  33.897 -0.0460  0.7235  0.9914
 9200TIP3   OH249090   2.378   2.230  35.390 -0.0426 -0.1844  0.2283
 9200TIP3    H149091   2.300   2.175  35.396  1.1028 -1.8458  0.7176
 9200TIP3    H249092   2.443   2.175  35.346  0.5107  1.5882 -1.2860
 9201TIP3   OH249093   1.183   0.586  31.765  0.1143  0.2589  0.3755
 9201TIP3    H149094   1.118   0.638  31.812 -1.4851 -1.2302 -0.1118
 9201TIP3    H249095   1.203   0.513  31.824 -0.6763 -0.7243 -0.5372
 9202TIP3   OH249096   1.473   3.195   0.165  0.2642  0.3868  0.0591
 9202TIP3    H149097   1.405   3.195   0.097  0.4310  1.2494 -0.1226
 9202TIP3    H249098   1.545   3.145   0.128  0.2733  0.6762 -0.3181
 9203TIP3   OH249099   2.113   0.966   6.946 -0.7748 -1.0633  0.1784
 9203TIP3    H149100   2.069   1.002   7.023  0.2973 -1.4363  0.9810
 9203TIP3    H249101   2.203   0.950   6.974 -0.2815 -0.9479 -1.2308
 9204TIP3   OH249102   1.134   0.586  30.772 -0.8761 -0.5395 -0.3182
 9204TIP3    H149103   1.222   0.548  30.780 -0.7768 -0.1442  0.7728
 9204TIP3    H249104   1.150   0.674  30.738 -0.7477 -0.1519  0.6985
 9205TIP3   OH249105   2.926   0.849   9.669 -0.0821  0.6614  0.2166
 9205TIP3    H149106   2.920   0.759   9.637  2.3088  1.1525 -1.9795
 9205TIP3    H249107   2.904   0.843   9.762  0.5127 -2.2783  0.2728
 9206TIP3   OH249108   1.991   3.980  39.568  0.2105 -0.1031 -1.0421
 9206TIP3    H149109   2.044   3.930  39.631  1.1953  0.2827 -1.5425
 9206TIP3    H249110   1.947   4.046  39.621  1.3999  0.5219 -0.7955
 9207TIP3   OH249111   4.318   3.525   5.043 -0.4250 -0.4878  0.0333
 9207TIP3    H149112   4.306   3.444   4.994  0.5948 -0.8254  0.3165
 9207TIP3    H249113   4.344   3.496   5.131  2.4882  0.1199 -0.5434
 9208TIP3   OH249114   2.030   0.452  13.907  0.4857 -0.5701 -0.4495
 9208TIP3    H149115   2.065   0.364  13.918  0.6968 -0.1279  4.4740
 9208TIP3    H249116   2.107   0.509  13.907  0.2506 -0.2185 -1.7455
 9209TIP3   OH249117   2.891   2.671   7.916 -0.0287  0.4456  0.1974
 9209TIP3    H149118   2.797   2.666   7.932 -0.0557 -0.8222 -0.2421
 9209TIP3    H249119   2.921   2.746   7.968 -0.8414 -0.7396  2.5278
 9210TIP3   OH249120   4.011   1.633  26.499 -0.0538  0.1627  0.2169
 9210TIP3    H149121   4.102   1.602  26.504 -0.3231 -1.0575 -1.5002
 9210TIP3    H249122   4.005   1.675  26.413 -0.7659  1.5369  0.9072
 9211TIP3   OH249123   4.195   1.051  34.510 -0.2075  0.2398  0.4201
 9211TIP3    H149124   4.171   0.970  34.465  0.0160 -0.0293  0.7911
 9211TIP3    H249125   4.252   1.024  34.581  1.7440  0.9234 -0.7981
 9212TIP3   OH249126   4.232   2.264   5.096  0.6848 -0.5523  0.5696
 9212TIP3    H149127   4.257   2.350   5.127  0.5044  1.0889 -3.2627
 9212TIP3    H249128   4.136   2.266   5.093  0.6534 -1.1223  1.0300
 9213TIP3   OH249129   1.131   0.011  18.544 -0.3048  0.0494 -0.0209
 9213TIP3    H149130   1.169  -0.077  18.548 -0.7512 -0.1332  0.4890
 9213TIP3    H249131   1.058   0.008  18.607 -0.0369  0.9225  0.3548
 9214TIP3   OH249132   4.104   0.035  31.804 -0.6618 -0.3189 -0.2670
 9214TIP3    H149133   4.194   0.055  31.830 -0.6794  0.1196 -0.5245
 9214TIP3    H249134   4.079   0.108  31.747 -0.9061 -0.8413 -0.8375
 9215TIP3   OH249135   1.072   3.888  13.711  0.2497 -0.5989  0.1337
 9215TIP3    H149136   1.052   3.941  13.789 -0.9057 -1.9251  0.7758
 9215TIP3    H249137   1.013   3.813  13.717  1.0001 -1.3555 -1.3969
 9216TIP3   OH249138   1.222   0.755   0.554  0.9833  0.1810 -0.1194
 9216TIP3    H149139   1.314   0.781   0.548  0.8217  1.1726  1.1048
 9216TIP3    H249140   1.190   0.800   0.633 -0.8181  0.7167 -1.0856
 9217TIP3   OH249141   4.192   3.615   2.419  0.5463 -0.2090  0.0803
 9217TIP3    H149142   4.117   3.655   2.376  1.0328 -1.1101 -1.6810
 9217TIP3    H249143   4.265   3.675   2.402  0.2267  0.8563  2.1021
 9218TIP3   OH249144   3.666   2.707  28.604  0.1206 -0.3467 -0.0286
 9218TIP3    H149145   3.656   2.763  28.527 -0.4667 -0.1152  0.2125
 9218TIP3    H249146   3.700   2.764  28.672  0.6213 -0.5479 -0.1053
 9219TIP3   OH249147   3.712   1.359   0.306 -0.6308 -0.3596  0.1436
 9219TIP3    H149148   3.653   1.415   0.256  1.6865  3.2589  1.1332
 9219TIP3    H249149   3.798   1.372   0.266  0.0379 -3.7514  0.1142
 9220TIP3   OH249150   1.673   2.379  41.395 -0.2879  0.1902  0.3576
 9220TIP3    H149151   1.676   2.443  41.466 -1.5523  0.4329  0.2206
 9220TIP3    H249152   1.610   2.313  41.424 -0.7829  0.2643 -0.4913
 9221TIP3   OH249153   0.604   0.189   3.247 -0.3070  0.6486 -0.1397
 9221TIP3    H149154   0.561   0.254   3.302 -0.6678  0.3575 -0.0746
 9221TIP3    H249155   0.689   0.228   3.226  0.0095  0.5953  0.9586
 9222TIP3   OH249156   3.522   3.309   2.237 -0.0906  0.4846  0.0812
 9222TIP3    H149157   3.516   3.214   2.236 -0.1962  0.4914 -0.1117
 9222TIP3    H249158   3.576   3.331   2.161 -1.0888  0.6338 -0.6081
 9223TIP3   OH249159   1.716   3.066   2.083  0.2714  0.1332 -0.4971
 9223TIP3    H149160   1.752   3.106   2.003  1.3899 -1.1948 -0.6941
 9223TIP3    H249161   1.770   3.101   2.154  0.4625 -0.0683 -0.5392
 9224TIP3   OH249162   4.220   4.003  40.842  0.2500 -0.4075  0.0595
 9224TIP3    H149163   4.298   4.050  40.811  0.6358 -1.3544 -0.4713
 9224TIP3    H249164   4.146   4.049  40.802  0.4650  1.0059  1.2297
 9225TIP3   OH249165   1.299   2.644  12.638 -0.4672 -0.0332  0.2336
 9225TIP3    H149166   1.288   2.561  12.591 -1.5246  0.0203  0.3450
 9225TIP3    H249167   1.251   2.708  12.585  0.3889  0.5268  0.1201
 9226TIP3   OH249168   0.177   1.073   7.490  0.6634 -0.0365  0.1371
 9226TIP3    H149169   0.096   1.123   7.479 -0.2564 -1.3161  0.9406
 9226TIP3    H249170   0.222   1.082   7.405 -1.3759 -1.1644 -1.1257
 9227TIP3   OH249171   4.334   1.195  10.170  0.3224  0.1425  0.8353
 9227TIP3    H149172   4.242   1.173  10.157  0.7563 -2.5295  1.6820
 9227TIP3    H249173   4.333   1.282  10.209 -1.6671  1.3319 -1.5862
 9228TIP3   OH249174   0.816   1.754  30.483 -0.5503 -0.1796 -0.0449
 9228TIP3    H149175   0.833   1.763  30.576 -0.6543 -2.3884  0.2356
 9228TIP3    H249176   0.771   1.670  30.474 -4.5258  1.8401 -1.6121
 9229TIP3   OH249177   2.314   1.156  34.154 -1.3727  0.8806  0.4105
 9229TIP3    H149178   2.343   1.160  34.064 -1.8913 -1.0461  0.1100
 9229TIP3    H249179   2.225   1.119  34.149 -1.3005  0.4702  1.7120
 9230TIP3   OH249180   2.434   2.292  35.643  0.6127 -0.1988 -0.8138
 9230TIP3    H149181   2.428   2.288  35.548  0.4861 -1.5476 -0.7658
 9230TIP3    H249182   2.393   2.211  35.674  1.1729 -0.0614  0.3661
 9231TIP3   OH249183   2.677   0.043   9.473  0.2562 -0.3376  0.0298
 9231TIP3    H149184   2.641   0.122   9.433  0.2097 -0.4039 -0.0596
 9231TIP3    H249185   2.742   0.012   9.410 -0.4693 -0.9588 -0.4286
 9232TIP3   OH249186   1.109   3.337  40.236  0.4193 -0.6715  0.9355
 9232TIP3    H149187   1.069   3.422  40.254 -0.7057 -0.7139 -1.0141
 9232TIP3    H249188   1.197   3.357  40.206 -0.1610 -0.0563 -0.4774
 9233TIP3   OH249189   3.916   4.209   9.028 -0.1402 -0.2978  0.1449
 9233TIP3    H149190   4.000   4.168   9.047 -1.6061 -3.1633  0.9718
 9233TIP3    H249191   3.927   4.300   9.054  2.5647 -0.6902  0.5899
 9234TIP3   OH249192   1.666   3.524   4.863  0.0609  0.2964  0.1544
 9234TIP3    H149193   1.652   3.441   4.909 -0.3413  0.3026  0.0524
 9234TIP3    H249194   1.717   3.501   4.786  3.5085  0.7167  2.1440
 9235TIP3   OH249195   1.905   0.267  37.661  0.1138  0.4466 -0.6247
 9235TIP3    H149196   1.885   0.360  37.653 -0.2026  0.3282 -1.1893
 9235TIP3    H249197   1.907   0.252  37.756 -2.1861  0.5201 -0.5284
 9236TIP3   OH249198   2.215   3.665  12.566 -0.4747  0.5217  0.1548
 9236TIP3    H149199   2.242   3.749  12.528 -0.1592 -0.2844 -1.4435
 9236TIP3    H249200   2.294   3.611  12.564 -1.2429 -0.6192 -1.1365
 9237TIP3   OH249201   3.201   1.798   6.227  0.2900  0.2566  0.0517
 9237TIP3    H149202   3.287   1.830   6.200 -0.3055  2.3737  0.4790
 9237TIP3    H249203   3.193   1.824   6.318 -0.6600 -0.2806  0.1415
 9238TIP3   OH249204   3.064   4.258  13.761 -0.3217 -0.0521  0.7193
 9238TIP3    H149205   2.969   4.273  13.765 -0.3853 -0.6207  1.8035
 9238TIP3    H249206   3.099   4.312  13.832  0.3822  1.5247 -0.7630
 9239TIP3   OH249207   1.863   0.319  10.012 -0.4055  0.7345  0.0778
 9239TIP3    H149208   1.787   0.303  10.068 -0.1103 -0.9406  0.0418
 9239TIP3    H249209   1.852   0.259   9.938  1.3139 -0.1160  0.4584
 9240TIP3   OH249210   0.204   4.276  33.762  0.2135  0.8876  0.5150
 9240TIP3    H149211   0.178   4.244  33.676  0.4351 -0.4149  0.9135
 9240TIP3    H249212   0.165   4.214  33.824  2.5044  0.0445  1.2145
 9241TIP3   OH249213   0.532   0.884  10.949  0.4206  0.5889 -0.3016
 9241TIP3    H149214   0.517   0.937  10.871 -0.4821  0.2945 -0.3444
 9241TIP3    H249215   0.590   0.936  11.003 -1.2995  2.1254  0.1572
 9242TIP3   OH249216   3.193   0.336  29.527  0.2868  0.3224 -0.2779
 9242TIP3    H149217   3.213   0.390  29.451 -1.5870 -0.7287 -1.6140
 9242TIP3    H249218   3.097   0.341  29.535  0.3412 -0.4974  1.3379
 9243TIP3   OH249219   0.323   1.773   7.825 -0.0187 -0.2128 -0.6839
 9243TIP3    H149220   0.337   1.798   7.734  1.9339 -2.1406 -0.9990
 9243TIP3    H249221   0.299   1.681   7.821 -0.1241 -0.2671  0.7479
 9244TIP3   OH249222   3.913   1.618  35.499  0.6574 -0.2851  0.2838
 9244TIP3    H149223   3.879   1.700  35.463  2.7398 -0.3727 -2.1748
 9244TIP3    H249224   3.984   1.645  35.557  0.2398 -0.3042  0.8063
 9245TIP3   OH249225   4.253   1.722  34.470  0.0532  0.0592 -0.5849
 9245TIP3    H149226   4.238   1.669  34.548  0.5522  1.8541  0.7940
 9245TIP3    H249227   4.335   1.688  34.433 -0.7450 -1.5112 -0.9882
 9246TIP3   OH249228   4.364   0.970  27.642  0.3144  0.0471  0.2647
 9246TIP3    H149229   4.337   0.898  27.699  1.1790 -0.8406 -0.4254
 9246TIP3    H249230   4.394   0.928  27.562 -0.9016  1.2769 -0.8961
 9247TIP3   OH249231   1.149   3.294  33.136 -0.0858 -0.2725  0.3609
 9247TIP3    H149232   1.194   3.285  33.220  0.0258 -1.6849  0.1687
 9247TIP3    H249233   1.188   3.373  33.097  1.7792 -1.0620  0.4866
 9248TIP3   OH249234   4.062   1.563  33.364 -0.1707 -0.2126  0.0676
 9248TIP3    H149235   4.140   1.607  33.400 -1.2047  0.4024  1.6737
 9248TIP3    H249236   4.078   1.470  33.380  0.1548 -0.0761  0.5820
 9249TIP3   OH249237   3.611   0.804   2.532 -0.2841 -0.2219  0.1576
 9249TIP3    H149238   3.571   0.828   2.616 -1.4354 -1.2149 -0.0821
 9249TIP3    H249239   3.549   0.744   2.492  1.2761 -1.5176 -0.4363
 9250TIP3   OH249240   1.164   2.190   5.769  0.0989  0.0987  0.0663
 9250TIP3    H149241   1.156   2.264   5.829  0.2075  0.0384  0.1535
 9250TIP3    H249242   1.248   2.150   5.790  1.1790  1.3483 -1.5372
 9251TIP3   OH249243   2.513   0.780  37.603  0.4474  0.6843 -0.3349
 9251TIP3    H149244   2.480   0.769  37.692  3.4937 -1.2928  0.7095
 9251TIP3    H249245   2.457   0.724  37.550 -0.2625  0.4210  0.6538
 9252TIP3   OH249246   0.101   0.551  37.208 -0.4805  0.2109  0.2527
 9252TIP3    H149247   0.196   0.547  37.198 -0.7232 -0.9203 -2.7217
 9252TIP3    H249248   0.078   0.468  37.250 -0.1611  0.5963  1.2098
 9253TIP3   OH249249   3.111   1.353  11.011  0.2550 -0.6376  0.0332
 9253TIP3    H149250   3.113   1.281  10.948  0.6957 -0.2168 -0.4340
 9253TIP3    H249251   3.175   1.416  10.979  0.4348 -0.3792  0.8603
 9254TIP3   OH249252   3.565   4.215  31.715  0.6698 -0.2753  0.0337
 9254TIP3    H149253   3.555   4.247  31.805  1.9833  1.3260 -0.3452
 9254TIP3    H249254   3.476   4.214  31.680  0.1642 -0.7320  1.2711
 9255TIP3   OH249255   0.071   2.143  41.346  0.0289 -0.2979  0.4260
 9255TIP3    H149256   0.151   2.189  41.319 -0.9344  0.2558 -1.6493
 9255TIP3    H249257   0.014   2.211  41.381  0.1375 -0.5828  1.1937
 9256TIP3   OH249258   3.012   0.184  29.783 -0.1283  0.2173 -0.3369
 9256TIP3    H149259   3.062   0.103  29.798  0.4325  0.3981 -1.1308
 9256TIP3    H249260   2.989   0.180  29.690 -1.9615 -0.0503  0.1015
 9257TIP3   OH249261   1.675   1.665  11.210 -0.4805  0.1799 -0.2140
 9257TIP3    H149262   1.753   1.623  11.174  1.1666  0.5648  2.6064
 9257TIP3    H249263   1.657   1.737  11.150  1.1070 -0.1310 -1.1368
 9258TIP3   OH249264   4.158   2.820  25.934 -0.6867  0.0449 -0.1848
 9258TIP3    H149265   4.228   2.758  25.915  2.2964  3.4388 -1.4938
 9258TIP3    H249266   4.092   2.803  25.867  0.4208 -1.1157 -1.0358
 9259TIP3   OH249267   4.318   1.268  21.363 -0.0347 -0.2215  0.1457
 9259TIP3    H149268   4.286   1.267  21.273 -1.9313 -0.2983  0.7849
 9259TIP3    H249269   4.414   1.269  21.354 -0.1795  0.9954 -1.8603
 9260TIP3   OH249270   3.875   1.879   8.545 -0.7985 -0.3166 -0.1487
 9260TIP3    H149271   3.954   1.925   8.574 -1.5602  0.3125  1.0276
 9260TIP3    H249272   3.822   1.871   8.624 -1.7495 -1.0641 -0.8427
 9261TIP3   OH249273   2.473   1.930  30.995 -0.8669  0.0511 -0.0138
 9261TIP3    H149274   2.407   1.895  30.935 -0.2983 -2.1895  0.5926
 9261TIP3    H249275   2.554   1.886  30.971 -0.3871 -0.0699  1.6825
 9262TIP3   OH249276   1.047   2.817  10.204  0.3106  0.2669 -0.5766
 9262TIP3    H149277   1.067   2.728  10.178 -2.1881  0.5496 -4.1820
 9262TIP3    H249278   1.132   2.860  10.212  1.4712 -1.5629 -2.3247
 9263TIP3   OH249279   1.060   0.938  38.889  0.0724  0.1444  0.2743
 9263TIP3    H149280   1.120   0.894  38.949  0.5338  2.3927  1.5843
 9263TIP3    H249281   1.116   0.989  38.831 -0.4728 -0.2901 -0.6600
 9264TIP3   OH249282   0.031   2.484  37.458 -0.0281  0.1799 -0.4439
 9264TIP3    H149283  -0.004   2.550  37.398 -1.2408  2.0077  2.0573
 9264TIP3    H249284   0.012   2.519  37.545  1.1935 -2.5313  1.0396
 9265TIP3   OH249285   0.322   2.494  40.665 -0.1096 -0.0797 -0.9491
 9265TIP3    H149286   0.343   2.408  40.700 -0.7778 -0.2197 -0.8849
 9265TIP3    H249287   0.315   2.481  40.570  0.6757  0.0920 -1.0417
 9266TIP3   OH249288   0.478   4.343  37.623  0.0103  0.6466 -0.4581
 9266TIP3    H149289   0.461   4.346  37.717  0.1300 -2.8581 -0.1867
 9266TIP3    H249290   0.572   4.356  37.616  0.4155 -1.4291  0.2503
 9267TIP3   OH249291   2.307   1.677   5.934 -0.0268  0.4351 -0.3090
 9267TIP3    H149292   2.384   1.731   5.914  0.9929 -1.2876 -1.2764
 9267TIP3    H249293   2.261   1.725   6.003  2.8396  0.6967  1.5844
 9268TIP3   OH249294   2.977   4.383  39.174 -0.2919  0.3777 -0.1687
 9268TIP3    H149295   3.043   4.411  39.237  0.7520 -0.5263 -0.8279
 9268TIP3    H249296   2.963   4.459  39.118 -0.3968  0.8227  0.4526
 9269TIP3   OH249297   2.421   0.529  31.184  0.1064 -0.3245  0.1599
 9269TIP3    H149298   2.388   0.456  31.237 -0.0844  0.0892  0.6129
 9269TIP3    H249299   2.361   0.601  31.202 -0.3378 -0.3489 -1.0953
 9270TIP3   OH249300   2.037   2.247  12.292 -0.3972 -0.1048 -0.1728
 9270TIP3    H149301   2.047   2.163  12.338  1.3847  0.0699 -0.1731
 9270TIP3    H249302   2.006   2.308  12.359 -0.3960 -0.4500  0.1464
 9271TIP3   OH249303   1.902   2.895  12.909  0.6339  0.2089 -0.3344
 9271TIP3    H149304   1.991   2.865  12.890  1.6357  2.6575  0.1263
 9271TIP3    H249305   1.914   2.982  12.946 -2.0190  0.8253 -0.7697
 9272TIP3   OH249306   4.049   0.711  25.460  0.1128  0.0847 -0.2047
 9272TIP3    H149307   4.129   0.760  25.441  0.2830 -0.0783  0.0875
 9272TIP3    H249308   3.978   0.773  25.445  0.3579  0.6191  0.7971
 9273TIP3   OH249309   1.379   0.025   7.434 -0.4676 -0.5272 -0.4345
 9273TIP3    H149310   1.338  -0.040   7.491  0.8281 -1.1400 -0.1601
 9273TIP3    H249311   1.388  -0.019   7.350  0.7514 -0.8470 -0.1456
 9274TIP3   OH249312   2.803   3.154  29.971 -0.1499 -0.1899  0.0904
 9274TIP3    H149313   2.836   3.227  29.918 -1.2661 -0.1293 -0.5572
 9274TIP3    H249314   2.831   3.076  29.925 -0.8207 -0.1389 -0.4237
 9275TIP3   OH249315   0.571   3.800   8.586  0.1203  0.3499 -0.5018
 9275TIP3    H149316   0.643   3.796   8.522 -0.0674  3.8574 -1.1293
 9275TIP3    H249317   0.601   3.863   8.651 -2.1311  1.4405 -0.4588
 9276TIP3   OH249318   0.549   2.782  35.642 -0.1248  0.0730  0.0765
 9276TIP3    H149319   0.596   2.790  35.559 -1.0863 -1.0588 -0.6174
 9276TIP3    H249320   0.457   2.784  35.617 -0.4281 -1.3087  0.9919
 9277TIP3   OH249321   2.017   4.335  33.695  0.2858  1.1252 -0.3626
 9277TIP3    H149322   2.084   4.356  33.760 -0.6731  1.1887  0.6486
 9277TIP3    H249323   1.975   4.419  33.676 -2.4275  0.5891  2.4026
 9278TIP3   OH249324   2.083   3.166  36.103  0.5021  0.6856 -0.3515
 9278TIP3    H149325   2.142   3.234  36.070  0.2547  1.2274  0.2847
 9278TIP3    H249326   2.115   3.147  36.192  2.3839 -2.1795 -1.4911
 9279TIP3   OH249327   3.194   3.431  39.774  0.1877 -0.0898  0.0606
 9279TIP3    H149328   3.282   3.420  39.738  1.0293 -0.4510  2.1034
 9279TIP3    H249329   3.136   3.394  39.707  1.6304 -0.4178 -1.0526
 9280TIP3   OH249330   3.943   1.108  36.288  0.4919  0.2643 -0.0320
 9280TIP3    H149331   3.864   1.060  36.262 -0.3600  0.8515  1.3672
 9280TIP3    H249332   3.994   1.115  36.207 -0.5769 -0.7013 -0.8241
 9281TIP3   OH249333   0.050   1.010  35.454 -0.2838  0.8734 -0.1810
 9281TIP3    H149334   0.140   1.002  35.486 -0.0376  1.4120 -0.7316
 9281TIP3    H249335   0.006   0.931  35.488  0.4343  0.5154 -0.0597
 9282TIP3   OH249336   3.168   1.874  27.038 -0.4602 -0.7141  0.1596
 9282TIP3    H149337   3.223   1.829  26.974  0.1139  0.5579 -0.2939
 9282TIP3    H249338   3.138   1.953  26.991  0.2114  0.3999  1.5390
 9283TIP3   OH249339   0.596   1.621  33.873 -0.4750  0.1097 -0.5837
 9283TIP3    H149340   0.635   1.704  33.846 -1.4828  0.2433 -1.7291
 9283TIP3    H249341   0.661   1.555  33.848 -0.3955  0.4280 -1.2345
 9284TIP3   OH249342   0.941   1.152   9.765 -0.7011 -0.2901 -0.0374
 9284TIP3    H149343   1.029   1.179   9.738 -0.1029 -0.6509  1.4174
 9284TIP3    H249344   0.890   1.150   9.684  0.0688  1.9437 -0.6401
 9285TIP3   OH249345   2.201   0.876  39.848  0.3602  0.0191  0.1944
 9285TIP3    H149346   2.132   0.937  39.872 -0.4067 -1.7644  2.9914
 9285TIP3    H249347   2.168   0.832  39.770  0.9549  3.0247 -1.9218
 9286TIP3   OH249348   0.375   3.871   5.614  0.2145  0.1851 -0.6374
 9286TIP3    H149349   0.374   3.778   5.635  1.1775  0.4724  0.8915
 9286TIP3    H249350   0.457   3.884   5.566  0.5024  0.3679 -0.1075
 9287TIP3   OH249351   3.709   1.577  37.436 -0.0709  0.4273  0.5800
 9287TIP3    H149352   3.766   1.524  37.493 -0.3555  0.7665  1.1917
 9287TIP3    H249353   3.769   1.636  37.391  0.2788 -0.5520 -0.2773
 9288TIP3   OH249354   3.078   1.779  31.216  0.0030  0.0552  0.0845
 9288TIP3    H149355   3.063   1.700  31.165  0.6214 -0.3902  0.5799
 9288TIP3    H249356   3.013   1.776  31.286  0.1951 -0.1471  0.2541
 9289TIP3   OH249357   1.778   4.140  12.253  0.1857  0.0723  0.1799
 9289TIP3    H149358   1.737   4.216  12.213 -0.8034 -0.1864  0.6663
 9289TIP3    H249359   1.819   4.174  12.333  0.5386  0.2558 -0.0794
 9290TIP3   OH249360   4.289   2.353   4.709 -0.0551  0.2608 -0.2468
 9290TIP3    H149361   4.355   2.295   4.747 -0.2272  0.4471  0.3527
 9290TIP3    H249362   4.271   2.316   4.623  1.9683  1.0762 -1.0888
 9291TIP3   OH249363   4.357   3.794  41.140  0.2570 -0.2609 -0.3202
 9291TIP3    H149364   4.337   3.786  41.047 -0.0336 -0.5602 -0.2335
 9291TIP3    H249365   4.453   3.797  41.144  0.2689 -0.0786 -0.6367
 9292TIP3   OH249366   4.370   2.917  11.122 -0.0652  0.5079 -0.0685
 9292TIP3    H149367   4.414   2.872  11.050 -0.0735  1.0732 -0.4313
 9292TIP3    H249368   4.365   2.851  11.191  1.2128  0.3830 -0.0734
 9293TIP3   OH249369   3.914   3.554   0.165 -0.1852 -0.1566  0.2598
 9293TIP3    H149370   3.891   3.601   0.245 -1.9889 -2.0453  0.9311
 9293TIP3    H249371   3.835   3.559   0.111  0.6042  0.0666 -0.8929
 9294TIP3   OH249372   0.494   1.160   7.810 -0.0678  0.2105  0.1992
 9294TIP3    H149373   0.456   1.081   7.848 -0.5264 -0.3356 -1.3448
 9294TIP3    H249374   0.423   1.200   7.760  0.3285  1.3036  0.4706
 9295TIP3   OH249375   3.708   3.199  37.140  0.3596  0.6700 -0.0625
 9295TIP3    H149376   3.795   3.166  37.165 -0.2063 -0.4189  0.5117
 9295TIP3    H249377   3.651   3.172  37.212 -0.4693  1.3337 -0.4659
 9296TIP3   OH249378   2.732   2.007  27.177 -0.5955 -0.2208 -0.7169
 9296TIP3    H149379   2.827   2.016  27.177 -0.5026 -0.3066  2.1170
 9296TIP3    H249380   2.701   2.076  27.118  1.1741  0.3564 -1.0200
 9297TIP3   OH249381   0.446   3.748  32.627 -0.5142 -0.3505 -0.2737
 9297TIP3    H149382   0.538   3.772  32.612 -0.6099  0.6453  0.5608
 9297TIP3    H249383   0.449   3.655  32.648  0.1035 -0.7137 -1.8457
 9298TIP3   OH249384   1.291   3.327  29.993  0.2660  0.1127  0.0427
 9298TIP3    H149385   1.303   3.232  29.993 -2.7594 -0.3828  1.3118
 9298TIP3    H249386   1.325   3.356  29.909  2.1828 -1.9064  0.0270
 9299TIP3   OH249387   1.431   2.693  32.219  0.3394  0.4763  0.0538
 9299TIP3    H149388   1.403   2.783  32.202 -1.2520  0.2251  1.1238
 9299TIP3    H249389   1.361   2.639  32.183  1.2262 -0.3538 -0.4833
 9300TIP3   OH249390   2.060   4.401   8.431 -0.0619  0.1490  0.0858
 9300TIP3    H149391   2.151   4.391   8.460  0.2978 -0.3063 -1.1625
 9300TIP3    H249392   2.009   4.361   8.501  0.7880 -0.9583  0.1072
 9301TIP3   OH249393   1.646   1.401  15.896  0.6073 -0.0168 -0.0734
 9301TIP3    H149394   1.600   1.351  15.829  0.5424 -0.2625  0.1511
 9301TIP3    H249395   1.656   1.340  15.969  0.7241  0.2303  0.1201
 9302TIP3   OH249396   3.192   2.171  28.838 -0.3454  0.1612  0.1272
 9302TIP3    H149397   3.225   2.185  28.750 -0.2950  2.0314  0.4070
 9302TIP3    H249398   3.261   2.202  28.896 -0.7245 -0.2410  0.8179
 9303TIP3   OH249399   2.240   3.980  12.191  0.2154 -0.9707  0.2781
 9303TIP3    H149400   2.205   3.952  12.276  0.4982 -0.3801  0.5978
 9303TIP3    H249401   2.180   3.943  12.127  0.3795 -2.0021  0.6939
 9304TIP3   OH249402   0.291   3.227   5.694  0.2984  0.3070  0.3095
 9304TIP3    H149403   0.335   3.191   5.771  0.9146  0.7544  0.1656
 9304TIP3    H249404   0.295   3.322   5.706 -0.1457  0.3668  0.0201
 9305TIP3   OH249405   2.046   1.232  33.376 -0.2233  0.0924 -0.2815
 9305TIP3    H149406   1.994   1.240  33.456 -2.3150  1.5314 -1.6861
 9305TIP3    H249407   2.067   1.139  33.371 -0.4578 -0.1066  1.6854
 9306TIP3   OH249408   4.281   1.968  40.072  0.1178  0.5199 -0.2151
 9306TIP3    H149409   4.330   1.986  39.992  0.1443 -1.4870 -0.7181
 9306TIP3    H249410   4.294   2.045  40.127 -2.1798  3.2999 -3.1667
 9307TIP3   OH249411   0.416   0.249  13.744 -0.2351 -0.1640  0.0894
 9307TIP3    H149412   0.505   0.265  13.776  0.1976 -0.9916 -0.6688
 9307TIP3    H249413   0.393   0.164  13.780 -1.3765  0.7489  1.6389
 9308TIP3   OH249414   3.568   2.340  38.261  0.4897  0.5956 -0.0545
 9308TIP3    H149415   3.626   2.303  38.195 -0.1701  0.4370 -0.5660
 9308TIP3    H249416   3.539   2.264  38.312  0.3274  0.6001 -0.1391
 9309TIP3   OH249417   1.588   2.324   5.800  0.5256  0.2638 -0.5716
 9309TIP3    H149418   1.517   2.265   5.823  1.7743 -0.9070  0.4417
 9309TIP3    H249419   1.592   2.386   5.873  0.2933  0.5905 -0.8311
 9310TIP3   OH249420   1.397   1.480   0.228 -0.1917  0.0847 -0.0598
 9310TIP3    H149421   1.364   1.555   0.178 -0.6825 -0.3797 -0.4454
 9310TIP3    H249422   1.467   1.516   0.282 -0.8036  0.9422  0.1874
 9311TIP3   OH249423   3.958   1.278  39.723 -0.0591 -0.1955  0.3512
 9311TIP3    H149424   4.036   1.321  39.689  0.2543 -1.7998 -1.1390
 9311TIP3    H249425   3.990   1.194  39.758 -1.1883 -1.4248 -1.3758
 9312TIP3   OH249426   0.537   2.371  36.796  0.4770  0.0434  0.1767
 9312TIP3    H149427   0.442   2.361  36.784 -0.0355  1.9867  2.0229
 9312TIP3    H249428   0.556   2.458  36.764  1.6348 -0.2623 -0.0013
 9313TIP3   OH249429   1.977   2.316  32.246 -0.0916 -0.3568  0.3784
 9313TIP3    H149430   2.041   2.255  32.284 -0.9712 -0.7063  1.3629
 9313TIP3    H249431   1.892   2.284  32.277 -0.7074  0.4102 -0.4558
 9314TIP3   OH249432   0.820   3.213   7.474  0.4914 -0.7612 -0.1001
 9314TIP3    H149433   0.804   3.143   7.409 -0.4459  0.9539 -1.8229
 9314TIP3    H249434   0.872   3.278   7.427  1.8541 -0.5163  1.6591
 9315TIP3   OH249435   3.972   1.218  38.364  1.1891  0.0987  0.3375
 9315TIP3    H149436   3.971   1.126  38.391 -0.0168 -0.8690 -2.5645
 9315TIP3    H249437   4.050   1.225  38.309  1.6111  1.0116  1.0298
 9316TIP3   OH249438   0.491   4.231   3.049 -0.2429  0.3267 -0.1399
 9316TIP3    H149439   0.396   4.233   3.064 -0.3633  0.1198 -0.8745
 9316TIP3    H249440   0.511   4.139   3.030 -0.2498  0.7171 -2.1931
 9317TIP3   OH249441   2.994   1.464  40.258  0.5522 -0.0037  0.8553
 9317TIP3    H149442   2.922   1.401  40.250  0.5084 -0.1294  2.0253
 9317TIP3    H249443   2.953   1.544  40.291  0.7934  0.2518  0.5399
 9318TIP3   OH249444   2.319   3.522   7.579 -0.0342 -0.3765 -0.3382
 9318TIP3    H149445   2.309   3.499   7.671 -2.2545 -1.1830 -0.7331
 9318TIP3    H249446   2.270   3.603   7.568 -0.6101 -0.7940 -0.9847
 9319TIP3   OH249447   3.979   3.089  39.512 -0.1388  0.2450  0.3157
 9319TIP3    H149448   3.895   3.124  39.485 -0.9194 -0.9971  1.0380
 9319TIP3    H249449   3.972   3.080  39.607  1.2148  1.1345  0.5222
 9320TIP3   OH249450   2.076   2.532  27.875  0.0802 -0.7158  0.0720
 9320TIP3    H149451   2.123   2.614  27.892 -0.8138 -0.1077 -0.3116
 9320TIP3    H249452   2.087   2.481  27.955  3.5320 -1.6970 -0.8493
 9321TIP3   OH249453   2.705   1.101  13.055 -0.4261  0.9163  0.0328
 9321TIP3    H149454   2.790   1.066  13.082 -0.5110 -0.2423 -1.0940
 9321TIP3    H249455   2.647   1.025  13.055 -1.2879  1.5601  0.0912
 9322TIP3   OH249456   0.540   1.817  27.874 -0.4573 -0.0890 -0.2164
 9322TIP3    H149457   0.583   1.902  27.888  1.4748 -1.0953  0.3023
 9322TIP3    H249458   0.511   1.791  27.962 -0.5595 -0.2184 -0.2888
 9323TIP3   OH249459   4.072   1.838   2.005  0.1504 -0.2767 -0.1548
 9323TIP3    H149460   4.072   1.933   2.014 -1.4069 -0.3646  1.3393
 9323TIP3    H249461   4.021   1.822   1.926  2.0852  0.1300 -1.5689
 9324TIP3   OH249462   2.553   3.783   8.880 -0.4269 -0.0161  0.4829
 9324TIP3    H149463   2.464   3.815   8.896 -0.9435 -1.2666  0.2408
 9324TIP3    H249464   2.554   3.695   8.917  0.9061  0.2038  1.0168
 9325TIP3   OH249465   2.617   3.439   7.863  0.4792 -0.0176 -0.0081
 9325TIP3    H149466   2.675   3.391   7.804 -1.2523 -0.1188 -1.7066
 9325TIP3    H249467   2.532   3.397   7.853 -1.1334  3.2328 -1.5842
 9326TIP3   OH249468   3.585   1.728  25.523 -0.1271  0.5898 -0.3415
 9326TIP3    H149469   3.665   1.682  25.497  0.3431  0.8128  0.6525
 9326TIP3    H249470   3.596   1.745  25.617 -0.7037  1.9116 -0.4870
 9327TIP3   OH249471   1.876   0.984  17.662 -0.2831  0.5050  0.3762
 9327TIP3    H149472   1.918   0.999  17.747  0.1505 -1.8599  0.6492
 9327TIP3    H249473   1.943   1.006  17.598  0.8951 -1.6318  0.7817
 9328TIP3   OH249474   3.789   2.966  32.757 -0.4518  0.6683 -0.1549
 9328TIP3    H149475   3.753   2.991  32.842 -0.6811 -2.4270  0.7890
 9328TIP3    H249476   3.728   2.901  32.724  0.2841  0.9411 -2.1750
 9329TIP3   OH249477   4.303   2.903  38.674  0.2549 -0.1206 -0.7226
 9329TIP3    H149478   4.337   2.937  38.591  1.6559 -0.7212 -0.4300
 9329TIP3    H249479   4.276   2.813  38.653  0.9463 -0.3967 -0.4686
 9330TIP3   OH249480   1.387   3.116   1.380 -0.0290  0.0540 -0.3373
 9330TIP3    H149481   1.298   3.147   1.364  0.1259 -0.1749 -1.7628
 9330TIP3    H249482   1.440   3.163   1.315  0.6076 -1.1461 -0.7115
 9331TIP3   OH249483   1.338   0.199  31.680 -0.3658  0.4584  0.2104
 9331TIP3    H149484   1.254   0.156  31.665 -0.5149 -0.2030  2.4571
 9331TIP3    H249485   1.369   0.163  31.763  1.9835  0.9596 -0.3569
 9332TIP3   OH249486   2.519   0.603  34.004  0.4431 -0.4598  0.3819
 9332TIP3    H149487   2.489   0.601  33.913 -0.0577 -0.7540  0.5453
 9332TIP3    H249488   2.613   0.620  33.999  0.2199  0.7105 -0.1439
 9333TIP3   OH249489   1.560   1.259  29.363  0.4806  0.1233 -0.5314
 9333TIP3    H149490   1.617   1.337  29.358  2.1953 -1.1090 -1.3301
 9333TIP3    H249491   1.508   1.273  29.442  1.8874  1.3564  0.2392
 9334TIP3   OH249492   3.037   1.300   9.474 -0.5423  0.9117 -0.1287
 9334TIP3    H149493   3.029   1.281   9.568  0.6303  1.7589  0.1534
 9334TIP3    H249494   2.946   1.309   9.444 -0.9698 -0.2735  0.7147
 9335TIP3   OH249495   4.081   3.909   5.673 -0.4379  0.0121  1.0925
 9335TIP3    H149496   4.088   3.945   5.762 -0.3086 -1.0202  1.5143
 9335TIP3    H249497   4.109   3.818   5.682 -0.2703 -0.0623 -0.0444
 9336TIP3   OH249498   2.702   3.467   9.870 -0.1105 -0.3078 -0.1822
 9336TIP3    H149499   2.655   3.460   9.787  1.3624  0.3175 -1.1042
 9336TIP3    H249500   2.682   3.386   9.916 -2.0739 -0.0728 -0.5093
 9337TIP3   OH249501   1.951   0.099  32.980  0.3604  0.6182  0.5723
 9337TIP3    H149502   1.868   0.132  32.947 -0.1010 -1.4462 -0.4399
 9337TIP3    H249503   1.934   0.078  33.072  0.4805  2.4454  1.0549
 9338TIP3   OH249504   0.867   2.712  32.389 -0.2436  0.1739 -0.2112
 9338TIP3    H149505   0.816   2.785  32.424  1.2981  1.0892  0.2195
 9338TIP3    H249506   0.947   2.712  32.442  0.2013 -1.2331 -0.8500
 9339TIP3   OH249507   3.528   3.367  29.123  0.2830 -0.2473  0.6331
 9339TIP3    H149508   3.610   3.324  29.147  0.6087  0.7110  1.3031
 9339TIP3    H249509   3.502   3.414  29.203 -0.1377  0.6623 -0.0275
 9340TIP3   OH249510   0.777   3.472   0.017  1.0982 -0.6181  0.0061
 9340TIP3    H149511   0.805   3.387  -0.016  0.7421  0.0164 -2.1027
 9340TIP3    H249512   0.681   3.465   0.021  0.9644  0.0399 -1.3959
 9341TIP3   OH249513   4.126   1.334  13.133 -0.3835  0.3930 -0.4851
 9341TIP3    H149514   4.220   1.344  13.118 -0.2772 -2.8712 -3.3658
 9341TIP3    H249515   4.085   1.356  13.049 -2.6681  4.2204  1.3409
 9342TIP3   OH249516   1.350   2.140   0.504 -0.3485 -0.3476  0.2615
 9342TIP3    H149517   1.359   2.073   0.436 -1.1141 -1.0859  0.8595
 9342TIP3    H249518   1.398   2.104   0.579  0.4641  0.4446  0.1316
 9343TIP3   OH249519   0.891   2.820  37.067 -0.5115  0.1218  0.2288
 9343TIP3    H149520   0.907   2.737  37.021  1.2476  0.2471  0.5553
 9343TIP3    H249521   0.834   2.869  37.008 -1.3394 -1.1770 -0.1084
 9344TIP3   OH249522   1.877   2.573  39.012  0.3935  0.6160  0.4482
 9344TIP3    H149523   1.847   2.623  38.936 -0.4568  0.7553  0.8627
 9344TIP3    H249524   1.945   2.515  38.977 -0.5744  0.0676 -0.6007
 9345TIP3   OH249525   1.516   3.082   4.943 -0.0596  0.5598 -0.0979
 9345TIP3    H149526   1.528   2.989   4.962  0.1432  0.7351  0.6448
 9345TIP3    H249527   1.604   3.115   4.926  0.1737  1.1096  1.9667
 9346TIP3   OH249528   1.196   1.337  13.057  0.0673 -0.0107 -0.4562
 9346TIP3    H149529   1.206   1.379  13.142 -1.6310  1.4491 -0.9201
 9346TIP3    H249530   1.120   1.280  13.068 -1.5216  1.7837 -1.4997
 9347TIP3   OH249531   1.101   1.036  11.074  0.6284  0.1244 -0.2732
 9347TIP3    H149532   1.035   1.015  11.008 -0.0210  0.1418  0.3574
 9347TIP3    H249533   1.061   1.009  11.156  1.4652  0.0290  0.1021
 9348TIP3   OH249534   0.760   0.414  14.658  0.2183  0.2739  0.4109
 9348TIP3    H149535   0.729   0.336  14.703 -0.6050  1.3721  1.8329
 9348TIP3    H249536   0.680   0.456  14.625  0.5441  1.0083  0.5272
 9349TIP3   OH249537   2.798   2.739   3.483 -0.0575 -0.3759  0.1603
 9349TIP3    H149538   2.882   2.719   3.525 -0.5892 -0.5313  1.1811
 9349TIP3    H249539   2.803   2.833   3.464 -0.5551  0.1486  2.3915
 9350TIP3   OH249540   0.232   0.942   0.994 -0.5006 -0.3891  0.1964
 9350TIP3    H149541   0.252   0.867   1.050 -1.6193 -1.6179 -0.9867
 9350TIP3    H249542   0.296   0.936   0.922 -0.2664  0.0932  0.3630
 9351TIP3   OH249543   0.617   0.583  33.963 -0.2508  0.0381  0.0829
 9351TIP3    H149544   0.635   0.554  34.053  1.2022 -0.1355 -0.2404
 9351TIP3    H249545   0.571   0.666  33.973 -1.7044 -0.8439  0.9993
 9352TIP3   OH249546   0.677   0.123   2.218 -0.1929 -0.3576 -0.0570
 9352TIP3    H149547   0.770   0.146   2.213 -0.8044  2.1049 -2.3750
 9352TIP3    H249548   0.634   0.201   2.251 -1.9322  0.6668 -4.1418
 9353TIP3   OH249549   0.262   1.453  21.567  0.1184 -0.4239  0.1202
 9353TIP3    H149550   0.295   1.419  21.650 -1.0806 -0.2465  0.6894
 9353TIP3    H249551   0.301   1.397  21.500 -0.8920 -2.2106  0.9543
 9354TIP3   OH249552   3.843   3.989  27.170  0.7319  0.1610 -0.1122
 9354TIP3    H149553   3.751   4.000  27.193  0.7003 -0.1536 -0.0844
 9354TIP3    H249554   3.884   4.072  27.192  0.2736  0.6352 -0.9866
 9355TIP3   OH249555   2.949   1.584  11.448  0.1982 -0.0150  0.2020
 9355TIP3    H149556   3.034   1.624  11.426  0.4553 -0.9084 -0.5001
 9355TIP3    H249557   2.959   1.492  11.424 -1.3721  0.0976 -1.0562
 9356TIP3   OH249558   0.921   1.779  34.948  0.0315  0.0613  0.0167
 9356TIP3    H149559   0.883   1.693  34.932  0.8316 -0.3297  0.1687
 9356TIP3    H249560   1.014   1.762  34.960 -0.0702  0.6913  2.1019
 9357TIP3   OH249561   4.025   4.179  28.398  0.2811  0.3920  0.0075
 9357TIP3    H149562   4.082   4.251  28.427  2.1119 -0.9873 -0.0172
 9357TIP3    H249563   4.072   4.138  28.326 -0.5361 -1.0685  0.2672
 9358TIP3   OH249564   4.346   1.715  25.986 -0.1673 -0.3115 -0.8241
 9358TIP3    H149565   4.355   1.623  26.010  0.8983 -0.0402 -0.1129
 9358TIP3    H249566   4.374   1.718  25.895  1.0474 -0.5044 -0.4754
 9359TIP3   OH249567   2.252   2.516  17.397  0.3646 -0.3464 -0.1429
 9359TIP3    H149568   2.323   2.483  17.453 -0.0304 -0.3012  0.3912
 9359TIP3    H249569   2.283   2.501  17.308  1.2074 -0.0078  0.0751
 9360TIP3   OH249570   3.822   3.461  12.309 -0.1268 -0.1194  0.2260
 9360TIP3    H149571   3.915   3.448  12.292  0.0123  1.5331 -0.5551
 9360TIP3    H249572   3.816   3.478  12.403  0.7853  2.4838 -0.1109
 9361TIP3   OH249573   0.264   2.063  37.531 -0.4311 -0.0200 -0.3901
 9361TIP3    H149574   0.335   2.014  37.491  0.4536  0.0230  1.0516
 9361TIP3    H249575   0.248   2.137  37.472  1.1813  0.3485 -0.3974
 9362TIP3   OH249576   0.131   0.922  34.306  0.4020 -0.2511 -0.7212
 9362TIP3    H149577   0.086   0.866  34.369 -0.4972  0.8669 -0.3515
 9362TIP3    H249578   0.121   0.876  34.222 -3.0309  0.7752 -1.0136
 9363TIP3   OH249579   3.940   0.213   2.489  0.1589  0.1886 -0.0553
 9363TIP3    H149580   3.891   0.291   2.514  1.4025  0.5917  1.2347
 9363TIP3    H249581   4.016   0.246   2.442  0.9987 -0.1778  1.0075
 9364TIP3   OH249582   2.248   2.102   4.725  0.8067  0.1379  0.1419
 9364TIP3    H149583   2.196   2.036   4.679  0.7826  1.1824 -1.4099
 9364TIP3    H249584   2.330   2.058   4.746 -0.7510 -1.7073  3.0810
 9365TIP3   OH249585   0.688   4.199   9.928 -0.1064 -0.2266  0.4041
 9365TIP3    H149586   0.757   4.244   9.880  0.5059 -1.7270 -0.1540
 9365TIP3    H249587   0.728   4.175  10.011 -0.3091 -0.1345  0.5315
 9366TIP3   OH249588   4.084   3.281  26.632 -0.0695 -0.3095  0.0350
 9366TIP3    H149589   4.007   3.255  26.682 -0.0031 -1.7207 -0.5446
 9366TIP3    H249590   4.051   3.297  26.544  0.3072 -1.0520 -0.2494
 9367TIP3   OH249591   3.834   2.560  34.236 -0.0108  0.2393  0.6281
 9367TIP3    H149592   3.836   2.585  34.328  1.2790  4.7780 -0.3770
 9367TIP3    H249593   3.758   2.607  34.200 -0.5682 -1.5395 -0.6601
 9368TIP3   OH249594   3.548   0.937   8.630  0.1276 -0.0585  0.3517
 9368TIP3    H149595   3.535   0.843   8.625  2.2061 -0.4304  1.0855
 9368TIP3    H249596   3.586   0.961   8.545 -0.9094  0.2353 -0.0437
 9369TIP3   OH249597   3.865   2.503  11.699  0.3157  0.0569  0.6289
 9369TIP3    H149598   3.870   2.537  11.788  1.3517 -0.3400  0.7317
 9369TIP3    H249599   3.809   2.566  11.653  0.4751  0.7389  1.3456
 9370TIP3   OH249600   2.522   2.230   9.874 -0.0501 -0.0967  0.1178
 9370TIP3    H149601   2.455   2.286   9.836 -0.4200 -0.9673 -0.5563
 9370TIP3    H249602   2.599   2.243   9.819 -0.6865 -1.6152 -1.2141
 9371TIP3   OH249603   1.892   4.259   8.641  0.3015  0.1006 -0.0309
 9371TIP3    H149604   1.877   4.255   8.735 -0.3762 -0.4523 -0.1568
 9371TIP3    H249605   1.866   4.173   8.609 -1.9374  1.0804 -1.0785
 9372TIP3   OH249606   0.309   3.304  41.433  0.1618  0.2058  0.2010
 9372TIP3    H149607   0.308   3.396  41.407 -0.1248 -0.3866 -2.1391
 9372TIP3    H249608   0.235   3.295  41.494  0.8143  1.6818  1.2733
 9373TIP3   OH249609   2.444   2.423   3.619 -0.5865  0.0971 -0.5199
 9373TIP3    H149610   2.473   2.496   3.564  0.9293 -0.6082 -0.7089
 9373TIP3    H249611   2.483   2.345   3.578 -1.7617 -0.7717 -0.0425
 9374TIP3   OH249612   0.646   3.845   0.180  0.1704 -0.5713 -0.3627
 9374TIP3    H149613   0.597   3.775   0.137 -0.4822  0.4382 -1.3097
 9374TIP3    H249614   0.705   3.878   0.112  0.7361 -0.4424  0.1789
 9375TIP3   OH249615   2.809   1.524  41.601 -0.3575  0.2888 -0.4257
 9375TIP3    H149616   2.815   1.619  41.588  0.0267  0.1895 -1.0060
 9375TIP3    H249617   2.792   1.514  41.695 -0.8823  0.9488 -0.4359
 9376TIP3   OH249618   0.254   2.765  24.840  0.4802  0.3933 -0.6356
 9376TIP3    H149619   0.246   2.850  24.884  2.5481 -0.2623  1.1878
 9376TIP3    H249620   0.201   2.706  24.893 -0.1338  0.3290 -1.3101
 9377TIP3   OH249621   1.441   0.237  26.986  0.0401 -0.2537 -0.7901
 9377TIP3    H149622   1.481   0.270  27.066 -1.2682  4.1281 -1.6370
 9377TIP3    H249623   1.493   0.276  26.915 -2.3572  1.1045 -1.9226
 9378TIP3   OH249624   2.373   3.554  36.203  0.2726  0.0417  0.1752
 9378TIP3    H149625   2.441   3.488  36.216 -0.2017 -0.2567  1.2349
 9378TIP3    H249626   2.366   3.599  36.287 -1.5834 -0.6803  0.4777
 9379TIP3   OH249627   0.044   3.248   5.916 -0.5488 -0.0617 -0.3151
 9379TIP3    H149628   0.097   3.201   5.851  1.8721  2.0086 -0.0358
 9379TIP3    H249629   0.093   3.238   5.997 -0.5636  1.8848 -0.0236
 9380TIP3   OH249630   1.014   2.625   1.869 -0.3631 -0.5332 -1.1515
 9380TIP3    H149631   0.975   2.541   1.894  0.1131 -0.7057 -0.9823
 9380TIP3    H249632   1.106   2.617   1.892  0.1698 -0.7947 -3.1930
 9381TIP3   OH249633   0.768   1.748   9.008  0.0832  0.1483  0.3400
 9381TIP3    H149634   0.716   1.714   8.935 -0.3945  2.6413 -0.5838
 9381TIP3    H249635   0.819   1.673   9.038 -2.6525 -1.9440  0.0810
 9382TIP3   OH249636   2.619   4.186   6.411 -0.5289  0.0073 -0.4586
 9382TIP3    H149637   2.599   4.246   6.483  1.5263 -0.5226  0.6486
 9382TIP3    H249638   2.545   4.124   6.411 -0.5011 -0.0964  1.3574
 9383TIP3   OH249639   0.424   3.501  29.629  0.2034 -0.2371  0.0735
 9383TIP3    H149640   0.359   3.518  29.561 -2.1611  0.5629  2.3465
 9383TIP3    H249641   0.430   3.406  29.632 -1.7490 -0.4063  0.4760
 9384TIP3   OH249642   2.136   3.813  11.311  0.2793  0.5532 -0.0468
 9384TIP3    H149643   2.061   3.850  11.357 -0.0975  1.8803 -1.6352
 9384TIP3    H249644   2.212   3.848  11.358  0.0165 -1.8016  2.3600
 9385TIP3   OH249645   1.464   1.116   8.391 -0.1433  0.0140 -0.3358
 9385TIP3    H149646   1.418   1.195   8.363 -0.2941 -0.4312 -1.3994
 9385TIP3    H249647   1.450   1.054   8.320  2.2374 -0.0962 -0.7701
 9386TIP3   OH249648   3.934   0.759   1.808 -0.1930 -0.1198 -0.1357
 9386TIP3    H149649   3.858   0.817   1.807 -0.0980  0.0188  0.2905
 9386TIP3    H249650   4.009   0.817   1.822 -0.2079 -0.4305  1.5089
 9387TIP3   OH249651   3.670   3.680  41.390 -0.7494 -0.0629  0.0019
 9387TIP3    H149652   3.686   3.771  41.366 -1.1220  0.1905  0.6598
 9387TIP3    H249653   3.668   3.633  41.307  1.6369  0.1411 -0.2525
 9388TIP3   OH249654   2.725   2.021  39.216 -0.1307  0.3997 -0.0430
 9388TIP3    H149655   2.693   2.073  39.142  2.5914  0.7227 -1.0862
 9388TIP3    H249656   2.782   2.081  39.265  1.2047 -0.8957  0.0577
 9389TIP3   OH249657   2.048   0.211  39.061 -0.1410 -0.4577 -0.4292
 9389TIP3    H149658   2.023   0.139  39.003  0.0631 -2.6585  2.0262
 9389TIP3    H249659   2.048   0.172  39.149  0.8171  2.3594  0.9385
 9390TIP3   OH249660   1.557   0.558  40.730  0.0200 -0.2514 -0.4184
 9390TIP3    H149661   1.482   0.546  40.787 -0.5465  0.7132 -0.9353
 9390TIP3    H249662   1.536   0.636  40.678 -0.7506 -2.5123 -3.8742
 9391TIP3   OH249663   3.777   3.387  40.828 -0.4288  0.0966 -0.3857
 9391TIP3    H149664   3.696   3.405  40.780 -0.3530 -0.9791 -0.9518
 9391TIP3    H249665   3.846   3.407  40.766 -0.2002  1.7177  0.3360
 9392TIP3   OH249666   1.674   0.761  27.493  0.1952 -0.0335  0.0646
 9392TIP3    H149667   1.621   0.750  27.572  0.6314 -0.5022  0.2921
 9392TIP3    H249668   1.642   0.843  27.454 -1.1477 -0.6217 -0.1511
 9393TIP3   OH249669   0.856   0.185  36.278 -0.0596 -0.3801  0.1094
 9393TIP3    H149670   0.952   0.191  36.276  0.0438 -1.5412  0.9743
 9393TIP3    H249671   0.829   0.263  36.326  0.5041 -0.4674  0.5812
 9394TIP3   OH249672   4.402   3.363   8.099 -0.2631 -0.0225 -0.1353
 9394TIP3    H149673   4.345   3.326   8.165 -0.1904 -0.2069 -0.1760
 9394TIP3    H249674   4.489   3.328   8.119 -0.5864 -1.7992 -1.5886
 9395TIP3   OH249675   4.067   4.380  11.101 -0.4095  0.1131  0.1705
 9395TIP3    H149676   4.016   4.459  11.082 -2.7524 -1.5717 -1.1930
 9395TIP3    H249677   4.100   4.352  11.015 -0.2559 -0.7920  0.5149
 9396TIP3   OH249678   0.019   0.335  37.341  0.0818  0.2541  0.1337
 9396TIP3    H149679  -0.072   0.317  37.316  0.2091  0.1316 -0.2437
 9396TIP3    H249680   0.024   0.309  37.433  0.4814 -2.5564 -0.5732
 9397TIP3   OH249681   0.589   0.725  28.356 -0.3204 -0.1314  0.8998
 9397TIP3    H149682   0.669   0.710  28.305 -0.5849  0.6666  0.2412
 9397TIP3    H249683   0.532   0.652  28.333 -0.8369  0.7393 -0.7733
 9398TIP3   OH249684   0.109   1.699  34.363 -0.3069 -0.0163  0.3144
 9398TIP3    H149685   0.121   1.786  34.402  1.3644 -0.1325  0.1077
 9398TIP3    H249686   0.125   1.638  34.434 -0.7983 -0.1881  0.2857
 9399TIP3   OH249687   0.360   0.436  32.467 -0.5813 -0.5185 -0.1419
 9399TIP3    H149688   0.330   0.504  32.527 -0.4046  0.1347 -0.7892
 9399TIP3    H249689   0.292   0.432  32.400 -0.8930 -1.4081  0.2071
 9400TIP3   OH249690   1.718   0.070   1.230  0.1355 -0.0817 -0.1442
 9400TIP3    H149691   1.777   0.007   1.188  0.2760 -0.5680  0.7620
 9400TIP3    H249692   1.711   0.141   1.167 -0.5372 -1.2806 -1.4850
 9401TIP3   OH249693   2.886   0.022   1.745  0.5763  0.1189 -0.0230
 9401TIP3    H149694   2.965  -0.029   1.729 -0.0490 -0.2293 -2.3433
 9401TIP3    H249695   2.905   0.108   1.707 -0.3883 -0.1904 -1.2500
 9402TIP3   OH249696   0.941   1.042   3.281 -0.1059  0.2026 -0.2617
 9402TIP3    H149697   0.911   1.075   3.366 -0.9505  0.1012 -0.5160
 9402TIP3    H249698   0.981   0.958   3.301  0.2837  0.4723  0.1211
 9403TIP3   OH249699   0.530   1.769  31.222  0.3841 -0.5684 -0.2596
 9403TIP3    H149700   0.469   1.821  31.273  1.1952  0.5368 -0.3792
 9403TIP3    H249701   0.538   1.687  31.270 -1.5996 -0.9698 -0.5490
 9404TIP3   OH249702   0.524   1.544  27.788  0.3423  0.2017  0.1966
 9404TIP3    H149703   0.481   1.629  27.796  0.7358  0.4315 -0.1027
 9404TIP3    H249704   0.614   1.565  27.762  0.2695 -0.3303 -0.4991
 9405TIP3   OH249705   2.116   4.382  41.128 -0.3061 -0.2539 -0.0589
 9405TIP3    H149706   2.062   4.363  41.051  0.0563 -1.7119  0.0085
 9405TIP3    H249707   2.199   4.414  41.093 -0.5611  0.2158 -0.2324
 9406TIP3   OH249708   0.372   3.574  37.102  0.5565  0.1369  0.0780
 9406TIP3    H149709   0.317   3.556  37.178 -2.7947  0.8432 -1.9697
 9406TIP3    H249710   0.375   3.491  37.054  0.4863  0.3405 -0.2841
 9407TIP3   OH249711   0.216   1.154  40.590  0.2167  0.4965  0.2192
 9407TIP3    H149712   0.137   1.172  40.539 -1.1895  0.9752  2.3980
 9407TIP3    H249713   0.286   1.202  40.545 -1.1199  1.6522 -0.7070
 9408TIP3   OH249714   1.375   2.872   0.840 -0.1728  0.1087  0.0707
 9408TIP3    H149715   1.369   2.807   0.770 -0.1664 -1.1652  1.1996
 9408TIP3    H249716   1.457   2.851   0.885 -0.3063  0.7281  0.6098
 9409TIP3   OH249717   0.183   1.261  10.314  0.0643 -0.0310 -0.1711
 9409TIP3    H149718   0.107   1.231  10.265 -0.2476  0.5737 -0.0575
 9409TIP3    H249719   0.242   1.297  10.247  0.1193 -0.2083 -0.2203
 9410TIP3   OH249720   0.920   3.408  31.577  0.2530 -0.3301 -0.6006
 9410TIP3    H149721   1.012   3.418  31.603 -0.6016  2.6264  1.9281
 9410TIP3    H249722   0.878   3.366  31.652 -1.0281  1.6780 -0.1229
 9411TIP3   OH249723   3.183   3.362  12.175  0.0140  0.7913 -0.2929
 9411TIP3    H149724   3.197   3.425  12.246 -0.8842  0.7586 -0.0784
 9411TIP3    H249725   3.195   3.276  12.217 -0.2613  0.7807 -0.2302
 9412TIP3   OH249726   0.692   4.224  36.222 -0.1807 -0.9597  0.5135
 9412TIP3    H149727   0.717   4.181  36.141  1.2795 -0.0721  0.4656
 9412TIP3    H249728   0.641   4.158  36.270 -2.6709 -0.9401 -1.8491
 9413TIP3   OH249729   1.181   0.319  40.196  0.0455  0.1354  0.0913
 9413TIP3    H149730   1.240   0.356  40.261 -0.2029  0.5468  0.0876
 9413TIP3    H249731   1.154   0.394  40.143  1.8784 -0.4410 -1.8173
 9414TIP3   OH249732   0.340   3.318  31.373  0.3020 -0.2176 -0.4604
 9414TIP3    H149733   0.426   3.359  31.386  0.9090 -1.9068  1.2455
 9414TIP3    H249734   0.314   3.345  31.285  2.7095  0.1373 -1.1363
 9415TIP3   OH249735   0.387   0.819  26.356  0.6232  0.2106  0.2959
 9415TIP3    H149736   0.356   0.733  26.384  1.3271  0.2971  1.4213
 9415TIP3    H249737   0.460   0.800  26.297  1.7475  0.0084  1.7007
 9416TIP3   OH249738   2.573   3.253  13.436  0.3442  0.3028  0.0819
 9416TIP3    H149739   2.610   3.251  13.524  1.1473  1.3007 -0.2184
 9416TIP3    H249740   2.542   3.163  13.421 -1.5746  0.5551  2.1050
 9417TIP3   OH249741   2.250   3.952   8.168 -0.0453 -0.0622  0.2884
 9417TIP3    H149742   2.192   3.919   8.099 -0.3391  0.8675  0.0739
 9417TIP3    H249743   2.236   3.892   8.242 -0.4445 -0.5015 -0.1384
 9418TIP3   OH249744   2.615   1.598  29.883 -0.2379  0.3664 -0.5499
 9418TIP3    H149745   2.603   1.630  29.794  1.0790 -1.0298 -1.2751
 9418TIP3    H249746   2.708   1.610  29.900 -0.2492 -0.4899  0.1821
 9419TIP3   OH249747   1.737   1.717  27.543 -0.2116 -0.3311 -1.0251
 9419TIP3    H149748   1.678   1.644  27.525 -1.6561  0.8714 -1.3642
 9419TIP3    H249749   1.685   1.796  27.524  1.7891  0.7862 -2.2597
 9420TIP3   OH249750   0.981   2.553  13.186  0.3896 -0.3587  0.2296
 9420TIP3    H149751   1.040   2.477  13.194  1.1068  0.1477 -0.1505
 9420TIP3    H249752   0.972   2.565  13.091  2.3944  1.6118  0.2054
 9421TIP3   OH249753   1.308   1.344  26.481  0.7135  0.2948 -0.1248
 9421TIP3    H149754   1.327   1.264  26.529 -0.2801 -0.1655 -0.4711
 9421TIP3    H249755   1.293   1.316  26.391 -0.0228  0.8106 -0.1760
 9422TIP3   OH249756   3.267   1.057   2.773  0.3054 -0.5299 -0.0019
 9422TIP3    H149757   3.186   1.107   2.781  0.5651  0.0135 -0.6179
 9422TIP3    H249758   3.335   1.119   2.799  0.5225 -1.0091  0.5938
 9423TIP3   OH249759   3.430   0.426   2.572 -0.5530 -0.4434 -0.3526
 9423TIP3    H149760   3.380   0.493   2.524 -1.2233 -0.7285 -0.0656
 9423TIP3    H249761   3.381   0.412   2.652  1.8882  1.8945  1.7418
 9424TIP3   OH249762   2.990   0.231   4.172 -0.4761 -0.1698  0.2426
 9424TIP3    H149763   2.987   0.144   4.132 -1.2703  0.2628 -0.6677
 9424TIP3    H249764   2.919   0.280   4.130  1.2906  1.6045 -0.8246
 9425TIP3   OH249765   2.084   0.024  30.559 -0.5745 -0.0769 -0.1084
 9425TIP3    H149766   2.111   0.029  30.650 -0.3539  1.1939 -0.2347
 9425TIP3    H249767   2.120  -0.059  30.528 -0.2043 -0.2664  0.8054
 9426TIP3   OH249768   4.226   2.615  28.948  0.0552  0.4808 -0.2889
 9426TIP3    H149769   4.263   2.551  29.009  0.4932  3.2070  2.5491
 9426TIP3    H249770   4.302   2.661  28.912 -0.2840  2.5004  1.4091
 9427TIP3   OH249771   2.598   3.896   9.160 -0.1764 -0.1406 -0.0241
 9427TIP3    H149772   2.525   3.868   9.216 -0.5037  0.7292 -0.0123
 9427TIP3    H249773   2.597   3.834   9.087 -2.0265  0.8826 -0.9253
 9428TIP3   OH249774   4.349   1.547   1.728 -0.4767 -0.0309 -0.1928
 9428TIP3    H149775   4.413   1.522   1.794  0.5812 -0.2580 -1.2683
 9428TIP3    H249776   4.388   1.521   1.645 -0.7293  2.2502 -1.1245
 9429TIP3   OH249777   2.733   3.215  40.231 -0.1615 -0.3408  0.2615
 9429TIP3    H149778   2.685   3.256  40.302  0.3459  0.6197  0.0588
 9429TIP3    H249779   2.696   3.127  40.225 -2.0120  0.4228 -0.0042
 9430TIP3   OH249780   2.429   1.685  12.243 -0.1001  0.0785  0.9690
 9430TIP3    H149781   2.509   1.637  12.218  0.4399  2.0247 -1.5278
 9430TIP3    H249782   2.439   1.770  12.200 -4.6402 -0.4139 -1.7628
 9431TIP3   OH249783   2.954   2.469  34.290  0.3153 -0.3988  0.0848
 9431TIP3    H149784   3.025   2.468  34.226  0.1470 -1.1830 -0.0997
 9431TIP3    H249785   2.891   2.405  34.257 -0.9404  0.9738 -0.2547
 9432TIP3   OH249786   1.281   2.141   2.905 -0.3391 -0.2382  0.1125
 9432TIP3    H149787   1.344   2.179   2.843 -0.4628 -0.2409 -0.0147
 9432TIP3    H249788   1.256   2.057   2.865  0.7386 -0.9665  0.8981
 9433TIP3   OH249789   0.038   2.399  27.160  0.5043 -0.0696 -1.0433
 9433TIP3    H149790   0.117   2.453  27.158  0.7205 -0.3606 -0.4874
 9433TIP3    H249791   0.070   2.311  27.182 -0.1328  0.1253  0.7943
 9434TIP3   OH249792   2.543   0.780  13.495  0.1957  0.4955 -0.0665
 9434TIP3    H149793   2.507   0.843  13.433 -0.0037  0.7252  0.2784
 9434TIP3    H249794   2.468   0.752  13.547  0.4289  0.6256  0.3498
 9435TIP3   OH249795   2.260   4.244  31.672 -0.4418 -0.1070 -1.1561
 9435TIP3    H149796   2.253   4.250  31.767  0.9277  1.3929 -1.1106
 9435TIP3    H249797   2.249   4.151  31.653 -2.2008 -0.2496  0.3061
 9436TIP3   OH249798   0.744   4.121  39.284  0.3236 -0.4185 -0.6560
 9436TIP3    H149799   0.779   4.173  39.212 -0.3977  1.8200  0.5090
 9436TIP3    H249800   0.817   4.113  39.345 -0.5761  3.1125  1.1564
 9437TIP3   OH249801   3.188   0.192  39.083 -0.3975  0.7522  0.0331
 9437TIP3    H149802   3.229   0.278  39.089 -0.2636  0.9779 -2.7254
 9437TIP3    H249803   3.128   0.199  39.009 -0.3996 -1.5148 -0.2611
 9438TIP3   OH249804   2.015   2.908   5.516  0.3914 -0.1007 -0.5142
 9438TIP3    H149805   1.940   2.909   5.456  0.1485 -0.7667 -0.2419
 9438TIP3    H249806   1.978   2.935   5.600  0.3070 -1.0465 -0.2318
 9439TIP3   OH249807   2.010   2.117   8.377  0.5246  0.6712  0.2495
 9439TIP3    H149808   2.037   2.162   8.457 -0.1856  0.4944  0.5969
 9439TIP3    H249809   2.057   2.034   8.379  0.8448  0.8505  0.2586
 9440TIP3   OH249810   2.857   3.286  27.617 -0.5169 -0.0701 -0.8357
 9440TIP3    H149811   2.787   3.231  27.583 -0.5695  0.2194 -1.1953
 9440TIP3    H249812   2.937   3.238  27.595 -0.5088  0.4561 -2.0160
 9441TIP3   OH249813   0.072   2.083  34.254 -0.0852 -0.2969 -0.2004
 9441TIP3    H149814   0.015   2.151  34.219  1.6313  0.7823 -1.0153
 9441TIP3    H249815   0.034   2.062  34.339 -1.0032  1.2615 -0.1847
 9442TIP3   OH249816   0.320   3.304  33.501 -0.0116  0.0630  0.0042
 9442TIP3    H149817   0.274   3.229  33.463  0.9814 -1.1141  1.0477
 9442TIP3    H249818   0.410   3.295  33.470  0.1870  0.6335  0.4024
 9443TIP3   OH249819   3.167   4.277  36.175  0.2635  0.1218  0.2038
 9443TIP3    H149820   3.249   4.272  36.126  1.2460  0.5346  1.7315
 9443TIP3    H249821   3.142   4.370  36.170  0.2164  0.1110  0.2388
 9444TIP3   OH249822   1.696   2.127  31.579  0.8390  0.7956  0.0848
 9444TIP3    H149823   1.726   2.188  31.512  2.5714  0.6162  0.6354
 9444TIP3    H249824   1.775   2.106  31.629 -0.1939  0.0600  1.4810
 9445TIP3   OH249825   1.939   2.981  32.823 -0.2379 -0.4111  0.0026
 9445TIP3    H149826   1.953   2.912  32.888 -1.3089 -1.5967 -0.9774
 9445TIP3    H249827   2.023   3.027  32.819  0.0439 -0.6815  1.7514
 9446TIP3   OH249828   3.102   3.415  37.253 -0.4041  0.1076 -0.2481
 9446TIP3    H149829   3.126   3.325  37.275  1.0903  0.6051  0.3667
 9446TIP3    H249830   3.007   3.419  37.265 -0.5805 -1.5235 -0.8793
 9447TIP3   OH249831   0.250   0.217  41.096  0.1177  0.0021  0.0044
 9447TIP3    H149832   0.261   0.170  41.014 -2.7070 -1.3694  0.3262
 9447TIP3    H249833   0.243   0.309  41.070 -1.9195 -0.5096 -1.4780
 9448TIP3   OH249834   1.647   2.046  39.929  0.3443  0.4989 -0.0736
 9448TIP3    H149835   1.709   2.050  39.856  0.8796  0.0818  0.3466
 9448TIP3    H249836   1.692   2.091  40.001  0.6466 -0.7909  0.5759
 9449TIP3   OH249837   2.454   0.637   1.947  1.0315  0.0784  0.6164
 9449TIP3    H149838   2.411   0.721   1.960  0.6334 -0.5395  4.1885
 9449TIP3    H249839   2.389   0.583   1.903  0.5716  1.0360  0.0980
 9450TIP3   OH249840   3.365   3.487  10.777 -0.3066  0.0751 -0.1761
 9450TIP3    H149841   3.330   3.472  10.865  1.0303  0.8173  0.5082
 9450TIP3    H249842   3.361   3.582  10.765 -0.2873 -0.0031 -0.8376
 9451TIP3   OH249843   2.388   3.487  35.520 -0.0820  0.4907  0.5589
 9451TIP3    H149844   2.388   3.583  35.517 -2.3729  0.6563  2.4527
 9451TIP3    H249845   2.325   3.461  35.453  1.4867  0.1835 -0.8470
 9452TIP3   OH249846   1.104   2.888  13.624  0.5427  0.3266  0.0626
 9452TIP3    H149847   1.032   2.919  13.679  0.0484 -2.1273  0.9555
 9452TIP3    H249848   1.069   2.887  13.535 -0.0308  0.5460  0.2876
 9453TIP3   OH249849   1.062   4.258   3.635 -0.1737 -0.4594  0.2897
 9453TIP3    H149850   1.075   4.196   3.563  0.7830  0.1212 -0.0484
 9453TIP3    H249851   1.105   4.217   3.710 -2.4681 -1.7864  0.9750
 9454TIP3   OH249852   2.284   4.381  28.381  0.6835  0.0074  0.1008
 9454TIP3    H149853   2.351   4.426  28.432  0.6650  0.2837 -0.1160
 9454TIP3    H249854   2.248   4.449  28.324  2.6365 -0.8430 -2.3163
 9455TIP3   OH249855   3.274   1.869  37.332 -0.5819  0.1336  0.1090
 9455TIP3    H149856   3.214   1.931  37.374  0.3998 -0.0003  1.7983
 9455TIP3    H249857   3.316   1.920  37.263 -0.7525  0.9811  0.6132
 9456TIP3   OH249858   4.141   3.274  34.641 -0.7172 -0.5147 -0.0439
 9456TIP3    H149859   4.142   3.200  34.580  0.6329 -0.9710  0.4764
 9456TIP3    H249860   4.056   3.315  34.628 -0.4272 -0.4932 -2.3301
 9457TIP3   OH249861   0.053   2.584   2.341  0.1537 -0.2310  0.3098
 9457TIP3    H149862   0.070   2.645   2.413 -0.2457 -1.7721  1.7988
 9457TIP3    H249863   0.140   2.557   2.311  0.3516 -0.8693  1.4091
 9458TIP3   OH249864   2.053   2.732   0.486  0.2916 -0.2368 -0.9534
 9458TIP3    H149865   1.972   2.783   0.488  0.3640 -0.1179 -1.0362
 9458TIP3    H249866   2.029   2.648   0.524  0.3589  0.1296 -0.0869
 9459TIP3   OH249867   3.213   4.331   5.194  0.1677 -0.4047 -0.2505
 9459TIP3    H149868   3.195   4.330   5.100  1.9698 -1.2365 -0.6305
 9459TIP3    H249869   3.131   4.363   5.234 -0.2450  1.1502 -2.1583
 9460TIP3   OH249870   2.443   2.715  34.686  0.1528  0.6122 -0.1698
 9460TIP3    H149871   2.484   2.656  34.748 -1.1916 -0.3931 -0.2050
 9460TIP3    H249872   2.509   2.727  34.618 -0.1458 -2.3846 -1.1392
 9461TIP3   OH249873   0.048   3.031  12.004  0.3559 -0.0319  0.0576
 9461TIP3    H149874  -0.006   3.018  11.927  0.0084 -0.0030  0.2958
 9461TIP3    H249875   0.092   3.115  11.989  0.0902  0.0982  0.0119
 9462TIP3   OH249876   3.297   3.876  39.309 -0.2077  0.2290  0.3204
 9462TIP3    H149877   3.228   3.813  39.329  0.3067  0.6553  4.1239
 9462TIP3    H249878   3.258   3.961  39.329  0.0444  0.9538 -1.9720
 9463TIP3   OH249879   1.553   2.856  27.610  0.0602 -0.2751  0.4258
 9463TIP3    H149880   1.462   2.827  27.598  0.0516 -0.7652  1.6110
 9463TIP3    H249881   1.597   2.827  27.530 -1.0576  1.0150 -0.7250
 9464TIP3   OH249882   3.278   3.055  37.850 -0.0639 -0.0617 -0.3729
 9464TIP3    H149883   3.234   3.106  37.918 -1.2986 -0.6644 -0.7029
 9464TIP3    H249884   3.273   2.964  37.880 -0.2930 -0.2919 -1.0887
 9465TIP3   OH249885   1.579   0.888  17.764 -0.1153 -0.2487 -0.2271
 9465TIP3    H149886   1.612   0.858  17.849  0.1262  0.1973 -0.1658
 9465TIP3    H249887   1.652   0.936  17.725 -1.5280  3.4343  1.2067
 9466TIP3   OH249888   2.703   3.519  40.165 -0.2853 -0.4576  0.5580
 9466TIP3    H149889   2.685   3.426  40.149  0.2518 -0.4788  0.0441
 9466TIP3    H249890   2.750   3.548  40.087  0.6272 -0.0514  1.2478
 9467TIP3   OH249891   0.070   3.121  37.674 -0.0148 -0.7197 -0.0669
 9467TIP3    H149892  -0.019   3.140  37.642  0.4268  0.6254 -0.5634
 9467TIP3    H249893   0.117   3.091  37.597  0.4127  0.2312 -0.1882
 9468TIP3   OH249894   3.834   3.342   0.664  0.0589  0.2682 -0.4520
 9468TIP3    H149895   3.868   3.253   0.669 -0.6242  0.0067 -0.3480
 9468TIP3    H249896   3.852   3.369   0.574  2.1869  0.8256  0.0960
 9469TIP3   OH249897   3.651   3.716  37.094  0.9038  0.3395 -0.4903
 9469TIP3    H149898   3.559   3.726  37.071  0.5989 -1.3997 -0.1658
 9469TIP3    H249899   3.664   3.775  37.168 -0.7128 -1.3731  1.2762
 9470TIP3   OH249900   0.829   3.380  35.096  0.4454 -0.0030 -0.7766
 9470TIP3    H149901   0.831   3.287  35.115  3.3222  0.1909  0.2941
 9470TIP3    H249902   0.764   3.389  35.026 -0.0209 -2.7508 -0.7955
 9471TIP3   OH249903   4.232   3.999  27.319  0.7974 -0.0500 -0.0932
 9471TIP3    H149904   4.283   4.068  27.276  3.1050 -0.1626  2.1891
 9471TIP3    H249905   4.166   4.046  27.370  2.1867  0.5743  1.2398
 9472TIP3   OH249906   1.495   0.102  31.488 -0.7311  0.2551  0.2974
 9472TIP3    H149907   1.437   0.142  31.553 -3.7997 -1.1504 -1.3080
 9472TIP3    H249908   1.474   0.008  31.492  0.5200 -0.1452 -1.2650
 9473TIP3   OH249909   3.664   2.159   0.936 -0.2492  1.0417  0.6162
 9473TIP3    H149910   3.739   2.212   0.963 -0.3953  1.0506  1.0027
 9473TIP3    H249911   3.702   2.076   0.907 -0.1553  0.6868  1.7010
 9474TIP3   OH249912   3.681   1.419  12.261 -0.1629 -0.0442  0.0057
 9474TIP3    H149913   3.652   1.432  12.170  2.0370  1.7867 -0.5121
 9474TIP3    H249914   3.770   1.385  12.253  0.2892  0.7304  1.4938
 9475TIP3   OH249915   0.920   3.172  10.841 -0.1840 -0.1629 -0.9033
 9475TIP3    H149916   1.014   3.154  10.851  0.0266  0.6893 -1.2675
 9475TIP3    H249917   0.896   3.128  10.760  0.0384  0.1421 -1.1345
 9476TIP3   OH249918   0.105   1.306   5.518 -0.3263  0.5781  0.2620
 9476TIP3    H149919   0.026   1.358   5.505 -0.8113 -0.2055 -0.0385
 9476TIP3    H249920   0.154   1.352   5.586 -2.7980 -0.7806  3.2243
 9477TIP3   OH249921   3.458   4.028   7.111 -0.1129  0.1822  0.6131
 9477TIP3    H149922   3.534   3.971   7.125 -0.3520 -0.3616 -0.2203
 9477TIP3    H249923   3.447   4.074   7.194  1.5448  0.7776  0.5411
 9478TIP3   OH249924   2.238   0.557  16.448  0.0975 -0.6606 -0.1949
 9478TIP3    H149925   2.148   0.543  16.418 -0.1910 -1.0298  0.7739
 9478TIP3    H249926   2.285   0.479  16.421 -0.5962 -1.8710  1.8237
 9479TIP3   OH249927   2.369   0.469   3.706 -0.2089 -0.0817  0.4093
 9479TIP3    H149928   2.329   0.541   3.754  0.5246 -0.5303  1.7604
 9479TIP3    H249929   2.352   0.391   3.760 -0.4481 -0.8245 -0.7024
 9480TIP3   OH249930   1.100   3.041  38.361 -0.7657  0.3394 -0.1682
 9480TIP3    H149931   1.042   2.983  38.311 -0.9503 -3.0500  3.4866
 9480TIP3    H249932   1.050   3.063  38.440  1.6620  0.0882  1.5496
 9481TIP3   OH249933   1.271   4.127  29.420  0.0100  0.1684 -0.1763
 9481TIP3    H149934   1.311   4.047  29.386  0.8793  1.0503 -1.2942
 9481TIP3    H249935   1.345   4.185  29.437 -0.6404  0.8881  0.2259
 9482TIP3   OH249936   1.002   0.956  35.385  0.0898 -0.1830  0.6534
 9482TIP3    H149937   1.069   0.900  35.424  2.0770  2.8080  1.9566
 9482TIP3    H249938   1.031   1.045  35.406 -2.6881  1.3789 -1.4947
 9483TIP3   OH249939   0.700   2.926   3.985 -0.5064  0.0354 -0.0298
 9483TIP3    H149940   0.643   2.929   3.908  0.3283  4.0175 -0.7115
 9483TIP3    H249941   0.639   2.928   4.059 -1.2907 -0.0728 -0.6544
 9484TIP3   OH249942   0.182   2.740  33.260 -0.0139 -0.2439 -0.4100
 9484TIP3    H149943   0.230   2.670  33.304  1.7539  0.1013 -1.6827
 9484TIP3    H249944   0.228   2.753  33.177 -0.5460  2.1239 -0.4273
 9485TIP3   OH249945   3.824   1.032   5.326  0.2334 -0.3835  0.0559
 9485TIP3    H149946   3.771   1.090   5.271  0.1726 -0.3779  0.1210
 9485TIP3    H249947   3.914   1.046   5.295  0.4377  0.9433  1.1037
 9486TIP3   OH249948   2.983   1.428   2.982 -0.2011  0.3315  0.0018
 9486TIP3    H149949   2.989   1.434   3.077  2.0977 -0.5980 -0.0022
 9486TIP3    H249950   2.999   1.517   2.951 -1.3587  0.7158  0.4743
 9487TIP3   OH249951   1.559   3.148  11.901  0.1664  0.3262  0.2169
 9487TIP3    H149952   1.527   3.144  11.991 -0.8928 -1.4443 -0.1877
 9487TIP3    H249953   1.643   3.193  11.907  0.7821 -0.9868  2.2759
 9488TIP3   OH249954   1.710   2.416  13.369 -0.3796 -0.0807 -0.5796
 9488TIP3    H149955   1.725   2.345  13.431 -2.0453  0.0548  0.0276
 9488TIP3    H249956   1.683   2.373  13.288  0.2194 -0.1927 -0.7234
 9489TIP3   OH249957   1.400   1.278   2.698  0.0268 -0.1273  0.3695
 9489TIP3    H149958   1.465   1.222   2.741  0.4238 -0.3380 -0.4726
 9489TIP3    H249959   1.398   1.357   2.751  0.3741 -0.4518  0.8734
 9490TIP3   OH249960   1.393   2.199  36.963  0.1781 -0.1100  0.1524
 9490TIP3    H149961   1.469   2.256  36.965  0.1225 -0.0445  1.2080
 9490TIP3    H249962   1.425   2.117  36.925 -0.0687  1.0199 -2.7113
 9491TIP3   OH249963   2.056   4.286  36.163  0.0350  0.1915  0.1044
 9491TIP3    H149964   2.015   4.200  36.166 -0.7656  0.5801  1.9911
 9491TIP3    H249965   2.150   4.268  36.153  0.0126 -0.9849  1.6211
 9492TIP3   OH249966   2.350   4.334  37.384  0.6022  0.2859 -0.1917
 9492TIP3    H149967   2.382   4.252  37.347  0.6406  0.7777 -1.2826
 9492TIP3    H249968   2.267   4.311  37.426 -0.1242 -0.0874 -1.7277
 9493TIP3   OH249969   2.137   0.499  40.194  0.0966 -0.5540  0.1454
 9493TIP3    H149970   2.151   0.522  40.286  1.9643  0.2663 -0.2879
 9493TIP3    H249971   2.161   0.406  40.189 -0.2996 -0.6784  0.5433
 9494TIP3   OH249972   1.397   3.654  33.644 -0.0091 -0.7323 -0.0474
 9494TIP3    H149973   1.319   3.644  33.699  1.7073 -0.9760  2.5439
 9494TIP3    H249974   1.395   3.578  33.586 -2.3497 -0.0159 -1.0316
 9495TIP3   OH249975   0.633   1.806  35.181  0.3664 -0.1877 -0.1585
 9495TIP3    H149976   0.721   1.844  35.188  0.1305  0.2050  0.7806
 9495TIP3    H249977   0.644   1.715  35.207  0.3492  0.0742  0.7812
 9496TIP3   OH249978   0.180   1.073   2.766  0.6909 -0.4222  0.0265
 9496TIP3    H149979   0.167   1.166   2.749  3.3526 -0.0625 -0.3709
 9496TIP3    H249980   0.114   1.052   2.832  1.2550  2.2377  1.6022
 9497TIP3   OH249981   0.512   1.599  41.091 -0.0248 -0.2797  0.1005
 9497TIP3    H149982   0.520   1.582  40.997 -0.5573 -1.7079  0.2887
 9497TIP3    H249983   0.433   1.654  41.098 -0.4341 -0.8145 -0.2281
 9498TIP3   OH249984   1.989   2.360  41.402  0.2526 -0.2645  0.5099
 9498TIP3    H149985   1.949   2.336  41.485  1.9179 -1.6748  0.9715
 9498TIP3    H249986   1.956   2.296  41.339  1.8105 -1.5498  0.9327
 9499TIP3   OH249987   0.253   3.807   9.986  0.4661  0.2739  0.3610
 9499TIP3    H149988   0.254   3.716  10.017  0.5082 -0.1279 -0.8010
 9499TIP3    H249989   0.280   3.858  10.063 -1.1422 -0.5220  1.5285
 9500TIP3   OH249990   2.150   1.918   4.551  0.5214  0.5756 -0.6987
 9500TIP3    H149991   2.209   1.867   4.497  0.7041 -0.1215  0.1357
 9500TIP3    H249992   2.074   1.936   4.495  1.0239  0.4990 -1.4000
 9501TIP3   OH249993   1.352   0.552  12.161 -0.0741  0.1792  0.5808
 9501TIP3    H149994   1.262   0.519  12.167 -0.5929  1.5575  0.6078
 9501TIP3    H249995   1.382   0.558  12.252 -0.7417  1.7776  0.7182
 9502TIP3   OH249996   3.701   3.800  27.998  0.0262 -0.2876  0.5182
 9502TIP3    H149997   3.725   3.828  27.909 -0.3510  2.7641  1.2626
 9502TIP3    H249998   3.612   3.768  27.990 -0.3462  0.8227 -0.1161
 9503TIP3   OH249999   1.939   2.454   9.665  0.4190 -0.1403 -0.2459
 9503TIP3    H150000   1.909   2.469   9.575  1.7298 -0.0939 -0.7009
 9503TIP3    H250001   1.993   2.530   9.685 -0.9119  0.4928  1.0823
 9504TIP3   OH250002   2.506   1.521  27.017 -0.3668 -0.5410 -0.3032
 9504TIP3    H150003   2.524   1.461  27.090  1.3313 -0.7940 -0.8713
 9504TIP3    H250004   2.425   1.488  26.977 -1.3229 -0.3938  1.4380
 9505TIP3   OH250005   0.806   2.704  21.876  0.1993 -0.1025  0.0897
 9505TIP3    H150006   0.757   2.786  21.873 -0.7907 -0.6828 -0.1847
 9505TIP3    H250007   0.785   2.661  21.792 -0.6810 -1.3977  0.9338
 9506TIP3   OH250008   3.120   1.520  31.072 -0.2523  0.0237  0.2653
 9506TIP3    H150009   3.069   1.500  30.994  0.9204 -1.3909 -0.1917
 9506TIP3    H250010   3.110   1.442  31.127  0.6467  0.1193  0.5787
 9507TIP3   OH250011   2.876   1.858  39.448  0.1318 -0.8224  0.1007
 9507TIP3    H150012   2.857   1.871  39.356  0.9273 -0.3162 -0.0059
 9507TIP3    H250013   2.806   1.905  39.494 -2.2967 -3.9025 -0.1468
 9508TIP3   OH250014   0.241   0.480  40.521 -0.0359  0.9493  0.4032
 9508TIP3    H150015   0.247   0.385  40.531  0.7653  1.0057  0.5097
 9508TIP3    H250016   0.250   0.495  40.427 -1.6480  0.8338  0.1935
 9509TIP3   OH250017   1.402   3.382  18.303 -0.7383  0.5566 -0.4373
 9509TIP3    H150018   1.380   3.313  18.366 -2.2056  1.8134  0.5086
 9509TIP3    H250019   1.495   3.398  18.316 -0.6178 -0.4855  0.0990
 9510TIP3   OH250020   2.058   1.085  17.471 -0.0763  0.1450  0.0200
 9510TIP3    H150021   2.145   1.104  17.436 -0.7051  1.1966 -1.0480
 9510TIP3    H250022   2.016   1.170  17.480 -0.5769 -0.2361  1.7447
 9511TIP3   OH250023   3.254   4.171   7.905  0.6421  0.0061 -0.4532
 9511TIP3    H150024   3.319   4.190   7.838  1.0291  0.8828  0.1460
 9511TIP3    H250025   3.171   4.167   7.858  0.6304  2.4779 -0.7877
 9512TIP3   OH250026   3.305   2.137   0.329 -0.2670 -0.0227  0.3596
 9512TIP3    H150027   3.262   2.206   0.279  0.0064  0.4448  0.7618
 9512TIP3    H250028   3.331   2.072   0.263  0.1538  0.6150 -0.1155
 9513TIP3   OH250029   2.686   0.473   5.274  0.0592 -0.2414 -0.1193
 9513TIP3    H150030   2.677   0.523   5.354 -2.8753  1.0658 -1.1086
 9513TIP3    H250031   2.778   0.481   5.250  0.6283  0.7994  2.1420
 9514TIP3   OH250032   3.885   0.347   4.627 -0.1201  0.3344  0.1639
 9514TIP3    H150033   3.931   0.430   4.638 -1.0959  1.3470 -2.5264
 9514TIP3    H250034   3.796   0.363   4.657 -1.1255  1.2841 -2.9583
 9515TIP3   OH250035   3.815   0.949  26.382  0.2994 -0.4326  0.0434
 9515TIP3    H150036   3.725   0.981  26.391 -0.2332 -1.6219 -0.8830
 9515TIP3    H250037   3.852   0.958  26.470 -0.7215  0.0569  0.4430
 9516TIP3   OH250038   3.290   3.418  29.801 -0.2615 -0.2064  0.2675
 9516TIP3    H150039   3.303   3.501  29.846 -0.3126  0.3238 -0.6908
 9516TIP3    H250040   3.376   3.395  29.767 -0.5264  0.1549 -0.6637
 9517TIP3   OH250041   3.358   3.509   2.021 -0.0182  0.7456 -0.5111
 9517TIP3    H150042   3.268   3.523   1.992  0.0504 -0.1974 -1.2536
 9517TIP3    H250043   3.411   3.565   1.964 -0.0238  0.1974 -1.0612
 9518TIP3   OH250044   1.491   1.283  28.304  0.4247  0.5957 -0.2281
 9518TIP3    H150045   1.546   1.362  28.302 -1.5617  2.1088  0.7945
 9518TIP3    H250046   1.467   1.273  28.397  1.0459 -1.5556 -0.2537
 9519TIP3   OH250047   1.827   2.657   1.268 -0.0412 -0.3950 -0.8609
 9519TIP3    H150048   1.839   2.751   1.255  0.2438  0.0313  1.8736
 9519TIP3    H250049   1.748   2.650   1.322 -0.9312 -1.8904 -2.2349
 9520TIP3   OH250050   2.017   3.438   4.832  0.4628 -0.1642 -0.5036
 9520TIP3    H150051   2.050   3.524   4.809 -2.4133  1.7289  1.7316
 9520TIP3    H250052   1.967   3.410   4.755  0.7061  0.5685 -0.9313
 9521TIP3   OH250053   1.660   3.730  11.821  0.0382 -0.1055  0.9441
 9521TIP3    H150054   1.709   3.811  11.808 -1.7814  0.8823 -0.2070
 9521TIP3    H250055   1.642   3.699  11.732 -0.8964 -0.7460  1.3442
 9522TIP3   OH250056   1.607   0.621  15.774  0.2897  0.2629 -0.2605
 9522TIP3    H150057   1.542   0.624  15.844  1.7813 -3.2309  1.5094
 9522TIP3    H250058   1.598   0.534  15.736  0.7445  1.4115 -3.3528
 9523TIP3   OH250059   3.343   0.366  36.974 -0.4511 -0.7469  0.6334
 9523TIP3    H150060   3.301   0.295  36.925 -1.3704 -0.0832  0.4369
 9523TIP3    H250061   3.394   0.413  36.908  0.1047 -1.1856  0.7472
 9524TIP3   OH250062   0.220   2.861  34.314  0.1913 -0.7484 -0.2362
 9524TIP3    H150063   0.279   2.827  34.248  0.1920 -0.6050 -0.3107
 9524TIP3    H250064   0.233   2.956  34.312  0.6403 -0.7906  0.3938
 9525TIP3   OH250065   1.701   1.333   6.472  0.0544 -0.6172  0.1276
 9525TIP3    H150066   1.718   1.280   6.550  1.9939 -0.6621 -0.2698
 9525TIP3    H250067   1.780   1.387   6.463 -0.4654 -0.0715 -1.3823
 9526TIP3   OH250068   3.330   1.760  31.825 -0.6638  0.2083  0.0326
 9526TIP3    H150069   3.388   1.684  31.835 -0.2079  0.5078 -0.2772
 9526TIP3    H250070   3.253   1.738  31.876 -0.5740 -0.5060 -0.1292
 9527TIP3   OH250071   4.102   3.376  36.882 -0.5677  0.5822 -0.4097
 9527TIP3    H150072   4.119   3.298  36.830 -0.9737  0.7671 -0.8259
 9527TIP3    H250073   4.039   3.348  36.948  0.4552  0.1805  0.4172
 9528TIP3   OH250074   2.439   1.301   5.510  0.5483  0.0256 -0.0607
 9528TIP3    H150075   2.466   1.240   5.441  1.6826  1.8692 -1.3377
 9528TIP3    H250076   2.381   1.363   5.465 -0.4210  0.0368  1.1657
 9529TIP3   OH250077   3.458   3.928   0.674 -0.4713 -0.0205  0.3183
 9529TIP3    H150078   3.519   3.854   0.664 -0.9144 -0.1762 -1.9723
 9529TIP3    H250079   3.411   3.910   0.755  1.8156 -0.4142  1.6188
 9530TIP3   OH250080   1.920   0.945  36.502 -0.6190  0.1811  0.6410
 9530TIP3    H150081   1.841   0.976  36.545 -0.7384 -0.7751  1.1440
 9530TIP3    H250082   1.895   0.936  36.410 -0.7876  0.8646  0.6158
 9531TIP3   OH250083   4.360   1.787  40.649  0.6478  0.0668 -0.8861
 9531TIP3    H150084   4.438   1.746  40.611  0.9800 -1.2948  1.1153
 9531TIP3    H250085   4.331   1.726  40.717 -2.6319  0.1455 -2.0136
 9532TIP3   OH250086   2.224   4.265  33.129  0.1147 -0.0677  0.5893
 9532TIP3    H150087   2.277   4.335  33.093 -0.9516  0.4690  0.0256
 9532TIP3    H250088   2.285   4.193  33.143  0.5459 -0.5381 -2.8478
 9533TIP3   OH250089   1.980   1.480   2.916  0.5049 -0.1302  0.2357
 9533TIP3    H150090   1.963   1.405   2.973 -0.3752  0.8088  1.2713
 9533TIP3    H250091   1.991   1.554   2.976  2.5661  0.4003 -0.6925
 9534TIP3   OH250092   2.391   3.086   3.845  0.2219 -0.0139  0.3885
 9534TIP3    H150093   2.418   3.015   3.787  0.0842  0.1583  0.1081
 9534TIP3    H250094   2.328   3.136   3.793 -1.1703 -0.8107  1.2726
 9535TIP3   OH250095   3.203   2.190  11.381 -0.1439 -0.4271 -0.3702
 9535TIP3    H150096   3.276   2.181  11.320 -1.6788 -0.7858 -2.2557
 9535TIP3    H250097   3.205   2.110  11.434  0.9142 -0.3373 -0.2598
 9536TIP3   OH250098   1.152   2.487  30.295 -0.2455  0.1813 -0.1689
 9536TIP3    H150099   1.177   2.520  30.381 -0.6929  0.4530 -0.1421
 9536TIP3    H250100   1.212   2.414  30.279 -0.7719 -0.4868  0.7927
 9537TIP3   OH250101   0.748   2.014  33.146  0.3109 -0.4570  0.3499
 9537TIP3    H150102   0.678   2.060  33.193 -1.7229 -3.0073  0.0997
 9537TIP3    H250103   0.703   1.940  33.104  3.0490 -1.6845 -0.6382
 9538TIP3   OH250104   4.236   3.925   6.515  0.0710  0.2694 -0.3428
 9538TIP3    H150105   4.181   4.002   6.500 -1.2227 -0.6919 -0.6126
 9538TIP3    H250106   4.299   3.954   6.581  1.5350  2.4871 -2.5026
 9539TIP3   OH250107   2.093   0.161  10.089  0.0770  0.0298 -0.0528
 9539TIP3    H150108   2.011   0.208  10.075  1.1315  1.8691 -0.4229
 9539TIP3    H250109   2.160   0.216  10.047  1.5564 -1.2073  0.5623
 9540TIP3   OH250110   1.558   1.232  39.504  0.2658  0.4616  0.1584
 9540TIP3    H150111   1.517   1.266  39.425 -1.8123 -1.1150  0.4691
 9540TIP3    H250112   1.528   1.292  39.574  0.8849  0.9841 -0.0175
 9541TIP3   OH250113   3.153   1.899  40.535  0.1898  0.1838  1.3903
 9541TIP3    H150114   3.171   1.970  40.597  0.0360  0.9398  0.5847
 9541TIP3    H250115   3.154   1.820  40.589 -1.9833  0.9973  2.7527
 9542TIP3   OH250116   0.757   1.264  38.188  0.0418 -0.0743 -0.5319
 9542TIP3    H150117   0.800   1.347  38.171 -0.9672  1.2356  2.5413
 9542TIP3    H250118   0.819   1.214  38.242 -0.6865  0.2042  0.6043
 9543TIP3   OH250119   1.052   3.031   5.546 -0.0725 -0.0607  0.2945
 9543TIP3    H150120   1.075   2.962   5.608  0.9839 -0.1761 -0.2079
 9543TIP3    H250121   1.039   3.109   5.600 -1.6215 -0.7032  0.9042
 9544TIP3   OH250122   2.669   2.539  38.182 -0.0428 -0.4896 -0.1659
 9544TIP3    H150123   2.588   2.525  38.133 -0.5976 -1.9020  1.0821
 9544TIP3    H250124   2.642   2.534  38.274  1.4027 -0.5876  0.2707
 9545TIP3   OH250125   2.776   0.036   0.983  0.2840  0.6306  0.0060
 9545TIP3    H150126   2.682   0.022   0.996  0.8775 -1.5811  3.4793
 9545TIP3    H250127   2.789   0.028   0.889 -2.7270 -1.4425 -0.3863
 9546TIP3   OH250128   3.343   1.585  39.147  0.2191 -0.7562 -0.0006
 9546TIP3    H150129   3.288   1.661  39.127  0.0551 -0.5906  1.0498
 9546TIP3    H250130   3.415   1.591  39.084  1.3978  1.5190  1.4197
 9547TIP3   OH250131   0.380   1.981  36.789  0.1569 -0.6216 -0.4460
 9547TIP3    H150132   0.376   1.917  36.860  0.4117  0.2026  0.3326
 9547TIP3    H250133   0.441   2.048  36.821 -0.2786  0.1177 -1.1469
 9548TIP3   OH250134   3.865   0.076  31.195 -0.0272  0.5222  0.9078
 9548TIP3    H150135   3.830  -0.008  31.165 -0.4417  1.1376 -0.3868
 9548TIP3    H250136   3.813   0.141  31.149  1.1355  1.4871  0.9306
 9549TIP3   OH250137   3.906   1.741  40.588 -0.0916 -0.4494  0.6379
 9549TIP3    H150138   3.831   1.696  40.625 -0.2852 -0.3026  0.4234
 9549TIP3    H250139   3.968   1.672  40.567 -0.8401 -0.7290 -0.7447
 9550TIP3   OH250140   3.097   4.370   2.145 -0.0095 -0.0498  0.0026
 9550TIP3    H150141   3.065   4.332   2.063  0.7524 -2.9328  0.9335
 9550TIP3    H250142   3.125   4.459   2.120 -2.2213  0.1449 -2.2354
 9551TIP3   OH250143   0.335   3.646  25.508 -0.6451 -0.2007 -0.5645
 9551TIP3    H150144   0.411   3.591  25.488  0.6076  0.6878  1.4603
 9551TIP3    H250145   0.327   3.704  25.432  1.0645  0.0336 -0.6213
 9552TIP3   OH250146   3.319   3.695  12.579 -0.6464  0.5166 -0.7107
 9552TIP3    H150147   3.325   3.654  12.665  0.9186  4.0919  1.1060
 9552TIP3    H250148   3.408   3.694  12.545 -1.3472 -1.4197 -2.6911
 9553TIP3   OH250149   3.215   0.755   3.487 -0.1168 -0.1193 -0.1053
 9553TIP3    H150150   3.206   0.816   3.415 -1.5169  0.7314  0.7591
 9553TIP3    H250151   3.175   0.674   3.455  0.6253 -0.2260 -0.8024
 9554TIP3   OH250152   1.515   0.793  37.031 -0.3695 -0.2899 -0.3734
 9554TIP3    H150153   1.484   0.836  36.951 -1.4377 -0.9984 -0.3684
 9554TIP3    H250154   1.468   0.838  37.102 -0.1213 -0.2674 -0.2231
 9555TIP3   OH250155   1.233   1.349   6.349 -0.1685  0.6089  0.1864
 9555TIP3    H150156   1.161   1.288   6.362 -0.1513  0.3860 -0.6856
 9555TIP3    H250157   1.267   1.367   6.437 -0.1663 -0.6453  0.4495
 9556TIP3   OH250158   0.489   1.004  13.864  0.2767 -0.4273 -0.3140
 9556TIP3    H150159   0.489   1.063  13.939 -2.0350  0.4228 -0.8858
 9556TIP3    H250160   0.411   1.029  13.814  0.1456 -2.8600 -1.4854
 9557TIP3   OH250161   1.327   3.103  36.544 -0.2215  0.3314  0.2299
 9557TIP3    H150162   1.392   3.100  36.473 -0.0519 -0.5993  0.4036
 9557TIP3    H250163   1.305   3.011  36.559 -1.3787  0.6129  0.3697
 9558TIP3   OH250164   0.280   2.301   4.619  0.3599 -0.0541 -0.8601
 9558TIP3    H150165   0.351   2.243   4.591 -1.0376 -1.1186 -2.3724
 9558TIP3    H250166   0.223   2.245   4.671  0.9818  0.9937  1.0263
 9559TIP3   OH250167   2.582   2.143  12.475 -0.5121 -0.5486  0.4353
 9559TIP3    H150168   2.511   2.079  12.471  0.3248 -1.4494 -1.2269
 9559TIP3    H250169   2.613   2.150  12.385  2.1047 -0.8880  1.2221
 9560TIP3   OH250170   3.882   0.004  40.168  0.3955  0.3746  0.9159
 9560TIP3    H150171   3.944   0.069  40.200 -1.0750  1.9485  0.6945
 9560TIP3    H250172   3.811   0.055  40.130 -0.2490 -1.3900 -0.3788
 9561TIP3   OH250173   2.805   1.412  32.043  0.1897  0.1106  0.6839
 9561TIP3    H150174   2.797   1.317  32.053  1.1536 -0.0246  0.2834
 9561TIP3    H250175   2.809   1.446  32.133 -1.6140 -0.0769  0.8594
 9562TIP3   OH250176   1.743   3.093   8.777 -0.0850  0.3859 -1.0031
 9562TIP3    H150177   1.831   3.131   8.777 -0.3805  1.1858  1.0560
 9562TIP3    H250178   1.752   3.010   8.824 -0.5136  0.7576 -0.2399
 9563TIP3   OH250179   0.128   1.935  22.757  0.1794 -0.4620  0.2490
 9563TIP3    H150180   0.202   1.874  22.758 -0.5923 -1.4423 -0.1860
 9563TIP3    H250181   0.119   1.964  22.847  1.9912  0.8259  0.0718
 9564TIP3   OH250182   3.158   4.144   1.517  0.0206 -0.0912 -0.1004
 9564TIP3    H150183   3.236   4.149   1.461  1.2730 -0.4443  1.5187
 9564TIP3    H250184   3.157   4.228   1.563  0.4959 -0.7589  1.1732
 9565TIP3   OH250185   4.081   1.030  40.953  0.2733 -0.0189  0.1922
 9565TIP3    H150186   4.146   1.003  40.888 -0.0588  0.3263 -0.2984
 9565TIP3    H250187   4.051   0.948  40.993 -0.6422 -0.4063 -1.1903
 9566TIP3   OH250188   3.455   0.326   5.756 -0.2502  0.0217 -0.3704
 9566TIP3    H150189   3.391   0.293   5.819 -0.9648 -0.4492 -1.3203
 9566TIP3    H250190   3.417   0.408   5.724  0.7395  0.9753  0.7572
 9567TIP3   OH250191   3.928   2.424   2.813 -0.6434  0.6472  0.0237
 9567TIP3    H150192   4.011   2.447   2.769 -0.0148 -0.5710  0.5287
 9567TIP3    H250193   3.938   2.457   2.902 -1.0042  1.1293 -0.1099
 9568TIP3   OH250194   4.279   3.531   2.809 -0.2098 -0.1338 -0.2103
 9568TIP3    H150195   4.340   3.604   2.822 -0.1155 -0.2687  0.1329
 9568TIP3    H250196   4.205   3.569   2.763 -0.1332  0.1654 -0.0885
 9569TIP3   OH250197   1.806   3.211   3.279 -0.1659 -0.4407  0.3753
 9569TIP3    H150198   1.798   3.219   3.374 -1.2319  1.8649  0.1548
 9569TIP3    H250199   1.725   3.248   3.245 -0.2552 -2.1883 -1.4467
 9570TIP3   OH250200   3.499   3.444   3.618 -0.3854  0.0542 -0.0670
 9570TIP3    H150201   3.553   3.452   3.697 -1.6433 -0.9062  0.9340
 9570TIP3    H250202   3.428   3.508   3.631 -0.1986  0.4136 -0.7733
 9571TIP3   OH250203   2.079   4.066  31.453 -0.1367 -0.5337 -0.3009
 9571TIP3    H150204   2.001   4.020  31.485  0.6703 -0.7401  1.4458
 9571TIP3    H250205   2.152   4.017  31.489  0.8245  0.0450 -1.3920
 9572TIP3   OH250206   1.678   1.074  27.934 -0.2507  0.1929  0.0395
 9572TIP3    H150207   1.655   1.165  27.954  1.3219  0.5077  0.5342
 9572TIP3    H250208   1.774   1.072  27.938 -0.2845 -1.7128  1.0878
 9573TIP3   OH250209   4.131   2.481   2.654  0.6752 -0.3618 -0.2272
 9573TIP3    H150210   4.214   2.440   2.677  0.8276  0.2662  0.3716
 9573TIP3    H250211   4.134   2.490   2.559  0.9390 -1.0731 -0.2930
 9574TIP3   OH250212   1.478   4.295   9.031 -0.5467 -0.3326  0.1418
 9574TIP3    H150213   1.398   4.279   9.081  0.1228  0.7648  1.6458
 9574TIP3    H250214   1.494   4.389   9.041  0.1415 -0.2622 -1.3828
 9575TIP3   OH250215   3.121   3.631   9.292 -0.2912  0.7180  0.4728
 9575TIP3    H150216   3.027   3.637   9.271 -0.2727 -0.8376 -0.1840
 9575TIP3    H250217   3.129   3.549   9.340  0.4968  1.7035  2.0932
 9576TIP3   OH250218   0.697   1.133   4.645  0.4368  0.3661 -0.8252
 9576TIP3    H150219   0.734   1.054   4.685  0.4075  0.4539 -0.6198
 9576TIP3    H250220   0.629   1.101   4.586 -1.2960  0.3304  1.0641
 9577TIP3   OH250221   2.217   0.023   1.754  0.5236  0.7288  0.0868
 9577TIP3    H150222   2.188   0.005   1.664 -0.3313  0.1614  0.4573
 9577TIP3    H250223   2.180   0.109   1.774 -1.7895 -0.3575  0.8596
 9578TIP3   OH250224   3.719   3.169  38.892 -0.4307 -0.1833 -0.7570
 9578TIP3    H150225   3.738   3.234  38.959  2.5214 -1.1165 -0.5069
 9578TIP3    H250226   3.650   3.208  38.839 -1.5110  1.4117  1.6474
 9579TIP3   OH250227   0.591   1.626  11.391  0.0768 -0.0114 -0.0658
 9579TIP3    H150228   0.668   1.674  11.361 -1.6404  2.2555 -1.1439
 9579TIP3    H250229   0.550   1.684  11.456 -2.7714  0.7971 -2.3546
 9580TIP3   OH250230   3.111   0.372   6.373  0.2021 -0.5822  0.1030
 9580TIP3    H150231   3.149   0.299   6.325 -1.0768 -2.5439  1.8609
 9580TIP3    H250232   3.018   0.370   6.350  0.3602  1.5087 -0.9627
 9581TIP3   OH250233   3.507   4.387  30.406  0.2569  0.1402  0.5301
 9581TIP3    H150234   3.600   4.389  30.425  0.0741 -1.1857  1.7201
 9581TIP3    H250235   3.467   4.444  30.472  0.0363 -1.0579  1.4655
 9582TIP3   OH250236   4.349   2.265  22.996  0.1231  0.4992  0.4373
 9582TIP3    H150237   4.441   2.280  22.975  0.3859 -0.0859  1.1349
 9582TIP3    H250238   4.304   2.268  22.911  0.6833  1.4089  0.1597
 9583TIP3   OH250239   1.571   0.330   0.969  0.0663 -0.3752 -0.4167
 9583TIP3    H150240   1.552   0.416   0.932 -0.7218 -0.2685  0.1944
 9583TIP3    H250241   1.646   0.345   1.026 -0.7104  0.1551  0.5033
 9584TIP3   OH250242   0.255   1.863  35.774  0.3784  0.1606  0.2079
 9584TIP3    H150243   0.314   1.935  35.797  0.9499 -0.2647  0.0840
 9584TIP3    H250244   0.186   1.904  35.721  0.4709  0.6837  0.4828
 9585TIP3   OH250245   1.022   3.543   4.498 -0.3104  0.1774 -0.3653
 9585TIP3    H150246   0.973   3.573   4.422  0.4598  0.3786 -0.7985
 9585TIP3    H250247   1.091   3.609   4.509 -0.5795  0.2992  0.6798
 9586TIP3   OH250248   0.627   0.693  10.480  0.6758 -0.6930  0.1845
 9586TIP3    H150249   0.642   0.737  10.563  1.2340  0.9179 -0.7330
 9586TIP3    H250250   0.651   0.602  10.496  0.6320 -0.4364  1.8106
 9587TIP3   OH250251   3.510   0.749   3.110 -0.7029 -0.0433  0.2003
 9587TIP3    H150252   3.430   0.778   3.066  1.6189  1.1224 -3.7521
 9587TIP3    H250253   3.527   0.818   3.175 -1.9720  0.5835 -0.0863
 9588TIP3   OH250254   2.211   0.210  32.566 -0.0445  0.7738  0.0748
 9588TIP3    H150255   2.280   0.270  32.539  1.5236  0.1198  2.3008
 9588TIP3    H250256   2.193   0.233  32.657  0.1502 -1.6406  0.7952
 9589TIP3   OH250257   4.346   0.630  30.085 -0.9791 -0.0786  0.3581
 9589TIP3    H150258   4.384   0.712  30.054  0.3224 -0.5494  0.6403
 9589TIP3    H250259   4.252   0.649  30.095 -1.1286  0.6795 -1.8491
 9590TIP3   OH250260   2.474   3.947  34.468 -0.6859 -0.1996 -0.1020
 9590TIP3    H150261   2.388   3.989  34.472 -2.2118 -2.9944 -0.8665
 9590TIP3    H250262   2.480   3.897  34.550 -0.3146 -0.9274 -0.5637
 9591TIP3   OH250263   1.424   3.643  10.096 -0.3636 -0.0062 -0.1214
 9591TIP3    H150264   1.500   3.693  10.126 -1.4208  0.5566  1.8365
 9591TIP3    H250265   1.354   3.708  10.090 -1.7298 -1.1141  2.3284
 9592TIP3   OH250266   0.480   3.947   2.587 -0.1354  0.2107  0.4552
 9592TIP3    H150267   0.554   3.912   2.537 -0.0654 -0.6554  1.1385
 9592TIP3    H250268   0.434   4.004   2.526  1.6939  1.6192  0.3212
 9593TIP3   OH250269   0.353   0.428  34.310  0.2278 -0.1117  0.1511
 9593TIP3    H150270   0.261   0.399  34.313  0.1665  0.0875  3.0478
 9593TIP3    H250271   0.402   0.350  34.285 -0.5946 -0.6649  0.2366
 9594TIP3   OH250272   3.329   4.013   1.338 -0.3719 -0.5172  0.4684
 9594TIP3    H150273   3.411   3.966   1.349  0.3882  0.6353 -0.0819
 9594TIP3    H250274   3.269   3.948   1.301  0.5144 -1.1531  0.1183
 9595TIP3   OH250275   0.283   1.642  28.613 -0.1015  0.0423 -0.4651
 9595TIP3    H150276   0.259   1.730  28.641  0.4915 -0.2043  0.9411
 9595TIP3    H250277   0.221   1.585  28.659 -1.6722 -0.2266 -2.7747
 9596TIP3   OH250278   3.665   3.071  11.652 -0.0911  0.4820  0.0366
 9596TIP3    H150279   3.642   3.113  11.735  2.0000  1.3918  0.2183
 9596TIP3    H250280   3.752   3.034  11.667 -0.9669 -2.1858 -0.7878
 9597TIP3   OH250281   1.719   2.872   7.713  0.3592  0.1935 -0.2211
 9597TIP3    H150282   1.750   2.782   7.727  0.5759  0.2807 -0.1295
 9597TIP3    H250283   1.703   2.877   7.619 -2.7614 -0.9167  0.1406
 9598TIP3   OH250284   2.115   3.970   0.499  0.1903  0.2795  0.0857
 9598TIP3    H150285   2.062   3.943   0.574 -1.2024  0.1185 -0.9135
 9598TIP3    H250286   2.188   3.908   0.497 -0.8375 -0.9763  0.1532
 9599TIP3   OH250287   4.320   2.597  30.326 -0.0094 -0.8285 -0.0306
 9599TIP3    H150288   4.390   2.604  30.261 -0.4529 -0.3546 -0.4616
 9599TIP3    H250289   4.303   2.687  30.354 -1.9042 -0.6733 -1.5077
 9600TIP3   OH250290   1.457   2.446  16.656  0.7459 -0.8043 -0.7825
 9600TIP3    H150291   1.466   2.539  16.636  0.4564 -1.1418 -2.7436
 9600TIP3    H250292   1.534   2.406  16.614  1.4882 -1.3482  1.0202
 9601TIP3   OH250293   3.210   0.063  29.370 -0.0670  0.3919 -0.0249
 9601TIP3    H150294   3.231  -0.030  29.373  0.5477  0.4705 -1.3037
 9601TIP3    H250295   3.213   0.092  29.461 -2.9249 -1.3862  0.7757
 9602TIP3   OH250296   1.708   2.869  37.472  0.0166 -0.9065  0.3533
 9602TIP3    H150297   1.652   2.881  37.395 -0.4437  0.4476  0.8727
 9602TIP3    H250298   1.789   2.914  37.449  0.3695 -1.6184  0.1692
 9603TIP3   OH250299   3.391   1.598  34.010 -0.1863  0.4237 -0.2545
 9603TIP3    H150300   3.338   1.637  34.080 -2.8765 -3.0504 -0.1026
 9603TIP3    H250301   3.439   1.527  34.053 -0.2447 -0.4169 -1.5407
 9604TIP3   OH250302   3.475   1.867  26.058  0.2654 -0.8199 -0.2358
 9604TIP3    H150303   3.538   1.938  26.046  0.8692 -1.1763  0.6566
 9604TIP3    H250304   3.450   1.841  25.970  0.0797  0.4581 -0.5750
 9605TIP3   OH250305   3.428   1.120  32.710  0.2673  0.2318 -0.1974
 9605TIP3    H150306   3.398   1.179  32.779  1.6528 -0.8001  1.3736
 9605TIP3    H250307   3.390   1.035  32.733  0.4294 -0.0467 -0.9278
 9606TIP3   OH250308   0.471   4.359   4.486  0.4726  0.3039  0.1922
 9606TIP3    H150309   0.485   4.310   4.567 -0.2151  2.0829  1.4650
 9606TIP3    H250310   0.400   4.313   4.442 -0.3028  0.2308  1.4579
 9607TIP3   OH250311   4.024   3.363  31.795 -0.3392 -0.4163 -0.6116
 9607TIP3    H150312   4.065   3.323  31.872 -2.8002  0.1185  1.0973
 9607TIP3    H250313   4.041   3.302  31.724  0.5992 -1.7856  0.7368
 9608TIP3   OH250314   3.031   2.773   0.117 -0.2893 -0.0132  0.7162
 9608TIP3    H150315   3.089   2.730   0.179  0.3563 -1.2273 -0.6790
 9608TIP3    H250316   2.963   2.709   0.099 -1.0708  0.7235  0.9516
 9609TIP3   OH250317   3.328   3.389  37.582  0.1250 -0.1305 -0.8643
 9609TIP3    H150318   3.259   3.327  37.560 -0.9358  1.0651 -1.0895
 9609TIP3    H250319   3.311   3.465  37.526  0.3780  1.0001  0.5217
 9610TIP3   OH250320   0.508   2.159  36.023  0.5127  0.1009  0.0548
 9610TIP3    H150321   0.561   2.085  36.053 -0.0917 -0.3560  0.0011
 9610TIP3    H250322   0.493   2.212  36.101  0.6803  0.0085  0.1507
 9611TIP3   OH250323   0.878   1.954  34.750  0.6004 -0.1449 -0.6073
 9611TIP3    H150324   0.951   1.911  34.705 -0.9744 -1.4454 -2.0924
 9611TIP3    H250325   0.865   1.902  34.829  0.8755 -0.3013 -0.6619
 9612TIP3   OH250326   0.112   4.071  26.634  0.3304  0.0047 -0.0623
 9612TIP3    H150327   0.100   3.980  26.664 -0.9752  0.5978  1.3773
 9612TIP3    H250328   0.176   4.065  26.563  1.4761 -1.8585  1.0489
 9613TIP3   OH250329   3.051   3.867  30.944 -0.2062  0.3645  0.4307
 9613TIP3    H150330   3.013   3.878  31.031 -2.0996 -0.6855 -0.2097
 9613TIP3    H250331   3.070   3.956  30.915 -1.0060  0.8455  1.3166
 9614TIP3   OH250332   2.973   1.575  34.083  0.1641  0.3526  0.1782
 9614TIP3    H150333   2.953   1.657  34.036  2.9280  0.4999 -0.9486
 9614TIP3    H250334   2.939   1.589  34.171 -1.2986  1.8503 -0.5649
 9615TIP3   OH250335   2.797   0.852  30.401  0.9552 -0.4423 -0.4931
 9615TIP3    H150336   2.784   0.896  30.317  3.2276 -0.3170 -0.8403
 9615TIP3    H250337   2.714   0.808  30.419 -0.7416  2.2516 -1.1375
 9616TIP3   OH250338   1.615   0.739   4.302 -0.8396 -0.2497  0.1844
 9616TIP3    H150339   1.661   0.782   4.374 -1.1288  0.0181  0.2102
 9616TIP3    H250340   1.678   0.741   4.229 -0.0931 -1.5759  0.7567
 9617TIP3   OH250341   2.496   0.988  31.559 -0.2493  0.2909  0.2112
 9617TIP3    H150342   2.432   1.007  31.627 -1.1308  0.5478 -0.6755
 9617TIP3    H250343   2.462   0.911  31.514  0.0120  0.4754 -0.3195
 9618TIP3   OH250344   2.723   1.679   3.969 -0.5239 -0.0337  0.2402
 9618TIP3    H150345   2.713   1.732   4.048  1.3111  0.3328  0.2652
 9618TIP3    H250346   2.749   1.593   4.001 -0.8063 -0.1819  0.0747
 9619TIP3   OH250347   0.201   0.164  20.858 -0.2103 -0.6468  0.1925
 9619TIP3    H150348   0.185   0.210  20.940  0.6158 -0.1399  0.0708
 9619TIP3    H250349   0.134   0.199  20.798  1.1949  1.4167 -0.2842
 9620TIP3   OH250350   0.710   0.735   5.807  0.7801  0.2857  0.0250
 9620TIP3    H150351   0.794   0.731   5.761  0.8615 -1.1420  0.2452
 9620TIP3    H250352   0.733   0.752   5.898  0.9254 -0.9651  0.2464
 9621TIP3   OH250353   3.248   4.221  28.311  0.2868 -0.4238  0.2751
 9621TIP3    H150354   3.169   4.207  28.259  0.5536  1.2525 -0.6544
 9621TIP3    H250355   3.217   4.241  28.399 -0.2166 -1.9135  0.4745
 9622TIP3   OH250356   4.312   1.295  24.268  0.5549 -0.0322  0.3411
 9622TIP3    H150357   4.317   1.230  24.198  0.7849  0.6341 -0.2699
 9622TIP3    H250358   4.404   1.316  24.287  0.5209 -0.5940  1.2247
 9623TIP3   OH250359   3.603   3.157   4.164  0.2103  0.5145 -0.0096
 9623TIP3    H150360   3.597   3.252   4.159  2.0030  0.7419  1.1035
 9623TIP3    H250361   3.697   3.139   4.171 -0.0391 -1.3809 -0.7851
 9624TIP3   OH250362   3.493   3.362  12.713  0.2963 -0.0208  0.0157
 9624TIP3    H150363   3.482   3.303  12.638 -0.7579 -0.9399  0.8505
 9624TIP3    H250364   3.540   3.309  12.778 -2.9045 -0.9475  1.7750
 9625TIP3   OH250365   2.781   0.689   6.611  0.1326  0.3472  0.5089
 9625TIP3    H150366   2.692   0.668   6.585  0.4588  1.5818 -1.8623
 9625TIP3    H250367   2.774   0.768   6.665 -0.2504  0.0531  0.8890
 9626TIP3   OH250368   2.923   2.325   0.672  0.3225 -0.1913  0.5057
 9626TIP3    H150369   2.872   2.402   0.697  0.8942 -0.5000  2.9544
 9626TIP3    H250370   2.900   2.258   0.737 -0.4624 -2.2875 -1.7837
 9627TIP3   OH250371   0.278   1.827   3.042 -0.1939  0.0790  0.2629
 9627TIP3    H150372   0.230   1.750   3.012 -0.4855  0.6777 -0.8792
 9627TIP3    H250373   0.361   1.792   3.074  0.1960 -0.6295 -1.3807
 9628TIP3   OH250374   4.154   3.200  41.292  0.3145 -0.4500 -0.5705
 9628TIP3    H150375   4.233   3.242  41.327 -0.5232  1.6693 -1.0272
 9628TIP3    H250376   4.159   3.215  41.198 -1.1952  0.8974 -0.4903
 9629TIP3   OH250377   2.747   3.990  39.015  0.1146  0.5438  0.4420
 9629TIP3    H150378   2.787   4.042  39.085 -0.6972  1.7374  0.0446
 9629TIP3    H250379   2.809   3.996  38.942 -0.5215  1.9349  0.0069
 9630TIP3   OH250380   2.451   1.721  11.403  0.2420  0.2915  0.6405
 9630TIP3    H150381   2.547   1.717  11.396  0.1552 -0.1576 -0.4454
 9630TIP3    H250382   2.434   1.810  11.434  0.9990  0.5341  0.4048
 9631TIP3   OH250383   3.605   3.051  34.199 -0.2779 -0.2953  0.5527
 9631TIP3    H150384   3.517   3.042  34.236 -0.2775 -0.5057  0.5065
 9631TIP3    H250385   3.647   3.117  34.254 -0.6341  0.1930  0.2585
 9632TIP3   OH250386   1.700   1.370   0.163 -0.4506  0.6851  0.0935
 9632TIP3    H150387   1.671   1.331   0.246  0.2266  0.2217  0.1222
 9632TIP3    H250388   1.621   1.374   0.109 -1.7048  4.0186  1.8646
 9633TIP3   OH250389   0.709   1.208  26.336 -0.2558 -0.2353  0.0227
 9633TIP3    H150390   0.697   1.131  26.391 -0.1932 -0.6100 -0.4809
 9633TIP3    H250391   0.621   1.231  26.308 -0.3695  0.3867  0.8404
 9634TIP3   OH250392   4.368   0.434  36.817  0.4731  0.0250  0.9557
 9634TIP3    H150393   4.330   0.375  36.752  1.8665  0.1569 -0.0291
 9634TIP3    H250394   4.312   0.512  36.813  1.7563  0.9234 -1.7436
 9635TIP3   OH250395   1.398   1.051   6.608  0.1209 -0.2273  0.0687
 9635TIP3    H150396   1.361   1.031   6.694  0.7883 -1.9456 -0.0126
 9635TIP3    H250397   1.365   1.139   6.588 -2.6680 -1.0468  0.6379
 9636TIP3   OH250398   2.895   3.463  13.599 -0.4062  0.5723  0.3455
 9636TIP3    H150399   2.899   3.552  13.566  1.4172  0.9266  1.3608
 9636TIP3    H250400   2.984   3.429  13.589 -0.6255 -0.4976  1.5983
 9637TIP3   OH250401   0.463   3.307  37.408 -0.4193 -0.2446 -0.1113
 9637TIP3    H150402   0.450   3.292  37.501 -2.7514 -0.5549 -0.4301
 9637TIP3    H250403   0.553   3.339  37.401  0.7823 -2.8468  1.9027
 9638TIP3   OH250404   0.591   0.586  40.320  0.3293  0.2069 -0.0084
 9638TIP3    H150405   0.667   0.542  40.283 -0.6888 -1.2996 -0.3915
 9638TIP3    H250406   0.561   0.644  40.250  0.6059  0.1612 -0.1708
 9639TIP3   OH250407   0.660   3.210  38.246  0.1091 -0.1040 -0.0241
 9639TIP3    H150408   0.629   3.279  38.305 -1.3663  1.1196 -2.0604
 9639TIP3    H250409   0.733   3.250  38.198  2.4601 -1.6684  2.0411
 9640TIP3   OH250410   1.330   3.961   7.298  0.0181 -0.3413 -0.1746
 9640TIP3    H150411   1.352   3.878   7.255 -0.8109 -0.8519  0.3611
 9640TIP3    H250412   1.247   3.944   7.342  0.3949  0.4432  0.8773
 9641TIP3   OH250413   3.042   1.835  30.448 -0.1880  0.4603  0.4116
 9641TIP3    H150414   3.028   1.792  30.533  0.2093  2.5613  1.5947
 9641TIP3    H250415   3.135   1.855  30.447  0.0176 -0.4477 -1.0129
 9642TIP3   OH250416   1.653   1.775   8.572 -0.1592 -0.2065 -0.1949
 9642TIP3    H150417   1.576   1.764   8.627  0.3597 -0.7624  0.4369
 9642TIP3    H250418   1.655   1.868   8.551 -0.8995 -0.1597 -0.0750
 9643TIP3   OH250419   4.402   1.230   7.354 -0.0005  0.1279 -0.1740
 9643TIP3    H150420   4.307   1.223   7.359 -0.0393  0.2588 -0.6658
 9643TIP3    H250421   4.418   1.304   7.296  0.4008  1.1823  1.2131
 9644TIP3   OH250422   0.333   0.531   5.249 -0.2012  1.1446 -0.1512
 9644TIP3    H150423   0.380   0.450   5.268 -1.0173  0.6893 -0.0240
 9644TIP3    H250424   0.400   0.599   5.249  0.1294  0.9006  2.4832
 9645TIP3   OH250425   3.812   2.115  33.480  0.4874 -0.2059  0.4529
 9645TIP3    H150426   3.784   2.200  33.513 -0.2434 -0.5198  0.6608
 9645TIP3    H250427   3.794   2.117  33.386  0.6263 -0.0748  0.4284
 9646TIP3   OH250428   3.714   0.263  11.326  0.1841  0.1904  0.0469
 9646TIP3    H150429   3.665   0.345  11.329 -2.4023 -1.2206 -0.5530
 9646TIP3    H250430   3.670   0.207  11.390  0.1803 -1.5588 -1.4091
 9647TIP3   OH250431   4.340   2.761  35.204 -0.1520  0.0781 -0.3518
 9647TIP3    H150432   4.433   2.777  35.191 -0.0819 -0.4188 -0.4940
 9647TIP3    H250433   4.334   2.666  35.213 -0.6548  0.1052 -0.4069
 9648TIP3   OH250434   3.513   0.460  37.203 -0.0401  0.8463 -0.0746
 9648TIP3    H150435   3.470   0.457  37.118 -0.5929 -0.3738  0.2337
 9648TIP3    H250436   3.458   0.406  37.260  2.7691 -2.3497 -0.0852
 9649TIP3   OH250437   1.955   0.677  32.434  0.7220  0.3258 -0.2512
 9649TIP3    H150438   2.002   0.719  32.505 -0.3178  0.2122  0.5338
 9649TIP3    H250439   1.923   0.595  32.472 -0.3530  0.5433 -0.6489
 9650TIP3   OH250440   3.070   1.258  32.914  0.1465 -0.1044 -0.7075
 9650TIP3    H150441   3.043   1.169  32.937 -1.2434  0.7349  1.1566
 9650TIP3    H250442   2.998   1.291  32.860  0.2778  0.1363 -0.7331
 9651TIP3   OH250443   0.799   3.686   2.126  0.0343 -0.1050  0.2247
 9651TIP3    H150444   0.861   3.749   2.088 -0.4665  0.8569  0.9697
 9651TIP3    H250445   0.749   3.653   2.051  2.1766 -1.8013 -0.5947
 9652TIP3   OH250446   0.424   2.713   5.575  0.3434 -0.3224 -0.1882
 9652TIP3    H150447   0.437   2.619   5.560  0.5647 -0.1199 -1.4375
 9652TIP3    H250448   0.334   2.729   5.547  0.1268 -0.2473  0.5324
 9653TIP3   OH250449   2.470   4.098  29.052 -0.1841 -0.0810  0.3707
 9653TIP3    H150450   2.476   4.108  29.147  2.5094 -0.9430  0.3809
 9653TIP3    H250451   2.437   4.009  29.039 -0.4558  0.0009  0.4952
 9654TIP3   OH250452   1.165   3.383  13.620 -0.4500  0.1578  0.3102
 9654TIP3    H150453   1.195   3.454  13.676  0.7314  0.1006 -0.2038
 9654TIP3    H250454   1.179   3.414  13.531 -2.0118  0.1261  0.0219
 9655TIP3   OH250455   2.955   4.217   5.064 -1.0443 -0.3740  0.4003
 9655TIP3    H150456   2.996   4.167   5.135 -0.4820  0.0263  0.3648
 9655TIP3    H250457   2.986   4.175   4.984  1.5841  1.5387  0.2531
 9656TIP3   OH250458   2.895   2.815  34.770  0.8004 -0.3244 -0.1405
 9656TIP3    H150459   2.882   2.809  34.675 -0.9420 -0.1202  0.0442
 9656TIP3    H250460   2.955   2.889  34.782 -1.3937  1.7063 -0.9829
 9657TIP3   OH250461   2.815   3.592   8.996 -0.1040 -0.1378  0.1201
 9657TIP3    H150462   2.721   3.580   9.010  0.0926 -2.0800 -0.0040
 9657TIP3    H250463   2.842   3.652   9.066 -1.3522  0.1503  0.3733
 9658TIP3   OH250464   4.130   0.642  38.084 -0.0387  0.3349 -0.2349
 9658TIP3    H150465   4.176   0.581  38.142 -0.2420 -0.9291 -1.3510
 9658TIP3    H250466   4.077   0.695  38.143  0.1438 -0.5775  0.7858
 9659TIP3   OH250467   1.316   1.124  32.595  0.2944 -0.3528  0.0959
 9659TIP3    H150468   1.300   1.038  32.633 -2.4841 -0.2335 -0.5374
 9659TIP3    H250469   1.253   1.130  32.522  1.1080  1.8078 -0.5187
 9660TIP3   OH250470   4.345   0.296   1.131 -0.1615 -0.3230 -0.2808
 9660TIP3    H150471   4.418   0.235   1.133 -0.0695 -0.2227 -0.6313
 9660TIP3    H250472   4.298   0.279   1.213  0.9788  0.5146  0.5717
 9661TIP3   OH250473   3.524   3.400   0.758 -0.7294 -0.1754 -0.2549
 9661TIP3    H150474   3.471   3.467   0.715  0.2287  0.1736 -0.9313
 9661TIP3    H250475   3.605   3.444   0.781 -0.5793 -0.7905  0.4269
 9662TIP3   OH250476   0.899   2.955  34.758  0.7850  0.6468 -0.1487
 9662TIP3    H150477   0.819   2.944  34.706 -0.6252  0.6490  1.9232
 9662TIP3    H250478   0.936   2.867  34.765  0.9681  0.6385 -1.0605
 9663TIP3   OH250479   4.163   3.886  39.923 -0.6896  0.5102  0.6087
 9663TIP3    H150480   4.169   3.925  40.010 -2.0394  0.0096  0.9558
 9663TIP3    H250481   4.070   3.863  39.913 -0.3215 -0.6685 -0.4204
 9664TIP3   OH250482   1.385   2.250  32.050  0.0844  0.0273  0.4633
 9664TIP3    H150483   1.332   2.186  32.001  0.4341  0.5255 -0.6078
 9664TIP3    H250484   1.330   2.329  32.052  0.9752  0.7374 -1.1702
 9665TIP3   OH250485   3.758   1.637  30.297  0.2751 -0.2192 -0.1631
 9665TIP3    H150486   3.756   1.600  30.209 -0.7769  0.1499 -0.3067
 9665TIP3    H250487   3.851   1.647  30.317  0.5276 -0.6500 -1.0783
 9666TIP3   OH250488   1.888   1.330  37.772  0.5224  0.5173  0.1246
 9666TIP3    H150489   1.963   1.356  37.720  0.7165  1.1947  0.7336
 9666TIP3    H250490   1.909   1.241  37.802  0.6718  0.3582 -0.4446
 9667TIP3   OH250491   0.057   2.776   2.572  0.1765  0.7306  0.0170
 9667TIP3    H150492  -0.028   2.821   2.573  0.3301  1.0204  0.1006
 9667TIP3    H250493   0.071   2.748   2.662 -0.8855 -1.3307 -0.4018
 9668TIP3   OH250494   2.065   0.741  30.945 -0.0454  0.2033  0.0571
 9668TIP3    H150495   1.975   0.713  30.930 -0.0392  0.8195 -1.2370
 9668TIP3    H250496   2.112   0.714  30.866  0.6549  0.8838  0.2302
 9669TIP3   OH250497   0.111   1.104  26.253 -0.2135 -0.5104 -0.4183
 9669TIP3    H150498   0.147   1.038  26.313  0.5214 -2.3145 -2.6965
 9669TIP3    H250499   0.016   1.098  26.265 -0.0981 -1.1296  0.2575
 9670TIP3   OH250500   2.995   1.791  31.690  0.1300  0.2124 -0.0145
 9670TIP3    H150501   2.998   1.703  31.727  1.9741 -0.2395 -1.0901
 9670TIP3    H250502   3.033   1.782  31.602 -3.1414  1.3921 -1.7363
 9671TIP3   OH250503   1.792   0.356  18.139 -0.1326  0.4633  0.1223
 9671TIP3    H150504   1.736   0.369  18.215 -1.3520  0.4365 -0.7426
 9671TIP3    H250505   1.805   0.445  18.104  0.0989  0.4336  0.1311
 9672TIP3   OH250506   3.509   2.012   3.771 -0.1104 -0.3407 -0.9907
 9672TIP3    H150507   3.535   2.090   3.820  2.0771 -0.2405 -2.1794
 9672TIP3    H250508   3.560   2.017   3.690 -1.1680 -2.1701 -1.8210
 9673TIP3   OH250509   2.127   0.278  32.844 -0.3260  0.5168 -0.2969
 9673TIP3    H150510   2.220   0.259  32.857 -0.3281  1.0942  0.6036
 9673TIP3    H250511   2.083   0.224  32.910 -0.6312  0.3389 -0.6428
 9674TIP3   OH250512   1.921   0.740  27.241  0.5363 -0.1632  0.2345
 9674TIP3    H150513   1.893   0.830  27.257  1.1231 -0.0238  0.5173
 9674TIP3    H250514   1.930   0.735  27.146 -1.0839 -0.4223  0.0590
 9675TIP3   OH250515   2.643   4.183  19.585  0.5767 -1.0570  0.3909
 9675TIP3    H150516   2.711   4.186  19.519 -1.2349 -1.7526 -1.6237
 9675TIP3    H250517   2.561   4.179  19.536 -0.8314 -2.8598  2.6332
 9676TIP3   OH250518   2.028   3.854   0.775  0.2818 -0.4190 -0.2447
 9676TIP3    H150519   2.078   3.820   0.849  3.7876  2.1200 -1.1777
 9676TIP3    H250520   2.043   3.792   0.704 -0.1221 -1.0034  0.1705
 9677TIP3   OH250521   3.098   3.575   1.908  0.8528 -0.0544  0.0975
 9677TIP3    H150522   3.119   3.666   1.931 -1.3636  0.6121 -0.3713
 9677TIP3    H250523   3.073   3.578   1.816  2.0783 -1.4174 -0.3233
 9678TIP3   OH250524   4.342   0.101   9.186  0.4585 -0.4089 -0.4610
 9678TIP3    H150525   4.384   0.187   9.187  1.8397 -1.0568  0.5487
 9678TIP3    H250526   4.389   0.052   9.118  0.3634 -0.6732 -0.3406
 9679TIP3   OH250527   3.803   0.309  32.170  0.8999 -0.1589  0.0806
 9679TIP3    H150528   3.832   0.286  32.082 -1.8072  0.5060 -1.0975
 9679TIP3    H250529   3.765   0.229  32.205  0.4328  0.0065 -0.0458
 9680TIP3   OH250530   3.312   2.790   3.806  0.3946  0.4815  0.7671
 9680TIP3    H150531   3.334   2.868   3.754  2.5754  0.0086  0.9012
 9680TIP3    H250532   3.261   2.824   3.880 -0.1853  1.5379 -0.0824
 9681TIP3   OH250533   2.327   1.952   1.639  0.5556 -0.3955 -0.5048
 9681TIP3    H150534   2.294   1.913   1.720 -1.7683 -0.2206 -1.2827
 9681TIP3    H250535   2.368   1.880   1.592  0.7265 -0.7915  0.2446
 9682TIP3   OH250536   2.486   0.453   9.114 -0.3639  0.1430  0.6382
 9682TIP3    H150537   2.512   0.531   9.163 -1.1179  1.5818 -1.1234
 9682TIP3    H250538   2.394   0.440   9.137 -0.3618  0.0354  0.5856
 9683TIP3   OH250539   0.698   1.865  37.971  0.3894  0.0923  0.3096
 9683TIP3    H150540   0.651   1.787  37.997 -2.0637  0.0224 -3.4655
 9683TIP3    H250541   0.782   1.833  37.938  0.0017 -0.7906  0.1569
 9684TIP3   OH250542   0.043   3.556  10.911 -0.4311  0.4393 -0.2559
 9684TIP3    H150543  -0.038   3.521  10.873  0.5208 -1.3583 -0.7593
 9684TIP3    H250544   0.106   3.552  10.840  0.0256  2.2906 -0.0068
 9685TIP3   OH250545   1.493   1.393  34.820  0.0740  0.3200  0.1023
 9685TIP3    H150546   1.446   1.393  34.904 -1.5207  1.0746 -0.7486
 9685TIP3    H250547   1.581   1.363  34.842 -0.9321 -1.6799  1.6827
 9686TIP3   OH250548   0.308   3.522   4.670  0.0579 -0.3808 -0.7402
 9686TIP3    H150549   0.325   3.430   4.692 -0.6281 -0.4154 -0.3293
 9686TIP3    H250550   0.305   3.567   4.754  1.3218  0.1958 -0.9865
 9687TIP3   OH250551   4.002   1.721  29.625  0.6214  0.0596  0.3856
 9687TIP3    H150552   4.069   1.725  29.693  0.9940  2.4552 -0.0073
 9687TIP3    H250553   4.038   1.774  29.553 -1.6520  1.4404  0.1721
 9688TIP3   OH250554   1.099   3.092   5.143  0.2902 -0.1997 -0.5681
 9688TIP3    H150555   1.070   3.164   5.199  3.4750  0.8291 -0.0455
 9688TIP3    H250556   1.153   3.037   5.200  1.9470 -0.2516 -2.0990
 9689TIP3   OH250557   1.185   2.137  14.431  0.0974  0.4159 -0.3350
 9689TIP3    H150558   1.168   2.144  14.524  0.1775 -2.1919 -0.0373
 9689TIP3    H250559   1.280   2.135  14.423  0.1091 -1.1104 -0.2203
 9690TIP3   OH250560   0.089   4.011  28.972  0.1767 -0.4584 -0.4548
 9690TIP3    H150561   0.082   4.028  29.066  0.1110 -0.4698 -0.4575
 9690TIP3    H250562   0.076   4.097  28.931  0.3642 -0.4277 -0.4472
 9691TIP3   OH250563   0.895   3.656  36.934  0.0498 -0.3109 -0.2934
 9691TIP3    H150564   0.978   3.617  36.909 -0.2868 -1.5550  0.4495
 9691TIP3    H250565   0.840   3.582  36.959 -0.3343  0.6487  1.9979
 9692TIP3   OH250566   4.252   2.056  11.645 -0.3869  0.4581  0.5536
 9692TIP3    H150567   4.204   2.011  11.575  1.9276  1.3535 -1.8052
 9692TIP3    H250568   4.209   2.141  11.652 -0.2268  0.6266 -0.3318
 9693TIP3   OH250569   2.279   2.807  41.317 -0.2351  0.0370 -0.0301
 9693TIP3    H150570   2.257   2.891  41.276  1.3169  0.2837 -0.4387
 9693TIP3    H250571   2.362   2.824  41.362  0.4208 -1.4360 -0.6414
 9694TIP3   OH250572   2.663   0.327   3.695 -0.3114  0.3573  0.2185
 9694TIP3    H150573   2.669   0.386   3.770  0.1806 -0.4771  0.8619
 9694TIP3    H250574   2.586   0.273   3.713 -0.3445  0.3299 -0.0072
 9695TIP3   OH250575   3.786   3.728  40.945 -0.0685  0.2787 -0.2220
 9695TIP3    H150576   3.872   3.750  40.982  0.4382 -1.3073 -0.3821
 9695TIP3    H250577   3.796   3.744  40.852  0.4656 -1.0524 -0.4110
 9696TIP3   OH250578   3.981   1.761  34.333 -0.6151  0.6307 -0.1376
 9696TIP3    H150579   4.063   1.750  34.382 -2.2078 -0.4878  2.5106
 9696TIP3    H250580   3.999   1.831  34.271  2.4500  0.1450  0.0619
 9697TIP3   OH250581   3.723   3.448   3.790 -0.5111 -0.5947  0.0563
 9697TIP3    H150582   3.783   3.488   3.728 -2.8163  3.5070  0.1306
 9697TIP3    H250583   3.780   3.409   3.857  2.0770  1.8454 -0.5481
 9698TIP3   OH250584   2.855   2.840  41.380  0.3175  0.1449 -0.4757
 9698TIP3    H150585   2.771   2.862  41.340  0.8107 -0.0794 -1.6606
 9698TIP3    H250586   2.852   2.882  41.466 -1.6727 -1.2280  0.2008
 9699TIP3   OH250587   1.589   0.431  40.121 -0.2559 -0.6470 -0.1362
 9699TIP3    H150588   1.676   0.407  40.152 -0.3518 -0.4791  0.2719
 9699TIP3    H250589   1.603   0.464  40.032  0.1801 -0.0351  0.1527
 9700TIP3   OH250590   2.606   0.472   4.505  0.5249  0.2743 -0.3876
 9700TIP3    H150591   2.656   0.400   4.466 -1.0337 -0.2452 -1.5705
 9700TIP3    H250592   2.671   0.526   4.549  1.6762 -2.3613  1.4140
 9701TIP3   OH250593   0.624   1.251  10.284 -0.3980  0.1464  0.5864
 9701TIP3    H150594   0.707   1.234  10.241  0.1003  2.1297  0.6875
 9701TIP3    H250595   0.591   1.164  10.307  0.8751 -0.7658 -0.8393
 9702TIP3   OH250596   0.720   0.498  40.966 -0.1260 -0.0688  0.1710
 9702TIP3    H150597   0.769   0.567  41.011 -1.6267  0.9101  0.3799
 9702TIP3    H250598   0.631   0.532  40.960 -0.5460 -1.3016 -1.2195
 9703TIP3   OH250599   1.840   0.110  29.544  0.3671 -0.0898 -0.9130
 9703TIP3    H150600   1.781   0.041  29.575 -1.1235  0.6816 -1.9283
 9703TIP3    H250601   1.920   0.064  29.520 -0.5342 -1.4694 -1.4217
 9704TIP3   OH250602   4.297   2.409   0.363  0.5710 -0.3918  0.0702
 9704TIP3    H150603   4.248   2.328   0.349  0.0188 -0.1939  0.8131
 9704TIP3    H250604   4.388   2.384   0.347  0.2417 -0.7315 -1.4340
 9705TIP3   OH250605   3.716   2.124  33.806  0.1072 -0.5542 -0.2311
 9705TIP3    H150606   3.652   2.167  33.750  1.8379  0.9745 -1.1704
 9705TIP3    H250607   3.794   2.179  33.799  0.4704 -0.2996  3.6756
 9706TIP3   OH250608   3.904   1.105  28.008 -0.0804  0.0545 -0.2475
 9706TIP3    H150609   3.953   1.144  27.935 -0.8879 -0.4630 -1.0872
 9706TIP3    H250610   3.925   1.011  28.003  0.1796  0.0689  0.4482
 9707TIP3   OH250611   3.542   4.199  36.406 -0.1149  0.7966  0.4052
 9707TIP3    H150612   3.635   4.188  36.422 -0.4749 -1.4505  1.4012
 9707TIP3    H250613   3.523   4.289  36.431  1.5187  0.8553  1.5523
 9708TIP3   OH250614   0.561   4.272   5.213 -0.2395 -0.2468 -0.2885
 9708TIP3    H150615   0.481   4.309   5.177 -0.0278 -0.4527 -0.9872
 9708TIP3    H250616   0.600   4.223   5.140  0.7866  0.2795 -0.1073
 9709TIP3   OH250617   1.109   3.905   7.968 -0.1277  0.3857  0.0232
 9709TIP3    H150618   1.178   3.971   7.970  0.4417 -0.2056  1.3895
 9709TIP3    H250619   1.118   3.859   8.051 -1.5203 -0.3848 -0.2226
 9710TIP3   OH250620   0.285   0.393   8.980  0.0875 -0.4604 -0.6443
 9710TIP3    H150621   0.242   0.308   8.972  0.7704 -0.7755 -1.0353
 9710TIP3    H250622   0.359   0.377   9.038 -0.3348  0.0925  0.0635
 9711TIP3   OH250623   0.914   2.339  29.955  0.1108  0.1599 -0.1664
 9711TIP3    H150624   0.952   2.266  30.003  0.1542 -0.0037 -0.4488
 9711TIP3    H250625   0.905   2.409  30.020 -1.2200 -0.5428  0.4480
 9712TIP3   OH250626   1.475   1.376   7.179  0.1781 -0.8069  0.7180
 9712TIP3    H150627   1.544   1.425   7.135 -1.8674  0.4689 -1.3024
 9712TIP3    H250628   1.483   1.400   7.271  1.4421  0.4960  0.2992
 9713TIP3   OH250629   1.844   2.453  18.121 -0.0909 -0.5292 -0.3230
 9713TIP3    H150630   1.887   2.530  18.159 -1.4303  0.1854 -0.1860
 9713TIP3    H250631   1.860   2.383  18.185 -0.8322  0.2349  0.7420
 9714TIP3   OH250632   1.590   3.720  28.708  0.0689 -0.0766  0.0057
 9714TIP3    H150633   1.565   3.784  28.641 -1.2539 -0.5112  0.0559
 9714TIP3    H250634   1.669   3.756  28.748  1.2182 -0.0535 -2.1364
 9715TIP3   OH250635   2.543   1.950   4.043  0.2970  0.0005 -0.7064
 9715TIP3    H150636   2.519   2.008   3.971 -1.6415  1.5115  1.0589
 9715TIP3    H250637   2.511   1.864   4.016 -0.5021  0.5606 -1.6134
 9716TIP3   OH250638   1.008   4.161  12.783 -0.5394 -0.3886  0.2258
 9716TIP3    H150639   1.077   4.125  12.727  0.3344  0.0750  0.9971
 9716TIP3    H250640   1.045   4.241  12.819 -1.3871 -0.2644  0.8472
 9717TIP3   OH250641   0.093   0.378  39.218  0.1115 -0.8025  0.3604
 9717TIP3    H150642   0.097   0.296  39.169 -0.1098 -1.1548  0.9137
 9717TIP3    H250643   0.003   0.408  39.206  0.5524  0.0555 -0.9313
 9718TIP3   OH250644   0.618   2.184   5.178 -0.1460 -0.1062  0.1316
 9718TIP3    H150645   0.709   2.184   5.208 -0.6514 -0.9799  1.8252
 9718TIP3    H250646   0.584   2.269   5.204  0.3205  0.4273 -0.9812
 9719TIP3   OH250647   3.017   2.911   8.019  0.0977 -0.6090  0.0763
 9719TIP3    H150648   3.083   2.863   7.969  0.6742  0.0021  0.2373
 9719TIP3    H250649   3.058   2.996   8.037 -1.7793  0.8884 -2.2419
 9720TIP3   OH250650   4.276   1.392   8.574 -0.1538  0.4323  0.1888
 9720TIP3    H150651   4.200   1.410   8.629 -0.2159  2.1192 -0.3965
 9720TIP3    H250652   4.351   1.410   8.630 -0.2029  0.6654  0.1797
 9721TIP3   OH250653   2.368   3.176  37.175  0.3857 -0.0093  0.0838
 9721TIP3    H150654   2.439   3.136  37.126  1.0759 -1.1847  1.9481
 9721TIP3    H250655   2.300   3.192  37.110  2.0825  0.5865 -1.6413
 9722TIP3   OH250656   1.832   1.961  34.048 -0.2025  0.3339  0.3543
 9722TIP3    H150657   1.785   1.901  34.106  1.7788 -1.1810  0.5085
 9722TIP3    H250658   1.813   1.928  33.960  0.5186 -0.2363  0.4124
 9723TIP3   OH250659   2.006   3.869  37.458  0.5397 -0.1146 -0.4020
 9723TIP3    H150660   2.093   3.836  37.482  0.3741  0.2738  0.7568
 9723TIP3    H250661   1.949   3.792  37.464  0.0088  0.4283  3.0439
 9724TIP3   OH250662   0.522   3.580  11.188  0.0895  0.0840  0.3397
 9724TIP3    H150663   0.579   3.570  11.112  0.1356  1.0054  0.2458
 9724TIP3    H250664   0.441   3.616  11.153 -0.4493 -0.9201  0.5192
 9725TIP3   OH250665   2.650   4.091  33.699 -0.1337 -0.3980 -0.2656
 9725TIP3    H150666   2.613   4.179  33.703 -2.2516 -1.2315  0.5218
 9725TIP3    H250667   2.663   4.074  33.606  2.4148  1.4969 -0.3400
 9726TIP3   OH250668   2.283   1.461  12.599  0.1076 -0.2532 -0.0867
 9726TIP3    H150669   2.258   1.370  12.612  1.2725 -0.4428  1.0560
 9726TIP3    H250670   2.203   1.511  12.617 -0.1221 -0.9584  0.9143
 9727TIP3   OH250671   4.260   2.832   2.057 -0.2679 -0.6731 -0.2173
 9727TIP3    H150672   4.323   2.866   2.120 -0.8558 -0.7350  0.4045
 9727TIP3    H250673   4.176   2.867   2.085 -0.8428 -2.3101  0.2250
 9728TIP3   OH250674   3.676   0.415   1.755  0.5584  0.3623 -0.1992
 9728TIP3    H150675   3.756   0.408   1.702  0.7999  0.9541  0.0772
 9728TIP3    H250676   3.613   0.458   1.697 -0.0997 -1.5664 -0.9908
 9729TIP3   OH250677   2.132   2.688  28.872  0.6289 -0.1806 -0.1183
 9729TIP3    H150678   2.214   2.652  28.838 -0.1507 -0.7993 -1.4183
 9729TIP3    H250679   2.063   2.641  28.826 -0.4705  0.9306  0.3028
 9730TIP3   OH250680   0.877   1.194  14.663 -0.2340 -0.3525  0.7123
 9730TIP3    H150681   0.876   1.111  14.616 -0.6319  0.3784 -0.6050
 9730TIP3    H250682   0.944   1.183  14.731 -0.5287 -1.8506  0.7777
 9731TIP3   OH250683   0.691   3.866   1.630  0.1967 -0.1172 -0.5204
 9731TIP3    H150684   0.676   3.809   1.555 -0.0060 -0.3227 -0.3243
 9731TIP3    H250685   0.783   3.852   1.653  0.6513  0.9529 -1.5639
 9732TIP3   OH250686   0.109   3.199  39.027 -0.0513 -0.3157 -0.0387
 9732TIP3    H150687   0.079   3.108  39.025  3.3358 -1.8798  4.1515
 9732TIP3    H250688   0.201   3.194  39.000 -0.1294  2.1791 -1.0046
 9733TIP3   OH250689   0.471   3.215  32.432  0.1579  0.2752  0.0101
 9733TIP3    H150690   0.411   3.140  32.432 -0.5768  0.8253  1.1626
 9733TIP3    H250691   0.472   3.244  32.523  2.3761  0.1519  0.0682
 9734TIP3   OH250692   1.618   0.427  34.709  0.5888 -0.1215 -0.7061
 9734TIP3    H150693   1.683   0.453  34.644 -0.8515  2.3120 -1.3089
 9734TIP3    H250694   1.670   0.405  34.787  2.1590  1.5895 -1.1899
 9735TIP3   OH250695   2.214   3.135  37.893 -0.2175  0.0900  0.4556
 9735TIP3    H150696   2.216   3.048  37.855 -0.0766 -0.8111  2.4343
 9735TIP3    H250697   2.302   3.170  37.877 -0.1975 -0.2268 -0.1333
 9736TIP3   OH250698   1.851   1.358  18.118  0.1990  0.5789 -0.0321
 9736TIP3    H150699   1.879   1.438  18.162 -1.4832  1.2991 -0.1964
 9736TIP3    H250700   1.899   1.358  18.035 -0.1539  1.6777 -0.2512
 9737TIP3   OH250701   0.459   3.373  35.354  0.1798 -0.3514 -0.4469
 9737TIP3    H150702   0.364   3.377  35.365  0.2685 -1.0970  0.8664
 9737TIP3    H250703   0.472   3.312  35.281 -0.3737  1.6175 -2.2807
 9738TIP3   OH250704   2.643   0.949   7.871  0.0397 -0.5114 -0.1673
 9738TIP3    H150705   2.702   1.021   7.849  0.0042 -0.6016 -0.5738
 9738TIP3    H250706   2.701   0.878   7.899 -0.0295  0.5427  2.9394
 9739TIP3   OH250707   1.218   0.743  13.319 -0.3655  0.3282 -0.1617
 9739TIP3    H150708   1.204   0.659  13.276 -0.8575  0.6817 -0.7093
 9739TIP3    H250709   1.304   0.735  13.360  0.0679 -0.0762 -1.1033
 9740TIP3   OH250710   3.301   1.940   8.940  0.3021  0.3809 -0.3518
 9740TIP3    H150711   3.368   1.961   9.004 -0.4484 -0.7134  0.8543
 9740TIP3    H250712   3.336   1.866   8.891  0.6417  0.8616 -0.8499
 9741TIP3   OH250713   4.351   3.716  37.251  0.1858  0.0795 -0.3598
 9741TIP3    H150714   4.364   3.622  37.238 -0.6144 -0.2093  0.7876
 9741TIP3    H250715   4.292   3.742  37.180  0.1086 -0.3654 -0.4596
 9742TIP3   OH250716   3.033   3.280  32.990  0.2789  0.2633  0.2293
 9742TIP3    H150717   3.052   3.305  33.080 -1.1377 -0.1617  0.6799
 9742TIP3    H250718   3.008   3.188  32.996 -2.7576  0.9720 -0.0902
 9743TIP3   OH250719   2.239   2.148   4.269 -0.0946  0.8658 -0.2144
 9743TIP3    H150720   2.163   2.187   4.312  0.4082  3.4639 -1.5042
 9743TIP3    H250721   2.314   2.187   4.313  0.5003 -0.1989 -0.2488
 9744TIP3   OH250722   0.317   2.977   7.325  0.0939 -0.2178 -0.3064
 9744TIP3    H150723   0.395   2.993   7.379  0.3993 -0.6111 -0.6361
 9744TIP3    H250724   0.305   2.882   7.328  0.7161 -0.3556 -1.7774
 9745TIP3   OH250725   4.342   0.994  26.671  0.4736 -0.1629 -0.2131
 9745TIP3    H150726   4.411   0.931  26.649 -0.8134 -1.2136 -1.4229
 9745TIP3    H250727   4.282   0.945  26.727 -0.7631 -0.1828 -1.5098
 9746TIP3   OH250728   2.747   0.980  29.381 -0.2549 -0.3711 -0.0634
 9746TIP3    H150729   2.673   1.039  29.397 -1.0867 -1.0037 -1.3633
 9746TIP3    H250730   2.822   1.038  29.372 -0.2064  0.2083  2.9359
 9747TIP3   OH250731   1.264   3.864  10.464  0.2151  0.3436  0.4495
 9747TIP3    H150732   1.265   3.941  10.407 -1.6065  0.2795  0.2820
 9747TIP3    H250733   1.355   3.834  10.464  0.6195  1.4315 -0.9252
 9748TIP3   OH250734   2.840   4.211  39.877  0.0863 -0.5389 -0.4121
 9748TIP3    H150735   2.866   4.122  39.904  1.5991 -0.5634 -1.7813
 9748TIP3    H250736   2.762   4.197  39.823 -0.3214 -0.9100  0.2522
 9749TIP3   OH250737   0.420   4.177  27.971  0.2170 -0.8478  0.1721
 9749TIP3    H150738   0.477   4.104  27.996  2.6842  0.7555 -0.3856
 9749TIP3    H250739   0.435   4.243  28.038  1.3234  0.7219 -1.5229
 9750TIP3   OH250740   2.303   3.187  32.276  0.1226  0.1130  0.4863
 9750TIP3    H150741   2.270   3.245  32.207  0.6150 -0.7696 -0.5019
 9750TIP3    H250742   2.398   3.200  32.276  0.3073 -1.1275 -0.1592
 9751TIP3   OH250743   3.600   3.236   9.993 -0.4394 -0.0011  0.6644
 9751TIP3    H150744   3.642   3.211  10.076  0.3013  1.0785  0.6361
 9751TIP3    H250745   3.673   3.263   9.937 -0.9214 -0.8621 -0.4012
 9752TIP3   OH250746   4.348   3.353   7.849  0.0489 -0.1867 -0.0106
 9752TIP3    H150747   4.390   3.433   7.818  0.2966 -0.6340 -0.8656
 9752TIP3    H250748   4.367   3.350   7.943  0.0289  0.7559  0.0262
 9753TIP3   OH250749   1.621   3.533  37.984  0.0316 -0.5127  0.0738
 9753TIP3    H150750   1.528   3.537  37.963 -0.5797 -0.7444  2.4040
 9753TIP3    H250751   1.624   3.536  38.080  2.6016  2.8137  0.0821
 9754TIP3   OH250752   0.340   3.209  28.077 -0.3683 -0.1002 -0.0832
 9754TIP3    H150753   0.415   3.204  28.017  0.1804  1.8514  0.3767
 9754TIP3    H250754   0.273   3.258  28.029 -1.4429 -1.9118 -0.5268
 9755TIP3   OH250755   4.041   2.630  34.751 -0.5489  0.2830 -0.3453
 9755TIP3    H150756   3.978   2.638  34.821 -0.0725  1.2222 -0.0062
 9755TIP3    H250757   4.119   2.591  34.792 -0.6142 -0.1113 -0.5830
 9756TIP3   OH250758   1.804   3.660  37.397 -0.0510 -0.5860  0.7613
 9756TIP3    H150759   1.753   3.608  37.335  1.1441 -1.0407  0.1380
 9756TIP3    H250760   1.892   3.622  37.394  0.1325 -0.3709  2.4517
 9757TIP3   OH250761   2.066   0.686  29.942 -0.4373 -0.2605  0.2473
 9757TIP3    H150762   2.088   0.596  29.965 -1.9632 -0.5342  0.7970
 9757TIP3    H250763   2.125   0.740  29.995 -0.3285 -0.9434  0.8319
 9758TIP3   OH250764   1.801   4.111  37.130 -0.2982 -0.3698 -0.4515
 9758TIP3    H150765   1.818   4.205  37.119  0.7948 -0.3048  1.4190
 9758TIP3    H250766   1.869   4.081  37.190 -1.5596 -2.0364  0.2263
 9759TIP3   OH250767   3.810   1.872   4.593 -0.0796  0.0340  0.9379
 9759TIP3    H150768   3.877   1.843   4.532 -0.4882  0.1199  0.4448
 9759TIP3    H250769   3.780   1.956   4.558 -1.0007 -0.3786  0.7124
 9760TIP3   OH250770   2.355   2.083  32.572  0.1959 -0.1682 -0.2174
 9760TIP3    H150771   2.291   2.049  32.635  1.9767 -0.7341  1.3861
 9760TIP3    H250772   2.364   2.176  32.594 -0.6532  0.1009 -0.9803
 9761TIP3   OH250773   0.250   0.840  40.301  0.3460  0.1214 -0.5669
 9761TIP3    H150774   0.202   0.771  40.255 -0.8627  0.3967  0.2588
 9761TIP3    H250775   0.228   0.920  40.253 -0.2139  0.2806 -0.0531
 9762TIP3   OH250776   0.669   2.182  32.599  0.1825 -0.3041  0.4646
 9762TIP3    H150777   0.600   2.202  32.536 -0.9095  0.5506  1.8639
 9762TIP3    H250778   0.643   2.099  32.638 -1.2372  1.0002  2.4563
 9763TIP3   OH250779   2.752   4.378  31.645  0.0771 -0.0660  0.1112
 9763TIP3    H150780   2.694   4.449  31.616  1.1442  0.8754  0.1903
 9763TIP3    H250781   2.823   4.423  31.691  0.7200 -1.2112  0.2688
 9764TIP3   OH250782   0.758   4.039   3.312 -0.5374  0.2591 -1.0363
 9764TIP3    H150783   0.776   4.133   3.315  0.3631  0.1004 -1.1012
 9764TIP3    H250784   0.840   4.000   3.281 -0.9663 -0.5306 -1.2120
 9765TIP3   OH250785   1.232   2.896   2.125 -0.0113  0.4214 -0.8692
 9765TIP3    H150786   1.264   2.900   2.215  1.5197 -0.8039 -1.3206
 9765TIP3    H250787   1.144   2.858   2.133  0.5133 -0.6637  0.0319
 9766TIP3   OH250788   1.679   0.813  14.270 -0.0248  0.8091 -0.3848
 9766TIP3    H150789   1.673   0.729  14.315 -0.7687  2.5383  3.0347
 9766TIP3    H250790   1.664   0.791  14.178 -0.0349 -2.7745  0.3022
 9767TIP3   OH250791   4.297   2.738  31.391  0.1888 -0.1149 -0.4148
 9767TIP3    H150792   4.317   2.742  31.485 -1.3671 -0.9970 -0.0071
 9767TIP3    H250793   4.358   2.672  31.357 -1.0545 -1.8675  0.5546
 9768TIP3   OH250794   1.005   3.066  37.155 -0.6903  0.2644 -0.2148
 9768TIP3    H150795   1.090   3.026  37.138  0.2053 -0.9090  5.1160
 9768TIP3    H250796   0.941   2.998  37.130  0.2394 -0.7045 -0.0234
 9769TIP3   OH250797   0.250   2.310  30.092  0.0548  0.1837  0.1293
 9769TIP3    H150798   0.208   2.255  30.157 -0.4892 -0.3569 -0.6566
 9769TIP3    H250799   0.231   2.268  30.008  0.6765  0.8938 -0.3924
 9770TIP3   OH250800   3.147   0.022  11.938  0.1312 -0.0825 -0.0815
 9770TIP3    H150801   3.207   0.040  12.011 -0.2885  0.5480  0.1174
 9770TIP3    H250802   3.073   0.082  11.953  0.9782  1.6190 -2.2019
 9771TIP3   OH250803   4.320   1.699   5.664 -0.0576 -0.6768 -0.3515
 9771TIP3    H150804   4.361   1.784   5.684 -0.6466 -0.3999 -0.2956
 9771TIP3    H250805   4.339   1.645   5.741  0.5749 -0.6962 -0.5139
 9772TIP3   OH250806   1.792   1.182   5.729 -0.3234 -0.8471 -0.3911
 9772TIP3    H150807   1.703   1.188   5.762  0.0631 -1.3989  0.8218
 9772TIP3    H250808   1.842   1.244   5.783  0.3105 -1.7204  0.0656
 9773TIP3   OH250809   3.404   1.478  38.178 -0.0914  0.0371  0.5179
 9773TIP3    H150810   3.360   1.405  38.136  2.6490 -1.5333  0.1592
 9773TIP3    H250811   3.435   1.533  38.106 -1.2483  1.0699  0.7628
 9774TIP3   OH250812   0.044   3.664  35.302 -0.0559  0.0461  0.0070
 9774TIP3    H150813   0.108   3.717  35.350  1.2948 -2.3083  1.0299
 9774TIP3    H250814  -0.021   3.640  35.368 -0.3581 -0.0081 -0.3107
 9775TIP3   OH250815   3.577   1.742  38.488 -0.3381  0.2421  0.1345
 9775TIP3    H150816   3.600   1.834  38.497 -1.8385  0.4655  2.5292
 9775TIP3    H250817   3.500   1.742  38.430  1.7568  0.0487 -2.8710
 9776TIP3   OH250818   1.723   0.735  17.462 -0.4721  0.1702 -0.3023
 9776TIP3    H150819   1.785   0.791  17.416 -0.0285 -0.7003 -0.7765
 9776TIP3    H250820   1.776   0.665  17.499 -1.0906 -0.2565 -0.2025
 9777TIP3   OH250821   3.452   3.238   0.425  0.7371 -0.2514 -0.1508
 9777TIP3    H150822   3.390   3.165   0.428  0.6469 -0.1461  2.3175
 9777TIP3    H250823   3.455   3.270   0.515  1.4743  2.2272 -0.9988
 9778TIP3   OH250824   0.569   0.852   8.350  0.2636  0.6401 -0.0412
 9778TIP3    H150825   0.551   0.786   8.417  0.6455  0.9838  0.4048
 9778TIP3    H250826   0.647   0.897   8.381  1.1891  0.0048 -1.3216
 9779TIP3   OH250827   1.276   1.426  30.997  0.5481  0.2388 -0.1770
 9779TIP3    H150828   1.302   1.348  31.045  0.0165  0.8551  1.1802
 9779TIP3    H250829   1.359   1.470  30.977  0.7790  1.4972  2.9031
 9780TIP3   OH250830   2.267   2.932  32.360 -0.5743 -0.1484  0.3658
 9780TIP3    H150831   2.205   2.939  32.433  1.1979  1.6673  1.8279
 9780TIP3    H250832   2.288   3.023  32.338  0.7403 -0.7007 -0.7976
 9781TIP3   OH250833   1.621   1.040   2.573  0.4884 -0.0373  0.7095
 9781TIP3    H150834   1.576   0.967   2.531  0.4959  0.3729 -0.0179
 9781TIP3    H250835   1.569   1.059   2.651 -0.3146  0.0938  0.1579
 9782TIP3   OH250836   1.477   0.821   2.479  1.1370 -0.1333 -0.2440
 9782TIP3    H150837   1.387   0.818   2.511  1.9071  1.7397  2.3152
 9782TIP3    H250838   1.510   0.732   2.493  0.1764 -0.4155  0.3083
 9783TIP3   OH250839   1.439   3.214  36.810  0.4747  0.0879  0.0130
 9783TIP3    H150840   1.433   3.227  36.715  0.1792  0.6884  0.1086
 9783TIP3    H250841   1.426   3.120  36.822 -2.4986  0.3638 -0.3153
 9784TIP3   OH250842   0.622   3.623  29.762  0.2049 -0.1042  0.4189
 9784TIP3    H150843   0.560   3.593  29.696  0.9222  1.5805 -1.0937
 9784TIP3    H250844   0.622   3.553  29.828 -2.1772 -0.8216 -0.2356
 9785TIP3   OH250845   3.157   3.226   1.643 -0.3992 -0.1255  0.6195
 9785TIP3    H150846   3.228   3.288   1.658 -0.3787  0.2890 -0.9532
 9785TIP3    H250847   3.172   3.193   1.554 -1.9364 -0.3209  0.3979
 9786TIP3   OH250848   1.049   1.894  12.568 -0.2357  0.1212  0.6682
 9786TIP3    H150849   1.038   1.963  12.634  0.2108  1.1345 -0.2810
 9786TIP3    H250850   1.142   1.896  12.547 -0.7295  1.6716 -1.8788
 9787TIP3   OH250851   0.720   0.545   7.088  0.3460  0.2079  0.2471
 9787TIP3    H150852   0.722   0.449   7.092  1.2347  0.1870 -0.4450
 9787TIP3    H250853   0.640   0.565   7.038  0.2826 -0.1779  0.1876
 9788TIP3   OH250854   2.447   1.562  40.739 -0.2305  0.1999  0.0019
 9788TIP3    H150855   2.534   1.527  40.760 -0.2025  0.2526 -0.0258
 9788TIP3    H250856   2.435   1.543  40.646 -0.2079  0.2802 -0.0176
 9789TIP3   OH250857   2.988   2.750   5.890 -0.1926 -0.1324  0.2765
 9789TIP3    H150858   2.974   2.664   5.930 -2.7691 -0.5824 -1.3590
 9789TIP3    H250859   2.999   2.732   5.797 -1.3235  1.3347 -0.1799
 9790TIP3   OH250860   2.772   4.204  40.426  0.2681  0.6478 -0.2664
 9790TIP3    H150861   2.747   4.278  40.371  0.0205  0.5194 -0.3280
 9790TIP3    H250862   2.718   4.131  40.395  1.3947  0.1134 -1.0341
 9791TIP3   OH250863   3.944   1.354  30.863  0.0107  0.1273  0.0950
 9791TIP3    H150864   3.961   1.372  30.770  0.4728 -0.7684 -0.0070
 9791TIP3    H250865   3.953   1.440  30.905  0.2962  0.4638 -0.6197
 9792TIP3   OH250866   0.502   1.228   3.577 -0.2905  0.0841  0.1314
 9792TIP3    H150867   0.539   1.192   3.657 -0.1943  0.5203  0.2900
 9792TIP3    H250868   0.478   1.318   3.600 -0.8135  0.0221 -0.1648
 9793TIP3   OH250869   4.246   2.633   0.012 -0.4983 -0.4078  0.4008
 9793TIP3    H150870   4.210   2.657   0.097 -1.8077 -2.8775  0.6628
 9793TIP3    H250871   4.338   2.613   0.029 -0.5702 -0.1733  1.0837
 9794TIP3   OH250872   0.846   1.012   0.642 -0.1000 -0.1310  0.5696
 9794TIP3    H150873   0.818   0.949   0.576  0.6527  0.7418 -0.6253
 9794TIP3    H250874   0.772   1.018   0.703 -0.8771 -0.8248 -0.2889
 9795TIP3   OH250875   2.830   0.467  34.125 -0.5577 -0.1982  0.6768
 9795TIP3    H150876   2.771   0.477  34.200 -0.1875 -1.3191  1.1445
 9795TIP3    H250877   2.787   0.402  34.069 -0.0063 -0.6721  0.7913
 9796TIP3   OH250878   0.661   1.216   5.360  0.2124 -0.1193 -0.0505
 9796TIP3    H150879   0.702   1.139   5.320  0.6821  0.9791 -1.7982
 9796TIP3    H250880   0.593   1.242   5.299 -0.8730  0.0738  1.1944
 9797TIP3   OH250881   2.312   3.693  34.377 -0.0359  0.2218 -0.2755
 9797TIP3    H150882   2.377   3.627  34.353 -0.3159 -0.5474  0.9807
 9797TIP3    H250883   2.338   3.720  34.465 -0.7896  0.7060 -0.1980
 9798TIP3   OH250884   0.195   1.052  32.290 -0.6189  0.4164  0.4612
 9798TIP3    H150885   0.229   0.964  32.307  1.4587  1.3279  1.3311
 9798TIP3    H250886   0.267   1.098  32.247 -1.9434  1.4943 -0.7244
 9799TIP3   OH250887   0.660   1.789   2.175  0.3448  0.2852 -0.4651
 9799TIP3    H150888   0.576   1.824   2.203  1.0290  1.1499  0.6154
 9799TIP3    H250889   0.723   1.858   2.196  1.1389  0.3686 -2.7939
 9800TIP3   OH250890   3.710   0.749  12.283 -0.3614 -0.8005 -0.4624
 9800TIP3    H150891   3.711   0.660  12.319  0.9413 -0.9076 -0.7342
 9800TIP3    H250892   3.626   0.755  12.237 -1.0536 -1.4236  0.6723
 9801TIP3   OH250893   3.292   1.641  33.769  0.2209 -0.4933  0.3462
 9801TIP3    H150894   3.320   1.617  33.857  0.8726 -0.0112  0.2771
 9801TIP3    H250895   3.276   1.735  33.773  0.5747 -0.4044 -0.1277
 9802TIP3   OH250896   0.704   0.479  40.062  0.1939 -0.0386 -0.0685
 9802TIP3    H150897   0.661   0.474  39.977  1.9064 -1.5953 -0.9080
 9802TIP3    H250898   0.766   0.406  40.062 -0.1009 -0.3705  2.7264
 9803TIP3   OH250899   3.026   0.817   1.959 -0.3137 -0.3508  0.5402
 9803TIP3    H150900   3.075   0.775   1.889 -1.3319 -0.1465 -0.3160
 9803TIP3    H250901   3.074   0.898   1.977  0.2846 -0.6915  0.5077
 9804TIP3   OH250902   3.839   3.344  27.892 -0.2556  0.0187 -0.3781
 9804TIP3    H150903   3.852   3.429  27.934 -0.2496  0.1802 -0.7083
 9804TIP3    H250904   3.744   3.335  27.886 -0.2569 -0.0225 -0.2934
 9805TIP3   OH250905   1.712   4.357   5.278  0.2171 -0.0103 -0.1816
 9805TIP3    H150906   1.719   4.432   5.217 -2.4912  2.0630  1.8386
 9805TIP3    H250907   1.769   4.381   5.351 -1.5635  0.7632  1.0195
 9806TIP3   OH250908   2.901   2.831  32.366 -0.1757  0.2035  0.3308
 9806TIP3    H150909   2.958   2.812  32.441 -0.6988 -0.3288  0.5994
 9806TIP3    H250910   2.832   2.766  32.372  0.6767 -0.9358 -1.6050
 9807TIP3   OH250911   1.928   0.940   6.421  0.4840  0.2669  0.3123
 9807TIP3    H150912   1.925   1.033   6.397 -1.5629  0.1367 -0.1141
 9807TIP3    H250913   1.837   0.918   6.442  0.8360 -1.7963 -0.1545
 9808TIP3   OH250914   0.175   3.714  40.485  0.2459  0.2818  0.3854
 9808TIP3    H150915   0.213   3.670  40.410 -1.2329 -2.5470  1.1598
 9808TIP3    H250916   0.099   3.761  40.450 -0.0142 -0.4190  0.0042
 9809TIP3   OH250917   0.711   3.873   3.519  0.4112  0.3123 -0.1108
 9809TIP3    H150918   0.720   3.946   3.458  0.7924 -0.1694 -0.6490
 9809TIP3    H250919   0.655   3.811   3.474 -0.4805  0.5622  0.6332
 9810TIP3   OH250920   0.623   3.025   5.831  0.1715  0.1377 -0.3360
 9810TIP3    H150921   0.713   3.053   5.848  0.0208  0.6860 -0.4270
 9810TIP3    H250922   0.630   2.932   5.808  1.1469  0.9496 -3.8982
 9811TIP3   OH250923   3.092   1.102  39.641  0.1222  0.1957  0.3411
 9811TIP3    H150924   3.181   1.077  39.613  0.2626  2.4445 -1.5521
 9811TIP3    H250925   3.040   1.096  39.561 -1.1029  0.3021  1.1187
 9812TIP3   OH250926   1.208   0.935   8.396  0.3489  0.4615  0.3113
 9812TIP3    H150927   1.163   0.988   8.330  1.5356  1.1130  0.0015
 9812TIP3    H250928   1.185   0.845   8.374  0.4652  0.6896 -0.8080
 9813TIP3   OH250929   1.349   0.768  13.797 -0.1570 -0.0510 -0.5136
 9813TIP3    H150930   1.300   0.705  13.745  0.5068 -0.5656 -0.5201
 9813TIP3    H250931   1.439   0.736  13.796 -0.3055 -0.7472  1.9212
 9814TIP3   OH250932   0.653   3.316  39.966 -0.0542  0.5714 -0.0689
 9814TIP3    H150933   0.739   3.359  39.970  0.9524 -1.3829  0.2871
 9814TIP3    H250934   0.656   3.262  39.887  0.2072 -1.7398  1.4318
 9815TIP3   OH250935   0.209   1.272  13.479 -0.2763  0.0429 -0.6360
 9815TIP3    H150936   0.144   1.338  13.502  0.9331  1.0582 -0.0212
 9815TIP3    H250937   0.171   1.227  13.403 -1.1808  1.3694 -1.0157
 9816TIP3   OH250938   4.320   1.988   1.420 -0.6030 -0.1052 -0.2965
 9816TIP3    H150939   4.405   1.976   1.377 -0.7578 -0.8932 -0.3902
 9816TIP3    H250940   4.333   1.954   1.508 -0.5951  0.5267 -0.0492
 9817TIP3   OH250941   0.574   3.756  35.656 -0.4377  0.0550  0.4310
 9817TIP3    H150942   0.549   3.828  35.599 -0.7961 -0.3505  0.0714
 9817TIP3    H250943   0.587   3.681  35.598  0.8364  0.0383  0.6951
 9818TIP3   OH250944   1.641   3.098  32.760  0.3841  0.0119 -0.1257
 9818TIP3    H150945   1.704   3.052  32.815 -0.0868 -0.0881  0.3350
 9818TIP3    H250946   1.688   3.176  32.730  0.5107  0.2933  0.7763
 9819TIP3   OH250947   2.433   4.387   4.983  0.2271 -0.6565  0.1881
 9819TIP3    H150948   2.517   4.378   4.939  0.1761 -0.2886  0.0107
 9819TIP3    H250949   2.400   4.297   4.992  1.0430 -0.8869  1.0594
 9820TIP3   OH250950   1.556   4.155   1.977 -0.5288  0.1573 -0.2082
 9820TIP3    H150951   1.531   4.132   1.888 -0.6185  1.8634 -0.6632
 9820TIP3    H250952   1.647   4.127   1.985 -0.5186  0.0036 -0.8462
 9821TIP3   OH250953   4.007   2.057  35.476 -0.5982  0.7772 -0.4112
 9821TIP3    H150954   3.975   2.122  35.539  0.0686 -0.8845  1.7676
 9821TIP3    H250955   3.946   1.984  35.485 -0.2124  0.3239 -1.3941
 9822TIP3   OH250956   0.347   1.630  36.520 -0.4444  0.2248  0.2677
 9822TIP3    H150957   0.285   1.669  36.458 -1.4028  0.4516  1.3335
 9822TIP3    H250958   0.293   1.574  36.576  0.1042  1.2306  1.8834
 9823TIP3   OH250959   3.646   1.201   5.197 -0.4308  0.0206  0.5798
 9823TIP3    H150960   3.595   1.281   5.201 -3.2634 -1.6223  0.0290
 9823TIP3    H250961   3.622   1.162   5.113  3.2538 -0.0102 -0.6367
 9824TIP3   OH250962   2.217   3.725   1.645 -0.7934  0.0696 -0.0904
 9824TIP3    H150963   2.280   3.666   1.602 -1.6712 -1.3217  0.4634
 9824TIP3    H250964   2.200   3.793   1.580  1.4943  0.6785 -0.1466
 9825TIP3   OH250965   0.781   1.756   1.247  0.2887 -0.0709  0.1200
 9825TIP3    H150966   0.787   1.847   1.218 -1.1405  0.9775  2.7646
 9825TIP3    H250967   0.871   1.731   1.264  0.5930  1.7341  1.5991
 9826TIP3   OH250968   0.264   1.602  37.963  0.2394  0.5627  0.2755
 9826TIP3    H150969   0.359   1.617  37.959  0.9223 -2.7395  1.2464
 9826TIP3    H250970   0.238   1.640  38.046  1.1247 -0.1847  0.9189
 9827TIP3   OH250971   0.961   1.585  12.824  0.0683  0.4822 -0.6575
 9827TIP3    H150972   0.990   1.561  12.735  1.0721  0.7710 -0.4217
 9827TIP3    H250973   0.885   1.528  12.840 -0.1822  0.4857 -1.7284
 9828TIP3   OH250974   1.919   0.540   6.455 -0.1496  0.5011  0.0868
 9828TIP3    H150975   1.863   0.563   6.529  1.5483  1.3380  1.1795
 9828TIP3    H250976   2.004   0.578   6.477  0.3134  1.1387 -2.4956
 9829TIP3   OH250977   2.928   3.455   6.797 -0.0594 -0.4843  0.6810
 9829TIP3    H150978   2.914   3.426   6.707  3.1392 -0.6289  0.1294
 9829TIP3    H250979   2.914   3.376   6.850  0.3376 -0.9673  0.0758
 9830TIP3   OH250980   1.215   1.769  31.936  0.4861 -0.0288 -0.6367
 9830TIP3    H150981   1.203   1.722  32.019  1.4801  0.6013 -0.1216
 9830TIP3    H250982   1.310   1.778  31.926  0.3492  1.8617 -0.7015
 9831TIP3   OH250983   3.752   4.130  38.057  0.1110  0.0934 -0.1157
 9831TIP3    H150984   3.729   4.089  38.140 -0.0693  1.9502  0.7961
 9831TIP3    H250985   3.847   4.125  38.054  0.1949  0.9584  0.7282
 9832TIP3   OH250986   4.307   0.988   2.074 -0.3743  0.0022  0.5221
 9832TIP3    H150987   4.311   0.934   2.153 -2.2398  0.8275  1.2472
 9832TIP3    H250988   4.243   1.056   2.094 -1.1737  0.0544 -1.8071
 9833TIP3   OH250989   0.697   0.256  38.300 -0.4319  0.2215  0.1605
 9833TIP3    H150990   0.737   0.255  38.213 -0.7900  1.8885 -0.0595
 9833TIP3    H250991   0.677   0.164  38.318  0.2604 -0.2341 -1.2187
 9834TIP3   OH250992   1.141   1.901  41.290  0.3563 -0.3324 -0.1649
 9834TIP3    H150993   1.079   1.828  41.289 -0.7166  0.5515 -1.0119
 9834TIP3    H250994   1.146   1.929  41.199  0.2770  1.0277  0.2264
 9835TIP3   OH250995   1.795   1.164  15.066  0.1701 -0.4556  0.5048
 9835TIP3    H150996   1.828   1.239  15.016  1.9797 -1.9370 -0.6934
 9835TIP3    H250997   1.872   1.129  15.111 -0.4962 -1.9028  0.5831
 9836TIP3   OH250998   4.107   3.907  35.422  0.2415 -0.4720  0.0185
 9836TIP3    H150999   4.056   3.913  35.502 -0.0239 -0.2063 -0.1645
 9836TIP3    H251000   4.198   3.896  35.452  0.5357  2.2646  0.4544
 9837TIP3   OH251001   1.696   2.971   8.407 -0.3928  0.5671  0.3137
 9837TIP3    H151002   1.635   3.012   8.468 -2.3839  0.7698 -1.6921
 9837TIP3    H251003   1.780   3.014   8.425 -1.4251  2.3125  1.2860
 9838TIP3   OH251004   1.786   2.920  14.720  0.6750 -0.2825 -0.1045
 9838TIP3    H151005   1.832   2.874  14.650  0.1284 -1.0022 -0.0019
 9838TIP3    H251006   1.853   2.934  14.787  0.6671 -1.7497  0.2484
 9839TIP3   OH251007   3.780   3.400  39.015 -0.2423 -0.9163 -0.4613
 9839TIP3    H151008   3.749   3.469  39.074 -0.0095 -1.4118  0.2574
 9839TIP3    H251009   3.872   3.388  39.039  0.1841 -0.3480 -1.6979
 9840TIP3   OH251010   1.432   0.458  13.805 -0.3517 -0.0969  0.1139
 9840TIP3    H151011   1.508   0.413  13.840 -0.3084  0.1958  0.4005
 9840TIP3    H251012   1.422   0.424  13.716  0.0174 -0.2515  0.1320
 9841TIP3   OH251013   0.501   4.020  36.136  0.1034 -0.0258 -0.1299
 9841TIP3    H151014   0.533   3.929  36.139 -2.1693 -0.9066 -0.3135
 9841TIP3    H251015   0.424   4.016  36.080  0.1049  2.1034 -0.3401
 9842TIP3   OH251016   3.089   1.490  33.053  0.5281 -0.3406  0.0118
 9842TIP3    H151017   3.085   1.397  33.031 -2.1444 -0.2513 -0.1517
 9842TIP3    H251018   3.055   1.495  33.142  0.6317  0.4808  0.0133
 9843TIP3   OH251019   2.227   3.657  14.041  0.2415  0.1055 -0.1116
 9843TIP3    H151020   2.246   3.622  13.954  1.2269  0.3849 -0.0248
 9843TIP3    H251021   2.195   3.581  14.090  2.1699 -0.6960  0.0238
 9844TIP3   OH251022   2.386   2.680   6.748 -0.5300 -0.4046 -0.5179
 9844TIP3    H151023   2.452   2.649   6.810  2.0446  0.7904 -2.4370
 9844TIP3    H251024   2.379   2.610   6.684 -0.2956 -0.1157 -0.8683
 9845TIP3   OH251025   2.537   1.389  29.243 -0.1454  0.0618  0.1226
 9845TIP3    H151026   2.461   1.367  29.189 -0.6067  0.8015  0.4442
 9845TIP3    H251027   2.602   1.422  29.180 -1.4350  2.9618  0.1375
 9846TIP3   OH251028   2.908   0.663  41.214  0.5925  0.3244  0.0286
 9846TIP3    H151029   2.861   0.713  41.147 -2.2387 -1.7706  0.2453
 9846TIP3    H251030   2.892   0.710  41.296  0.3743  0.5900 -0.1654
 9847TIP3   OH251031   1.710   4.223   4.097 -0.1393 -0.3315  0.0025
 9847TIP3    H151032   1.685   4.143   4.051  1.7506 -1.3811  0.6912
 9847TIP3    H251033   1.750   4.278   4.030 -0.6452 -0.3253 -0.3002
 9848TIP3   OH251034   1.685   0.248  11.406  0.0624  0.5387 -0.2817
 9848TIP3    H151035   1.673   0.158  11.435  0.5957  1.0398  1.6367
 9848TIP3    H251036   1.628   0.257  11.329 -1.4558 -0.8792  0.6276
 9849TIP3   OH251037   1.915   0.784   4.528 -0.1800  0.0055  0.0832
 9849TIP3    H151038   1.873   0.726   4.590  0.7867  0.5603  1.2949
 9849TIP3    H251039   1.994   0.738   4.501  0.4245  0.5807  0.8052
 9850TIP3   OH251040   2.001   1.561  28.158 -0.1270 -0.4106  0.1987
 9850TIP3    H151041   2.025   1.468  28.162  2.3889  0.2151  1.0504
 9850TIP3    H251042   1.991   1.578  28.064  1.1680 -1.1606 -0.1074
 9851TIP3   OH251043   3.960   4.289  21.269  0.1453 -0.7833  0.2315
 9851TIP3    H151044   4.046   4.320  21.242 -0.9805  3.1993  0.6289
 9851TIP3    H251045   3.913   4.276  21.187 -0.3752  2.1545 -0.0339
 9852TIP3   OH251046   2.548   2.381  34.426 -0.3029 -0.0553  0.0716
 9852TIP3    H151047   2.570   2.314  34.491 -2.6892  0.0058  1.0311
 9852TIP3    H251048   2.453   2.381  34.422 -0.3047  1.8004 -1.5188
 9853TIP3   OH251049   3.802   3.132  36.181  0.2716 -0.6009  0.4538
 9853TIP3    H151050   3.881   3.078  36.184  1.9235  1.6412  0.0952
 9853TIP3    H251051   3.775   3.129  36.089  0.7483 -0.2784  0.3033
 9854TIP3   OH251052   1.043   0.600  28.866  0.3909 -0.1102 -0.1399
 9854TIP3    H151053   1.078   0.642  28.787  0.0768  1.0641  0.3284
 9854TIP3    H251054   1.089   0.641  28.938 -2.0634  1.7425  0.5206
 9855TIP3   OH251055   2.914   2.161   4.125 -0.0146  0.4470  0.4610
 9855TIP3    H151056   2.911   2.146   4.220 -1.2160 -2.8262  0.0490
 9855TIP3    H251057   2.822   2.167   4.100  0.2932  1.1093 -0.5550
 9856TIP3   OH251058   2.557   2.086   9.417  0.0126 -0.0521  0.3589
 9856TIP3    H151059   2.502   2.123   9.487 -0.2765 -0.9168  0.5991
 9856TIP3    H251060   2.512   2.006   9.391  0.3086  0.0804 -0.5813
 9857TIP3   OH251061   2.717   3.966   8.795  0.2457  0.2515 -0.3580
 9857TIP3    H151062   2.649   3.903   8.819  0.9761 -1.0496 -1.5923
 9857TIP3    H251063   2.682   4.050   8.824 -2.5613 -0.1490 -2.2137
 9858TIP3   OH251064   3.075   3.228   0.326 -0.0332 -0.4706 -0.6013
 9858TIP3    H151065   3.075   3.251   0.419  0.0101 -0.3395 -0.6326
 9858TIP3    H251066   2.993   3.180   0.313 -1.0415  1.2323 -0.9039
 9859TIP3   OH251067   2.673   2.076  36.173 -0.4992  0.3197 -0.3500
 9859TIP3    H151068   2.751   2.033  36.209 -1.2752 -2.2207 -1.4600
 9859TIP3    H251069   2.699   2.166  36.160  1.3648  0.1984  1.8623
 9860TIP3   OH251070   2.507   3.494  36.444 -0.3271  0.2731 -0.0451
 9860TIP3    H151071   2.429   3.542  36.472  0.4452  0.7578  1.3337
 9860TIP3    H251072   2.550   3.469  36.525 -0.4487 -2.3917 -0.7223
 9861TIP3   OH251073   3.125   1.796   0.871 -0.1853  0.3062  0.8443
 9861TIP3    H151074   3.219   1.789   0.853 -0.4575  0.2433 -0.6826
 9861TIP3    H251075   3.112   1.887   0.898  0.4220  0.1113  1.8485
 9862TIP3   OH251076   4.027   3.866  34.005  0.2212 -0.1639  0.4722
 9862TIP3    H151077   3.998   3.808  33.935 -2.0596  0.2208  0.9990
 9862TIP3    H251078   4.001   3.953  33.976  2.9444  0.5834  0.0178
 9863TIP3   OH251079   0.773   3.069   0.011 -0.3189  0.4008  0.2929
 9863TIP3    H151080   0.739   3.122   0.083 -0.7860  0.4409  0.0460
 9863TIP3    H251081   0.696   3.043  -0.038  0.0452  0.9637 -0.6045
 9864TIP3   OH251082   0.668   2.046  29.024 -0.2178  0.4518  0.0883
 9864TIP3    H151083   0.588   2.022  28.977 -0.1115  0.7860 -0.2665
 9864TIP3    H251084   0.705   2.118  28.973  1.2655 -0.8658 -0.8061
 9865TIP3   OH251085   2.591   0.089  33.351 -0.4513 -0.9300  0.9262
 9865TIP3    H151086   2.573   0.177  33.385 -0.0114 -0.4121 -0.1342
 9865TIP3    H251087   2.515   0.037  33.379 -2.3936  0.5656 -1.2149
 9866TIP3   OH251088   3.811   2.918   4.285 -0.5231 -0.2118  0.1770
 9866TIP3    H151089   3.903   2.904   4.263 -0.4372 -0.2752  0.5795
 9866TIP3    H251090   3.799   2.874   4.369 -1.1960 -1.1631 -0.3949
 9867TIP3   OH251091   3.242   3.984   5.332  0.0068 -0.3984 -0.7252
 9867TIP3    H151092   3.178   3.924   5.293 -0.4143  0.2258 -1.0096
 9867TIP3    H251093   3.189   4.051   5.374  0.4775  0.0835 -0.8932
 9868TIP3   OH251094   1.705   3.756  12.532  0.9839 -0.6492 -0.3549
 9868TIP3    H151095   1.635   3.701  12.498 -1.3034  1.5224  0.5343
 9868TIP3    H251096   1.693   3.756  12.627  1.4891  0.6315 -0.2661
 9869TIP3   OH251097   0.315   4.144  35.706  0.2404 -0.0682 -0.2008
 9869TIP3    H151098   0.243   4.160  35.645 -0.7817  0.5674  1.1426
 9869TIP3    H251099   0.371   4.222  35.697  0.4508 -0.2849 -0.8063
 9870TIP3   OH251100   1.069   3.541   8.500  0.1497  0.1489  0.1755
 9870TIP3    H151101   1.150   3.577   8.464 -0.9445  0.5747 -2.0713
 9870TIP3    H251102   1.069   3.449   8.474 -0.3223  0.2806 -0.3091
 9871TIP3   OH251103   1.403   0.699  14.408 -0.1693  0.5223 -0.3271
 9871TIP3    H151104   1.476   0.662  14.359 -0.4715 -1.4280  0.5962
 9871TIP3    H251105   1.444   0.746  14.480  0.2054 -0.3131  0.0172
 9872TIP3   OH251106   1.839   0.672   3.370 -0.0453  0.7640  0.0849
 9872TIP3    H151107   1.889   0.590   3.368 -1.1543  0.0521  0.6075
 9872TIP3    H251108   1.813   0.683   3.461 -3.1274 -0.3606 -0.5250
 9873TIP3   OH251109   1.818   0.881  39.707 -0.1862 -0.9581 -1.0708
 9873TIP3    H151110   1.880   0.942  39.668  0.6789 -1.1937 -0.1003
 9873TIP3    H251111   1.739   0.889  39.653  0.7575 -0.8482 -2.4843
 9874TIP3   OH251112   2.199   0.894   9.942 -0.2863 -0.1110  0.5823
 9874TIP3    H151113   2.295   0.894   9.943 -0.2610 -0.9105  1.8940
 9874TIP3    H251114   2.176   0.836   9.869  0.2471 -0.3072  0.5616
 9875TIP3   OH251115   0.003   3.492   5.533 -0.5757  0.1146  0.9396
 9875TIP3    H151116   0.034   3.565   5.480 -1.7984 -0.8497 -1.2043
 9875TIP3    H251117   0.012   3.523   5.624  1.2219  1.9609  0.2105
 9876TIP3   OH251118   1.749   3.829  40.481  0.7076 -0.3430  0.4660
 9876TIP3    H151119   1.842   3.827  40.502  1.3554  3.0215 -1.3613
 9876TIP3    H251120   1.745   3.805  40.388  0.0105  1.2869  0.0530
 9877TIP3   OH251121   3.915   1.239  29.041  0.2654 -0.1898 -0.2218
 9877TIP3    H151122   3.962   1.316  29.074  0.1272  0.2869 -1.0997
 9877TIP3    H251123   3.900   1.258  28.948  0.3371 -1.3353 -0.4808
 9878TIP3   OH251124   3.246   2.105   1.274  0.3579 -0.0241 -0.3922
 9878TIP3    H151125   3.294   2.049   1.214  1.3585  1.1574 -0.7342
 9878TIP3    H251126   3.303   2.181   1.287 -1.1006  1.0947 -0.2378
 9879TIP3   OH251127   1.540   2.250  35.646 -0.0731 -0.4208 -0.4996
 9879TIP3    H151128   1.565   2.207  35.564  0.1942  1.1266 -1.2780
 9879TIP3    H251129   1.454   2.215  35.667 -0.0529 -0.9906 -1.3338
 9880TIP3   OH251130   3.937   3.810  31.188  0.0905  0.9043 -0.0466
 9880TIP3    H151131   4.025   3.808  31.227  0.8132  0.1336 -1.5878
 9880TIP3    H251132   3.935   3.891  31.137  0.1217  0.6717 -0.4267
 9881TIP3   OH251133   3.050   0.102  11.346 -0.1259  0.3528  0.0346
 9881TIP3    H151134   3.142   0.080  11.364  0.3986  0.7406 -1.9686
 9881TIP3    H251135   3.008   0.017  11.335  0.3366  0.1870 -0.5361
 9882TIP3   OH251136   1.190   0.200  11.890  0.2519 -0.3314 -0.2765
 9882TIP3    H151137   1.196   0.105  11.888  0.0990 -0.3539  0.2224
 9882TIP3    H251138   1.124   0.221  11.823 -1.6085 -0.7558  1.3494
 9883TIP3   OH251139   1.540   2.784  31.752  0.4715  0.1488  0.1864
 9883TIP3    H151140   1.505   2.870  31.777  1.7579  1.7099 -2.8939
 9883TIP3    H251141   1.589   2.754  31.829  0.5976  2.5206  1.0968
 9884TIP3   OH251142   1.258   3.288   3.261  0.4541 -0.2660 -0.7042
 9884TIP3    H151143   1.334   3.230   3.266  2.3857  2.1916  0.8654
 9884TIP3    H251144   1.219   3.283   3.349  0.6474  0.7630 -0.5511
 9885TIP3   OH251145   1.848   1.129  13.142 -0.1838  0.1345 -0.1461
 9885TIP3    H151146   1.880   1.050  13.186  0.0163  0.4244  0.2341
 9885TIP3    H251147   1.779   1.098  13.083 -0.2622 -0.2963  0.1697
 9886TIP3   OH251148   4.079   4.068   8.487 -0.1164  0.2022  0.0688
 9886TIP3    H151149   4.038   4.145   8.447  0.5509  0.8363  0.5730
 9886TIP3    H251150   4.062   4.077   8.581  0.9976  0.3981  0.2754
 9887TIP3   OH251151   1.710   1.666   6.556 -0.2823  0.0856  0.1283
 9887TIP3    H151152   1.780   1.617   6.514  1.0175 -0.2823  2.5328
 9887TIP3    H251153   1.677   1.607   6.625 -3.6303 -0.1136 -1.4286
 9888TIP3   OH251154   2.510   3.485  34.510  0.4040 -0.3789  0.0224
 9888TIP3    H151155   2.582   3.545  34.528 -0.2547  0.6147 -0.5552
 9888TIP3    H251156   2.517   3.418  34.578 -0.0174  1.4092  1.9587
 9889TIP3   OH251157   4.290   0.261   0.850  0.4965  0.3053 -0.0021
 9889TIP3    H151158   4.253   0.270   0.938  1.2721  0.3341  0.3316
 9889TIP3    H251159   4.292   0.166   0.834  0.9145  0.2619  0.2701
 9890TIP3   OH251160   1.897   3.611   0.043 -0.0744 -0.1976 -0.3112
 9890TIP3    H151161   1.908   3.698   0.081  0.1399 -0.4246  0.1651
 9890TIP3    H251162   1.822   3.619  -0.015 -0.1829  0.2538 -0.1139
 9891TIP3   OH251163   3.857   3.322  27.585 -0.1574  0.5233  0.2860
 9891TIP3    H151164   3.831   3.386  27.652 -0.8997 -0.5136  1.0135
 9891TIP3    H251165   3.939   3.287  27.617 -0.7366 -0.3005  0.9146
 9892TIP3   OH251166   1.708   0.888  34.219  0.0215 -0.4760 -0.6241
 9892TIP3    H151167   1.623   0.931  34.221  0.3023  0.0860 -0.0576
 9892TIP3    H251168   1.714   0.849  34.132 -0.3607  0.4152 -1.0647
 9893TIP3   OH251169   2.543   1.908   6.915  0.3487  0.4652 -0.0731
 9893TIP3    H151170   2.487   1.979   6.883 -0.0491  0.6394  0.9662
 9893TIP3    H251171   2.603   1.951   6.975 -0.3457 -0.1637  1.1039
 9894TIP3   OH251172   2.183   3.556  33.648  0.3734 -0.0558 -0.3200
 9894TIP3    H151173   2.137   3.582  33.568  0.2781 -0.7476 -0.5002
 9894TIP3    H251174   2.138   3.476  33.675 -0.2884  0.7361  1.0111
 9895TIP3   OH251175   1.721   2.580  17.400  0.5643 -0.7611 -0.3396
 9895TIP3    H151176   1.804   2.568  17.446  0.7053 -0.4350 -0.5102
 9895TIP3    H251177   1.661   2.519  17.444  0.5178  0.0387  0.7450
 9896TIP3   OH251178   1.324   2.305  18.166  0.2479  0.4829  0.1538
 9896TIP3    H151179   1.289   2.338  18.248 -0.1103 -0.6002  0.4543
 9896TIP3    H251180   1.320   2.380  18.106  1.9584  1.7563  1.5122
 9897TIP3   OH251181   1.516   4.185   9.573  0.1274 -0.0536 -0.2970
 9897TIP3    H151182   1.527   4.235   9.492  0.8888  0.2931  0.0219
 9897TIP3    H251183   1.531   4.248   9.643 -1.3616 -0.1434  0.1493
 9898TIP3   OH251184   0.816   3.235  22.184  0.1208 -0.6604 -0.2369
 9898TIP3    H151185   0.873   3.216  22.109  0.3337  0.0989 -0.2818
 9898TIP3    H251186   0.755   3.301  22.151  1.6832  1.4470  0.8634
 9899TIP3   OH251187   3.491   0.549   0.526  0.2840 -0.1593  0.2280
 9899TIP3    H151188   3.499   0.639   0.494 -1.6848  0.0063  0.0467
 9899TIP3    H251189   3.459   0.559   0.616  1.3173 -0.6912  0.6737
 9900TIP3   OH251190   1.751   1.601   3.226 -0.5006 -0.0184 -0.0486
 9900TIP3    H151191   1.824   1.549   3.194 -1.3210 -0.9032 -0.4970
 9900TIP3    H251192   1.750   1.679   3.170 -0.6795 -0.6029 -0.8716
 9901TIP3   OH251193   1.519   1.002  34.871  0.2678 -0.0758 -0.2425
 9901TIP3    H151194   1.594   0.967  34.920  0.6025  0.2676 -0.5056
 9901TIP3    H251195   1.483   1.071  34.926  0.3853  0.0227 -0.2883
 9902TIP3   OH251196   3.032   1.929  11.669  0.2013  0.5058  0.3870
 9902TIP3    H151197   3.060   1.848  11.714  1.3396  0.9568  0.5410
 9902TIP3    H251198   2.968   1.968  11.728 -0.5801 -0.4166  0.1802
 9903TIP3   OH251199   1.952   2.696   8.954 -0.2649  0.0148 -0.9969
 9903TIP3    H151200   1.946   2.637   9.029  1.0407  0.2926 -0.6526
 9903TIP3    H251201   1.901   2.773   8.980 -0.5396 -0.2491 -0.7506
 9904TIP3   OH251202   2.165   0.641  17.982 -0.0231 -0.5291  0.0098
 9904TIP3    H151203   2.177   0.625  18.076  1.0114 -1.2028 -0.2152
 9904TIP3    H251204   2.250   0.619  17.944  0.2988  1.9060 -0.8222
 9905TIP3   OH251205   1.417   2.385  38.084 -0.4166 -0.0028  0.1444
 9905TIP3    H151206   1.485   2.444  38.118  0.2424 -0.7118  0.0850
 9905TIP3    H251207   1.465   2.320  38.033 -1.2477  0.0713 -0.7533
 9906TIP3   OH251208   3.948   2.770  38.687 -0.0327 -0.1238 -0.1103
 9906TIP3    H151209   4.027   2.748  38.736  0.5199 -0.2590 -1.0461
 9906TIP3    H251210   3.938   2.699  38.624 -0.2186  0.4847 -0.7897
 9907TIP3   OH251211   1.983   1.967   7.775 -0.1562  0.2987 -0.2492
 9907TIP3    H151212   1.909   2.018   7.743  0.2031 -0.1494 -1.9076
 9907TIP3    H251213   2.056   1.995   7.719  1.3850  1.9790  2.4210
 9908TIP3   OH251214   1.408   3.257   8.853  0.2634 -0.0003  0.2530
 9908TIP3    H151215   1.347   3.186   8.875 -0.3786  0.2686 -0.5974
 9908TIP3    H251216   1.388   3.326   8.916 -0.7032  0.2950 -0.3596
 9909TIP3   OH251217   3.359   2.973  33.570 -0.1895  0.3722  0.2323
 9909TIP3    H151218   3.337   2.983  33.662 -0.0599  0.2017  0.2796
 9909TIP3    H251219   3.274   2.976  33.525 -0.2009  1.1606  0.2891
 9910TIP3   OH251220   2.279   4.146   3.548 -0.0295  0.0853  0.1190
 9910TIP3    H151221   2.291   4.067   3.495  1.3739  0.5394 -0.2689
 9910TIP3    H251222   2.365   4.187   3.550 -0.7304  1.6118  0.3319
 9911TIP3   OH251223   3.331   1.227  25.650  0.3390 -0.5187 -0.1522
 9911TIP3    H151224   3.385   1.306  25.650  2.3483 -1.8342 -0.6367
 9911TIP3    H251225   3.298   1.221  25.560  0.2383 -0.2753 -0.1322
 9912TIP3   OH251226   3.280   3.027  35.916 -0.0305 -0.3151 -0.1753
 9912TIP3    H151227   3.185   3.018  35.928 -0.1631  1.3344  0.4316
 9912TIP3    H251228   3.289   3.093  35.847  0.7312 -2.1179 -1.8919
 9913TIP3   OH251229   0.746   0.318   4.257 -0.5278  0.0812  0.5964
 9913TIP3    H151230   0.654   0.340   4.271 -0.7006 -0.2924  0.0867
 9913TIP3    H251231   0.773   0.273   4.337 -0.7848  0.2048  0.7542
 9914TIP3   OH251232   1.723   0.166   4.184  0.3234  0.2377 -0.1155
 9914TIP3    H151233   1.711   0.156   4.279  0.5065 -0.2655 -0.1406
 9914TIP3    H251234   1.643   0.130   4.146  0.0333  0.8953 -0.1400
 9915TIP3   OH251235   1.485   4.316  10.697  0.2480 -0.5211  0.7339
 9915TIP3    H151236   1.507   4.262  10.772 -0.1890 -0.0626  1.2033
 9915TIP3    H251237   1.441   4.393  10.735 -0.6738 -0.6447 -0.0289
 9916TIP3   OH251238   0.703   3.273  12.570 -0.2651 -0.3265 -0.0216
 9916TIP3    H151239   0.661   3.190  12.551  0.5532 -0.9894  0.9507
 9916TIP3    H251240   0.780   3.250  12.623 -0.4498  1.0833  0.9332
 9917TIP3   OH251241   1.865   1.316  33.200  0.3111  0.0859 -0.0767
 9917TIP3    H151242   1.947   1.297  33.244  0.0492 -1.4276 -0.1992
 9917TIP3    H251243   1.881   1.295  33.108 -0.9442 -2.9514  0.2698
 9918TIP3   OH251244   0.786   4.052  36.032  0.5167 -0.5742  0.0876
 9918TIP3    H151245   0.767   3.963  36.002  1.5077 -0.3117 -1.4387
 9918TIP3    H251246   0.868   4.044  36.081  1.7900 -0.2552 -1.8513
 9919TIP3   OH251247   3.679   1.172  37.654 -0.0456 -0.4695 -0.3342
 9919TIP3    H151248   3.753   1.132  37.700  1.1601  1.0049 -0.9409
 9919TIP3    H251249   3.645   1.103  37.598  0.7531 -1.2070  0.0754
 9920TIP3   OH251250   1.206   0.461   2.201 -0.1527  0.4426  0.3957
 9920TIP3    H151251   1.213   0.366   2.190  0.5309  0.5752 -0.4251
 9920TIP3    H251252   1.216   0.496   2.113  1.6978  1.3820  0.9315
 9921TIP3   OH251253   2.462   2.988  38.699 -0.1407 -0.4155  0.1391
 9921TIP3    H151254   2.546   3.004  38.656 -0.3133 -3.2927 -1.5860
 9921TIP3    H251255   2.478   2.911  38.754 -1.6789 -1.1916 -0.4442
 9922TIP3   OH251256   4.361   3.340   8.519 -0.1478 -0.3194 -0.8477
 9922TIP3    H151257   4.442   3.296   8.545  0.5041  0.0244 -2.1645
 9922TIP3    H251258   4.368   3.428   8.557  0.0781 -0.3095 -0.9104
 9923TIP3   OH251259   0.871   2.501   7.082  0.0429 -0.2098 -0.4317
 9923TIP3    H151260   0.817   2.572   7.046 -0.3027 -0.3428 -0.1800
 9923TIP3    H251261   0.903   2.454   7.005  0.0352  0.0446 -0.5906
 9924TIP3   OH251262   3.964   3.112  24.546  0.1523 -0.2951 -0.0716
 9924TIP3    H151263   3.906   3.182  24.516 -0.2645 -0.7352 -0.3028
 9924TIP3    H251264   3.993   3.140  24.633 -0.5687 -0.1715  0.1315
 9925TIP3   OH251265   2.686   2.368  30.735 -0.5199  0.2819 -0.0103
 9925TIP3    H151266   2.599   2.364  30.697 -0.5724  1.2765 -0.0332
 9925TIP3    H251267   2.742   2.322  30.673 -1.0564 -0.5742  0.1229
 9926TIP3   OH251268   3.289   0.401   1.155  0.2059  0.6674  0.0280
 9926TIP3    H151269   3.296   0.363   1.067  1.6592  2.1308 -0.5290
 9926TIP3    H251270   3.286   0.495   1.140 -0.2694  0.9121  1.5395
 9927TIP3   OH251271   0.671   2.740  32.965  0.2291 -0.1526  0.0854
 9927TIP3    H151272   0.613   2.729  33.040  1.6496  1.4827  1.5185
 9927TIP3    H251273   0.751   2.778  33.001  1.1840  0.2088 -2.1908
 9928TIP3   OH251274   0.291   0.117  33.339 -0.1844 -0.0511  0.6683
 9928TIP3    H151275   0.370   0.097  33.388  0.3393  0.1014 -0.1064
 9928TIP3    H251276   0.303   0.075  33.254 -1.7987 -1.7347  1.1945
 9929TIP3   OH251277   3.434   1.300   1.359  0.5430 -0.1239 -0.0453
 9929TIP3    H151278   3.364   1.236   1.347  1.7952 -1.3664 -1.1085
 9929TIP3    H251279   3.421   1.333   1.448 -1.2035 -0.5178 -0.1176
 9930TIP3   OH251280   1.990   1.835  34.293 -0.1016 -0.1203 -0.1525
 9930TIP3    H151281   1.910   1.783  34.293  0.1343 -0.4960 -0.6154
 9930TIP3    H251282   2.035   1.809  34.212 -0.0157  0.8563 -0.4257
 9931TIP3   OH251283   3.810   3.184   7.150  0.1425  0.2251  0.1784
 9931TIP3    H151284   3.857   3.266   7.132 -1.2874  1.3376  1.2570
 9931TIP3    H251285   3.877   3.126   7.186  0.7645  1.7084  1.5446
 9932TIP3   OH251286   1.014   4.037  41.436  0.1333 -0.0023 -0.2484
 9932TIP3    H151287   1.108   4.023  41.436  0.2119  0.2360  1.4961
 9932TIP3    H251288   1.000   4.108  41.499 -1.2082 -0.1541 -0.3358
 9933TIP3   OH251289   4.092   0.411  33.352 -0.1165  0.3604 -0.5362
 9933TIP3    H151290   4.031   0.404  33.278  0.1216  1.8686 -0.8970
 9933TIP3    H251291   4.126   0.500  33.347 -1.4396  1.1681  2.4459
 9934TIP3   OH251292   1.189   2.994  35.972  0.7391 -0.4472 -0.1087
 9934TIP3    H151293   1.132   2.958  35.904  0.6494  0.5414 -0.5823
 9934TIP3    H251294   1.129   3.018  36.043  0.8403 -1.5414  0.3615
 9935TIP3   OH251295   4.081   1.402  11.745  0.1201  0.1134  0.1828
 9935TIP3    H151296   4.166   1.361  11.728  0.2010  0.1626  0.4516
 9935TIP3    H251297   4.057   1.443  11.662  0.0718 -0.4156 -0.0668
 9936TIP3   OH251298   2.805   3.763  35.529  0.0285  0.0585 -0.3544
 9936TIP3    H151299   2.890   3.752  35.573 -0.2944  0.3085  0.3458
 9936TIP3    H251300   2.745   3.790  35.599  0.0398  3.0555 -1.3817
 9937TIP3   OH251301   1.498   0.174   4.675 -0.1764 -0.5475  0.2369
 9937TIP3    H151302   1.440   0.219   4.614 -0.6253  0.0922  1.1092
 9937TIP3    H251303   1.443   0.108   4.716  0.0566 -0.8061  0.1377
 9938TIP3   OH251304   0.399   4.392  28.633 -0.6084 -0.2422 -0.5905
 9938TIP3    H151305   0.385   4.466  28.574  0.4716 -1.7808 -2.9502
 9938TIP3    H251306   0.479   4.414  28.681  0.5065 -0.4207 -2.2895
 9939TIP3   OH251307   0.153   0.311  34.744 -0.0595  0.0037  0.2809
 9939TIP3    H151308   0.158   0.258  34.664  0.2332 -0.0940  0.3652
 9939TIP3    H251309   0.065   0.295  34.778 -0.5750  0.8622 -0.5864
 9940TIP3   OH251310   2.137   1.940  40.431  0.3562  0.2872 -0.4429
 9940TIP3    H151311   2.187   1.972  40.356  1.2212  0.5708  0.2332
 9940TIP3    H251312   2.092   1.861  40.399 -0.2709  1.0841 -1.5831
 9941TIP3   OH251313   2.332   1.281  17.835  0.2012  0.1217  0.2219
 9941TIP3    H151314   2.390   1.318  17.900  0.2448 -0.8754  0.7706
 9941TIP3    H251315   2.375   1.298  17.751  0.0908  1.4982  0.4199
 9942TIP3   OH251316   0.623   0.444   3.390  0.1843 -0.2114  0.3277
 9942TIP3    H151317   0.604   0.477   3.302  0.5463 -2.8122 -0.8038
 9942TIP3    H251318   0.702   0.492   3.417  0.0356  0.6542 -0.7343
 9943TIP3   OH251319   2.831   0.272  33.290  1.4609 -0.1828  0.1313
 9943TIP3    H151320   2.785   0.193  33.321  0.6995  0.9987  2.2459
 9943TIP3    H251321   2.923   0.254  33.307  1.1363  0.1088  2.5980
 9944TIP3   OH251322   4.003   3.411  38.771 -0.5541  0.4153 -0.3273
 9944TIP3    H151323   3.992   3.353  38.847  0.8190  1.1791  0.4856
 9944TIP3    H251324   3.987   3.354  38.696  0.8436 -1.0702  0.4404
 9945TIP3   OH251325   0.210   0.726  36.834 -0.0168  0.0263 -0.0809
 9945TIP3    H151326   0.270   0.771  36.894  0.5767  2.4021 -2.2793
 9945TIP3    H251327   0.125   0.732  36.877  0.7565 -0.6822  1.6763
 9946TIP3   OH251328   2.579   2.666  41.418 -0.1609 -0.1638  0.5345
 9946TIP3    H151329   2.520   2.621  41.358  0.8457 -0.6336 -0.1200
 9946TIP3    H251330   2.566   2.759  41.398  0.7233 -0.3387 -0.9733
 9947TIP3   OH251331   0.063   3.450  12.464 -0.2164  0.2026  0.0879
 9947TIP3    H151332  -0.027   3.420  12.450 -0.0573 -0.5115  0.5001
 9947TIP3    H251333   0.116   3.373  12.445  0.2095  0.2036  1.2355
 9948TIP3   OH251334   0.021   1.036  12.031 -0.0397  0.1877  0.5437
 9948TIP3    H151335   0.005   1.047  11.937 -1.2507  1.8051  0.9006
 9948TIP3    H251336   0.115   1.048  12.040  0.4020 -1.8840 -0.6695
 9949TIP3   OH251337   0.307   2.646   2.208 -0.0840 -0.2448  0.1863
 9949TIP3    H151338   0.382   2.693   2.244 -0.6621  0.2250  0.8122
 9949TIP3    H251339   0.341   2.598   2.132  1.3315 -1.7833  1.7051
 9950TIP3   OH251340   1.360   2.336  30.240 -0.0094 -0.1291  0.1018
 9950TIP3    H151341   1.430   2.356  30.303 -0.9502 -1.1298  1.5289
 9950TIP3    H251342   1.401   2.350  30.154  1.6468  0.2538  0.9038
 9951TIP3   OH251343   3.631   3.732   5.419  0.3432  0.1926  0.1485
 9951TIP3    H151344   3.608   3.728   5.512  0.5637  0.7943  0.2392
 9951TIP3    H251345   3.580   3.805   5.385  1.1677  0.7550  0.0788
 9952TIP3   OH251346   4.038   2.546  37.133  0.7672 -0.1721 -0.4259
 9952TIP3    H151347   3.954   2.561  37.176  0.8132 -1.9750  0.4019
 9952TIP3    H251348   4.072   2.634  37.115 -0.0432  0.6440  1.7067
 9953TIP3   OH251349   3.289   2.763  31.447 -0.2572 -0.3512 -0.1017
 9953TIP3    H151350   3.268   2.734  31.535  0.5456  0.5856  0.4211
 9953TIP3    H251351   3.352   2.834  31.459  0.6906 -0.9098 -1.4599
 9954TIP3   OH251352   1.149   0.634  13.602 -0.2760  0.6257  0.1671
 9954TIP3    H151353   1.084   0.671  13.662 -0.1118  0.1616  0.6465
 9954TIP3    H251354   1.105   0.559  13.562  0.1255 -0.0373  0.9160
 9955TIP3   OH251355   2.888   3.609  37.915 -0.4504  0.0513 -0.2044
 9955TIP3    H151356   2.949   3.620  37.988  1.2783 -2.7845 -1.0915
 9955TIP3    H251357   2.806   3.584  37.957  0.1498 -0.2461  0.8301
 9956TIP3   OH251358   4.318   4.356   5.899 -0.3195  0.1728  0.5230
 9956TIP3    H151359   4.242   4.403   5.866 -0.6054 -0.8648 -0.3835
 9956TIP3    H251360   4.387   4.375   5.835  0.0187  0.6445  1.0260
 9957TIP3   OH251361   0.941   2.575  30.539 -0.0423  0.1367 -0.0149
 9957TIP3    H151362   1.029   2.613  30.526  0.0576 -0.1843 -0.2971
 9957TIP3    H251363   0.905   2.623  30.613  0.3225  0.3644  0.0187
 9958TIP3   OH251364   3.621   0.425  31.732 -0.0739 -0.2516 -0.1524
 9958TIP3    H151365   3.599   0.428  31.639  0.4690 -2.0418 -0.3878
 9958TIP3    H251366   3.656   0.337  31.745 -1.7412 -0.6667  2.1290
 9959TIP3   OH251367   1.436   2.105  35.148  0.2978  0.4933  0.2382
 9959TIP3    H151368   1.467   2.030  35.199  1.3556  1.7518  1.5123
 9959TIP3    H251369   1.385   2.157  35.210  0.9764  1.6793 -0.1893
 9960TIP3   OH251370   4.303   0.186  10.971  0.7212  0.0126  0.5174
 9960TIP3    H151371   4.385   0.210  11.014  1.0349 -1.3366  0.7084
 9960TIP3    H251372   4.237   0.191  11.040  0.6449  0.9926  0.3881
 9961TIP3   OH251373   2.760   0.794   2.330  0.2009  0.2205 -0.4973
 9961TIP3    H151374   2.704   0.726   2.369 -1.9720  2.3150  0.2823
 9961TIP3    H251375   2.699   0.854   2.287  2.2093  0.5338 -3.1584
 9962TIP3   OH251376   4.011   2.865  41.040  0.2213  0.2312 -0.0435
 9962TIP3    H151377   3.976   2.926  40.974 -2.6183 -1.6974 -0.5179
 9962TIP3    H251378   4.038   2.789  40.990 -1.5186 -1.0732  0.8791
 9963TIP3   OH251379   4.261   3.282   1.487  0.3078 -0.4058 -0.2525
 9963TIP3    H151380   4.294   3.341   1.419 -0.5843 -0.4282 -0.7190
 9963TIP3    H251381   4.252   3.337   1.565 -1.6853  0.4030 -1.0005
 9964TIP3   OH251382   1.099   0.954   9.896 -0.4783 -0.1626 -0.1679
 9964TIP3    H151383   1.089   1.039   9.937 -1.8871 -0.1896 -0.3812
 9964TIP3    H251384   1.035   0.954   9.825 -0.1279 -1.1995 -0.5097
 9965TIP3   OH251385   3.752   4.286   2.110  0.3443  0.3720  0.3571
 9965TIP3    H151386   3.776   4.355   2.172 -1.2680 -0.1935  1.6979
 9965TIP3    H251387   3.773   4.205   2.156  0.5522 -0.0489 -0.4731
 9966TIP3   OH251388   1.243   1.585  32.141  0.5294  0.0856 -0.0705
 9966TIP3    H151389   1.336   1.565  32.149  0.1481 -1.5503  0.7434
 9966TIP3    H251390   1.209   1.517  32.082 -0.5298 -0.7532  1.4373
 9967TIP3   OH251391   0.359   4.312  27.458 -0.1859 -0.6605  0.1250
 9967TIP3    H151392   0.342   4.224  27.424 -1.8115 -1.0629  1.7684
 9967TIP3    H251393   0.398   4.297  27.544 -1.6472  0.1620  0.9702
 9968TIP3   OH251394   4.025   1.649  36.544 -0.0044 -0.3077  0.0362
 9968TIP3    H151395   3.940   1.665  36.502  1.8828 -0.6143 -4.3904
 9968TIP3    H251396   4.025   1.554  36.562 -0.4528 -0.3669 -0.2606
 9969TIP3   OH251397   4.228   0.904  37.735 -0.0201 -0.1543 -0.2086
 9969TIP3    H151398   4.199   0.991  37.709 -0.5456 -0.7495 -1.7125
 9969TIP3    H251399   4.149   0.860  37.766 -0.3003 -0.9371 -1.9311
 9970TIP3   OH251400   4.175   2.218  31.068  0.1936 -0.4085  0.2573
 9970TIP3    H151401   4.170   2.313  31.079 -2.6215 -0.5107  0.4416
 9970TIP3    H251402   4.217   2.187  31.149 -0.8102  0.5291  1.1735
 9971TIP3   OH251403   3.828   3.016  38.660 -0.7031 -0.2907 -0.4003
 9971TIP3    H151404   3.784   3.057  38.734 -1.3318 -0.0522 -0.8947
 9971TIP3    H251405   3.870   2.938  38.697  1.6008  1.3933  0.8176
 9972TIP3   OH251406   2.512   4.000  13.829 -0.5579  0.4775 -0.9880
 9972TIP3    H151407   2.460   4.025  13.753 -0.5528  3.5795 -0.1128
 9972TIP3    H251408   2.450   4.001  13.902  0.0446  0.9273 -0.4594
 9973TIP3   OH251409   3.627   1.409  34.451 -0.0487  0.1407  0.0981
 9973TIP3    H151410   3.648   1.331  34.502  1.4401 -0.2058 -0.9814
 9973TIP3    H251411   3.696   1.414  34.384 -0.1938  2.2909  0.0294
 9974TIP3   OH251412   0.820   1.229   1.946 -0.9212 -0.2112 -0.8559
 9974TIP3    H151413   0.798   1.212   2.037  0.6594  1.5767 -0.0699
 9974TIP3    H251414   0.758   1.296   1.917 -1.0951 -0.4102 -0.9501
 9975TIP3   OH251415   3.632   1.999   9.430  0.2494 -0.3255 -0.2568
 9975TIP3    H151416   3.709   1.972   9.480  0.6803  2.8001  0.9763
 9975TIP3    H251417   3.666   2.058   9.363 -0.9980  0.8598  0.0990
 9976TIP3   OH251418   3.657   2.632   6.279 -0.1472 -0.2904  0.2815
 9976TIP3    H151419   3.630   2.545   6.252  0.8379 -0.2414 -0.9644
 9976TIP3    H251420   3.581   2.688   6.262 -0.6604 -0.8371  0.7566
 9977TIP3   OH251421   3.009   3.819  37.745  0.1005 -0.6584 -0.2487
 9977TIP3    H151422   2.939   3.754  37.755 -0.7791  0.5004  1.5109
 9977TIP3    H251423   3.052   3.822  37.830 -0.2631  1.4572 -0.0819
 9978TIP3   OH251424   3.747   4.403  28.609 -0.0220  0.1547 -0.3009
 9978TIP3    H151425   3.676   4.385  28.548  0.1515 -0.5541 -0.3059
 9978TIP3    H251426   3.715   4.475  28.664 -0.1484  0.8555 -1.2650
 9979TIP3   OH251427   1.814   0.318  12.953  0.1004  0.0629 -0.8613
 9979TIP3    H151428   1.898   0.288  12.988 -0.4490 -0.7239 -0.1652
 9979TIP3    H251429   1.749   0.286  13.017 -0.8749 -0.7804 -2.2161
 9980TIP3   OH251430   3.087   3.174   9.278 -0.1634  0.0865 -0.2279
 9980TIP3    H151431   3.112   3.239   9.213  1.2305  0.1002  0.2861
 9980TIP3    H251432   3.163   3.168   9.336 -1.0642 -0.4986  0.9358
 9981TIP3   OH251433   2.469   3.961  26.970 -0.3559  0.4120 -0.2477
 9981TIP3    H151434   2.426   3.924  26.893  0.7967  1.2000 -1.3077
 9981TIP3    H251435   2.493   4.050  26.943  1.9517 -0.0117  0.2776
 9982TIP3   OH251436   3.005   1.480  33.341 -0.8157 -0.2206  0.4980
 9982TIP3    H151437   3.082   1.519  33.382 -1.5192 -0.5289  2.2314
 9982TIP3    H251438   2.942   1.552  33.332 -0.7084 -0.1794  0.0678
 9983TIP3   OH251439   4.329   1.349  23.900  0.0685  0.2377  0.2567
 9983TIP3    H151440   4.243   1.312  23.922 -0.6102  1.7342  0.2587
 9983TIP3    H251441   4.392   1.288  23.938 -0.9957 -0.8661  0.3026
 9984TIP3   OH251442   2.053   2.552  31.033 -0.7218 -0.4036  0.5087
 9984TIP3    H151443   2.141   2.567  30.999 -0.4496  0.5190  1.5560
 9984TIP3    H251444   2.058   2.466  31.077 -0.8840 -1.2534 -1.0571
 9985TIP3   OH251445   3.568   3.032  32.423  0.4393 -0.0607 -0.1675
 9985TIP3    H151446   3.544   3.123  32.440 -1.3318 -0.6421  0.7261
 9985TIP3    H251447   3.630   3.037  32.350  0.4252  1.8557 -0.1012
 9986TIP3   OH251448   3.587   1.647   0.536 -0.5971 -0.1408  0.1211
 9986TIP3    H151449   3.571   1.576   0.474  0.6181 -0.2227 -0.1120
 9986TIP3    H251450   3.599   1.724   0.481 -1.7776  0.2467  0.3683
 9987TIP3   OH251451   0.716   2.968  32.358 -0.2238 -0.2086  0.2756
 9987TIP3    H151452   0.682   2.962  32.448 -0.0126 -0.3811  0.3433
 9987TIP3    H251453   0.642   2.940  32.304 -0.1767 -0.6432  0.4283
 9988TIP3   OH251454   1.457   3.843  17.723  0.3692 -0.8839  0.3551
 9988TIP3    H151455   1.402   3.839  17.801 -3.0659  1.0978 -1.7203
 9988TIP3    H251456   1.432   3.766  17.672 -1.0938  0.3437 -0.8742
 9989TIP3   OH251457   1.970   0.004  39.266 -0.1366  0.5397 -0.5462
 9989TIP3    H151458   1.928   0.053  39.336 -1.2991  2.0509 -2.2463
 9989TIP3    H251459   1.977  -0.085  39.301 -1.3219  1.0825  1.2110
 9990TIP3   OH251460   0.105   3.774  37.763  0.4423 -0.8723 -0.4190
 9990TIP3    H151461   0.195   3.800  37.747  0.5871 -0.6264  0.7080
 9990TIP3    H251462   0.056   3.809  37.688  1.1311 -0.1717 -0.5551
 9991TIP3   OH251463   1.195   1.959  14.937  0.4239 -0.3939  0.1243
 9991TIP3    H151464   1.186   2.054  14.942 -0.7358 -0.4793 -0.0604
 9991TIP3    H251465   1.106   1.925  14.947  0.2922 -1.2993 -2.8434
 9992TIP3   OH251466   2.368   3.259  40.415  0.5782  0.2273  0.1988
 9992TIP3    H151467   2.332   3.294  40.496  1.0812 -1.0500  1.0156
 9992TIP3    H251468   2.462   3.275  40.423  0.4966  1.2379 -0.7324
 9993TIP3   OH251469   2.826   3.485  28.158  0.1381 -0.0868 -0.6023
 9993TIP3    H151470   2.839   3.395  28.187 -0.5047 -0.3788 -1.1986
 9993TIP3    H251471   2.742   3.510  28.195  0.0010  0.0375 -0.9950
 9994TIP3   OH251472   1.702   1.524  35.159 -0.7388 -0.6746 -0.0454
 9994TIP3    H151473   1.668   1.525  35.248  0.1148  0.8628  0.2981
 9994TIP3    H251474   1.785   1.476  35.165  0.6666  1.6875  0.5793
 9995TIP3   OH251475   1.304   0.740  11.844  0.0157  0.3669  0.4982
 9995TIP3    H151476   1.325   0.679  11.915 -0.6997  0.2189  0.5860
 9995TIP3    H251477   1.211   0.727  11.828  0.4421 -0.7666 -1.5467
 9996TIP3   OH251478   2.837   1.343  38.393 -0.1503 -0.2577  0.0340
 9996TIP3    H151479   2.876   1.305  38.471 -1.4192  1.3359  1.5470
 9996TIP3    H251480   2.763   1.286  38.372  0.2071 -0.7011 -0.0194
 9997TIP3   OH251481   2.300   2.770  29.555 -0.3880 -0.0139  0.3392
 9997TIP3    H151482   2.313   2.681  29.588 -1.6069 -0.4570 -0.3241
 9997TIP3    H251483   2.229   2.805  29.609 -3.5183 -1.2908 -2.5820
 9998TIP3   OH251484   3.013   1.412  40.957 -0.0733 -0.2291  0.1106
 9998TIP3    H151485   3.017   1.399  41.052 -1.5720  0.4264  0.2866
 9998TIP3    H251486   2.923   1.439  40.940  0.1260 -0.4805 -1.5298
 9999TIP3   OH251487   0.485   0.352   2.596 -0.4563 -0.2289 -0.1614
 9999TIP3    H151488   0.517   0.427   2.546 -0.4791 -0.7000 -0.8990
 9999TIP3    H251489   0.391   0.365   2.602 -0.2418  0.8146  1.4351
10000TIP3   OH251490   0.028   3.740  20.770  0.2063 -0.6826  0.0993
10000TIP3    H151491  -0.037   3.810  20.769 -2.5789 -3.0722 -0.2915
10000TIP3    H251492   0.017   3.696  20.686  3.0114 -0.7121 -0.3445
10001TIP3   OH251493   1.452   2.320  12.159  0.1514  0.0349  0.4343
10001TIP3    H151494   1.543   2.293  12.166 -0.1727 -0.9598  1.1371
10001TIP3    H251495   1.454   2.415  12.163  1.1004 -0.0060  1.2609
10002TIP3   OH251496   0.091   3.090  39.309 -0.4269 -0.0146  0.3326
10002TIP3    H151497   0.138   3.024  39.360  1.2849  0.9198  0.0572
10002TIP3    H251498   0.044   3.040  39.242 -0.8815 -1.0783  1.4086
10003TIP3   OH251499   3.914   2.086   9.006 -0.1747  0.3970 -0.7685
10003TIP3    H151500   3.858   2.161   9.026  0.5134  1.0925 -1.3954
10003TIP3    H251501   4.002   2.117   9.027  0.1700 -0.0550 -1.5532
10004TIP3   OH251502   3.144   2.985  10.176 -0.2611 -0.6904 -0.2765
10004TIP3    H151503   3.227   3.014  10.139 -0.3999  0.6151  0.4054
10004TIP3    H251504   3.078   3.040  10.135 -0.5503 -0.1490  0.8858
10005TIP3   OH251505   0.734   0.103  35.559  0.1206 -0.2761 -0.3974
10005TIP3    H151506   0.703   0.031  35.505  0.6026 -1.7446  1.1777
10005TIP3    H251507   0.656   0.133  35.606 -0.4502  1.4880 -2.3419
10006TIP3   OH251508   2.166   2.046  36.897  0.3917 -0.5973  0.2496
10006TIP3    H151509   2.080   2.043  36.855  0.0813  0.5902  0.7921
10006TIP3    H251510   2.148   2.059  36.990  1.1049 -2.5155  0.7180
10007TIP3   OH251511   1.632   2.276  30.532 -0.1334  0.5538  0.1499
10007TIP3    H151512   1.568   2.206  30.518  0.3280  0.1420  0.0751
10007TIP3    H251513   1.712   2.244  30.490  0.1432  1.0271  0.3139
10008TIP3   OH251514   0.044   2.433  12.069 -0.0181  0.5183 -0.2311
10008TIP3    H151515   0.060   2.520  12.032 -1.7650  0.4229 -1.3568
10008TIP3    H251516   0.071   2.372  12.000 -0.5495  0.2375 -0.1966
10009TIP3   OH251517   0.224   4.052   1.547  0.8765 -0.4495 -0.3126
10009TIP3    H151518   0.140   4.095   1.530  1.0782  0.3693  0.6627
10009TIP3    H251519   0.207   3.959   1.534 -0.4107 -0.3826  0.6950
10010TIP3   OH251520   2.644   0.779  37.244 -0.1283  0.5762  0.3528
10010TIP3    H151521   2.651   0.873  37.262 -0.3338  0.6250  0.1792
10010TIP3    H251522   2.686   0.737  37.320  0.7102  0.8247  0.0389
10011TIP3   OH251523   0.193   0.323  36.211  0.0313 -0.4915 -0.3564
10011TIP3    H151524   0.207   0.350  36.121 -2.0465 -0.2532 -0.6601
10011TIP3    H251525   0.228   0.394  36.264 -0.7643  0.4373 -1.0428
10012TIP3   OH251526   4.307   2.308   9.958  0.7442 -0.6165  0.3705
10012TIP3    H151527   4.397   2.338   9.961  0.2766  0.9998 -0.5081
10012TIP3    H251528   4.261   2.364  10.022  0.1511 -0.5438 -0.1068
10013TIP3   OH251529   2.094   4.398  37.780 -0.1035  0.4956 -0.0537
10013TIP3    H151530   2.021   4.388  37.718 -1.0499  1.7118  0.8278
10013TIP3    H251531   2.080   4.329  37.845  1.9358 -2.0349 -2.0702
10014TIP3   OH251532   3.483   2.734   2.796 -0.0597  0.5980 -0.1518
10014TIP3    H151533   3.444   2.707   2.712 -0.0735 -1.0388  0.3587
10014TIP3    H251534   3.564   2.685   2.802  0.4240  1.4403  0.3712
10015TIP3   OH251535   0.423   3.931   5.290 -0.0931 -0.3810  0.4398
10015TIP3    H151536   0.372   3.992   5.236 -1.1017  1.4941  3.2462
10015TIP3    H251537   0.423   3.849   5.241 -0.0932  1.3633 -2.7796
10016TIP3   OH251538   1.214   2.415   2.461 -0.2509  0.1453  0.0789
10016TIP3    H151539   1.277   2.348   2.436  0.1279  0.2021  0.8509
10016TIP3    H251540   1.259   2.467   2.527 -0.7669  0.7793 -0.0617
10017TIP3   OH251541   1.248   3.458   7.668 -0.5256  0.3680  0.4600
10017TIP3    H151542   1.245   3.545   7.707 -0.4168  0.2947  0.6292
10017TIP3    H251543   1.161   3.421   7.685 -0.7966  0.6887 -0.1750
10018TIP3   OH251544   4.208   1.800  23.683  0.2139 -0.3726  0.0587
10018TIP3    H151545   4.233   1.859  23.754 -0.6043 -1.9585  1.7632
10018TIP3    H251546   4.152   1.853  23.626  0.2128  0.7173  1.0423
10019TIP3   OH251547   2.311   3.480   4.620 -0.2133  0.1395 -0.4199
10019TIP3    H151548   2.389   3.456   4.571  0.9845 -0.9755  1.8409
10019TIP3    H251549   2.238   3.448   4.567  1.0205 -1.5247 -1.1862
10020TIP3   OH251550   1.106   0.206   6.509  0.0051  0.0876  0.3320
10020TIP3    H151551   1.082   0.293   6.476  0.7108 -0.2208 -1.0492
10020TIP3    H251552   1.100   0.149   6.433 -1.0406 -1.2176  1.3499
10021TIP3   OH251553   3.262   0.901  32.770 -0.4610  0.1761 -0.5552
10021TIP3    H151554   3.174   0.901  32.733 -1.0519  2.2780  0.7038
10021TIP3    H251555   3.256   0.844  32.846 -1.1150  1.3512  0.2936
10022TIP3   OH251556   1.283   1.717   6.457  1.1473  0.8875 -0.3783
10022TIP3    H151557   1.225   1.756   6.522  1.9680  0.7554  0.4609
10022TIP3    H251558   1.332   1.650   6.506  0.8928 -0.0919 -1.4194
10023TIP3   OH251559   3.506   0.594  33.406 -0.4587  0.0509 -0.0006
10023TIP3    H151560   3.554   0.643  33.340  0.6769 -1.5342 -0.4035
10023TIP3    H251561   3.438   0.655  33.437  0.8749  1.8398 -0.4576
10024TIP3   OH251562   2.075   4.289  27.020  0.6525 -0.4103  0.1565
10024TIP3    H151563   1.994   4.239  27.031  0.1866  0.1780 -0.5585
10024TIP3    H251564   2.132   4.257  27.090 -0.3761 -0.4778  0.9882
10025TIP3   OH251565   1.057   1.846  34.066 -0.4136 -0.0346  0.0263
10025TIP3    H151566   1.081   1.939  34.075  1.9155 -0.7047  1.8823
10025TIP3    H251567   1.118   1.800  34.124 -1.1134 -2.8055 -1.2616
10026TIP3   OH251568   1.434   3.271   7.746  0.1743  0.8530 -0.0022
10026TIP3    H151569   1.374   3.335   7.708 -1.1287 -0.0888  0.3472
10026TIP3    H251570   1.414   3.273   7.840  0.9337  0.7541  0.1657
10027TIP3   OH251571   0.481   1.276   0.277 -0.7048 -0.5587 -0.4010
10027TIP3    H151572   0.549   1.216   0.307  1.9936  2.3380 -0.2374
10027TIP3    H251573   0.497   1.285   0.183 -0.1884  0.8241 -0.2095
10028TIP3   OH251574   2.980   1.339  35.397  0.2119  0.8242 -0.0886
10028TIP3    H151575   2.898   1.385  35.378  0.4654  0.8252 -1.2298
10028TIP3    H251576   3.023   1.332  35.312  0.8046 -0.3178  0.2992
10029TIP3   OH251577   3.487   1.674  26.670 -0.2474  0.4348  0.4274
10029TIP3    H151578   3.512   1.764  26.691 -1.1852  0.6020  0.8554
10029TIP3    H251579   3.560   1.621  26.703  0.5289  1.0553 -0.2346
10030TIP3   OH251580   3.734   3.687   9.364  0.4449  0.3976  1.0623
10030TIP3    H151581   3.644   3.655   9.361  0.4079  0.5489  0.2699
10030TIP3    H251582   3.728   3.779   9.338  0.8751  0.2900  0.5656
10031TIP3   OH251583   1.434   2.736  39.014 -0.0805  0.3255 -0.0492
10031TIP3    H151584   1.503   2.701  39.071 -0.2772  0.8107  0.4903
10031TIP3    H251585   1.354   2.693  39.045 -0.5408  2.1692  1.4644
10032TIP3   OH251586   1.260   4.234  36.810 -0.1535  0.2955 -0.2207
10032TIP3    H151587   1.231   4.325  36.810 -1.1609  0.0114  1.6048
10032TIP3    H251588   1.210   4.193  36.739 -0.5888  0.8917 -0.2651
10033TIP3   OH251589   1.694   3.041   2.705  0.5355  0.4091 -1.0671
10033TIP3    H151590   1.767   2.980   2.699 -0.5347 -1.3442  1.5722
10033TIP3    H251591   1.717   3.100   2.777 -1.2317 -1.2901  1.0521
10034TIP3   OH251592   0.333   2.736  34.531  0.0254 -0.7022 -0.0959
10034TIP3    H151593   0.336   2.654  34.483  1.1227 -0.1356 -1.0462
10034TIP3    H251594   0.277   2.793  34.478  1.8738  0.1828 -1.2117
10035TIP3   OH251595   2.379   4.341  37.751 -0.1185  0.4782 -0.4268
10035TIP3    H151596   2.287   4.353  37.728 -0.8526  0.4928  2.2124
10035TIP3    H251597   2.397   4.249  37.732 -1.2167  0.0170  0.6485
10036TIP3   OH251598   0.225   3.266  12.232 -0.7611  0.7108  0.9168
10036TIP3    H151599   0.267   3.342  12.192 -0.0440 -1.3239 -2.6493
10036TIP3    H251600   0.297   3.211  12.262 -1.0849 -0.0003  0.4340
10037TIP3   OH251601   3.785   0.844  34.387 -0.0065  0.2114 -0.3359
10037TIP3    H151602   3.869   0.826  34.429 -0.0239 -1.4048 -0.8906
10037TIP3    H251603   3.808   0.873  34.299 -0.0251  0.3855 -0.2823
10038TIP3   OH251604   1.333   1.263  36.072  0.2454  0.1012  0.0296
10038TIP3    H151605   1.402   1.262  36.006  0.3611 -2.3103  0.0964
10038TIP3    H251606   1.374   1.306  36.148  1.5474 -0.8581 -0.0874
10039TIP3   OH251607   2.920   1.686  36.367 -0.0868  0.0611  0.4896
10039TIP3    H151608   3.010   1.660  36.349 -0.1138 -0.4614  1.0529
10039TIP3    H251609   2.877   1.604  36.394 -0.7836  0.2663  0.0141
10040TIP3   OH251610   0.473   1.471  30.250 -0.1736 -0.7043  0.0594
10040TIP3    H151611   0.557   1.497  30.213 -0.2672 -1.4064 -0.6678
10040TIP3    H251612   0.493   1.446  30.340  0.1870  0.2645  0.2600
10041TIP3   OH251613   1.761   1.886  33.792  0.5265  0.7196 -0.6734
10041TIP3    H151614   1.676   1.881  33.749 -0.7369 -1.7015  1.8238
10041TIP3    H251615   1.823   1.854  33.726 -0.6886  0.8885 -1.9581
10042TIP3   OH251616   0.607   2.936  12.704 -0.1942 -0.3956 -0.3312
10042TIP3    H151617   0.629   2.846  12.731  1.0833 -0.6047 -1.8862
10042TIP3    H251618   0.681   2.963  12.649 -1.2016  1.1092 -1.0182
10043TIP3   OH251619   3.044   0.698  40.286 -0.3484  0.0264 -0.4780
10043TIP3    H151620   3.122   0.747  40.311 -0.3097  0.6970 -1.8055
10043TIP3    H251621   3.066   0.606  40.304  0.7466  0.2092 -0.8145
10044TIP3   OH251622   3.402   0.729  13.085 -0.2856 -0.2578  0.3561
10044TIP3    H151623   3.332   0.780  13.044  0.2209 -0.4011 -0.7274
10044TIP3    H251624   3.436   0.675  13.014 -0.8222 -2.1363  1.4502
10045TIP3   OH251625   1.409   2.254  40.432  0.3545 -0.4486  0.3261
10045TIP3    H151626   1.456   2.245  40.514  0.6824 -0.0483  0.1812
10045TIP3    H251627   1.436   2.339  40.397  1.4381 -1.2795 -0.9656
10046TIP3   OH251628   1.437   0.551   2.818  0.5914  0.5136 -0.5746
10046TIP3    H151629   1.492   0.477   2.844 -0.1008  0.2141  0.0762
10046TIP3    H251630   1.374   0.514   2.757  0.6669  0.7058 -0.7698
10047TIP3   OH251631   0.222   0.067  41.322  0.1226 -0.3271  0.1266
10047TIP3    H151632   0.193   0.133  41.385 -2.0855  0.0358 -1.2067
10047TIP3    H251633   0.240   0.115  41.242  0.0310 -1.1555 -0.4029
10048TIP3   OH251634   4.390   2.487   1.147 -0.2441 -0.1064 -0.1151
10048TIP3    H151635   4.385   2.391   1.143 -0.3880 -0.1542  0.9793
10048TIP3    H251636   4.318   2.517   1.092 -1.1377 -0.6432  0.7361
10049TIP3   OH251637   3.262   1.228  34.073 -0.0688  0.6551 -0.2154
10049TIP3    H151638   3.196   1.264  34.013 -0.9628  0.1455  0.4382
10049TIP3    H251639   3.275   1.297  34.138 -0.9781  0.2424  0.4228
10050TIP3   OH251640   3.465   2.232   5.572 -0.0161  0.0283  0.0206
10050TIP3    H151641   3.405   2.289   5.524  0.1843 -0.7506 -1.1659
10050TIP3    H251642   3.527   2.293   5.612 -0.1117  0.6843 -0.7977
10051TIP3   OH251643   2.529   0.456  27.298 -0.6823 -0.3037 -0.1346
10051TIP3    H151644   2.461   0.392  27.317  0.1492 -1.1429  0.0548
10051TIP3    H251645   2.545   0.448  27.204  0.2429 -1.2256  0.0822
10052TIP3   OH251646   3.382   4.355  38.126  0.2535 -0.0019 -0.4045
10052TIP3    H151647   3.342   4.341  38.040  1.9120  0.1899 -1.2368
10052TIP3    H251648   3.469   4.389  38.108  0.2714  1.0581  1.3951
10053TIP3   OH251649   0.552   4.266   9.698 -0.4096 -0.0614  0.1120
10053TIP3    H151650   0.465   4.300   9.719 -0.5980 -0.8132  0.5878
10053TIP3    H251651   0.590   4.241   9.782  0.5521  0.8810 -0.0195
10054TIP3   OH251652   2.711   2.461  31.797  0.0495 -0.1929  0.1976
10054TIP3    H151653   2.739   2.545  31.835  2.1802 -0.5617 -0.4270
10054TIP3    H251654   2.789   2.428  31.753 -1.4875 -1.2495 -1.8888
10055TIP3   OH251655   4.185   4.231   9.092  0.4323  0.2909  0.0249
10055TIP3    H151656   4.257   4.183   9.051  0.2545 -0.7593  0.8966
10055TIP3    H251657   4.225   4.312   9.123  0.8767  0.4437 -0.9234
10056TIP3   OH251658   3.065   2.948   8.724 -0.1353 -0.9723 -0.2154
10056TIP3    H151659   3.145   2.905   8.754  0.5326  2.1660  3.2097
10056TIP3    H251660   3.055   2.920   8.633  3.5899 -3.2047 -0.1338
10057TIP3   OH251661   1.269   1.359  11.322  0.2109 -0.2004  0.1209
10057TIP3    H151662   1.328   1.284  11.327  2.2860  1.3519  0.4781
10057TIP3    H251663   1.315   1.422  11.266 -0.5941  1.5024  1.2879
10058TIP3   OH251664   4.387   2.978  39.022  0.0390 -0.1846 -0.0090
10058TIP3    H151665   4.349   2.908  39.075  0.9459 -0.6323  0.0691
10058TIP3    H251666   4.316   3.006  38.964 -1.2715  0.8922  1.9719
10059TIP3   OH251667   3.809   4.302  40.569  0.0093  0.1039  0.1641
10059TIP3    H151668   3.778   4.292  40.660  0.6982  0.6948  0.4731
10059TIP3    H251669   3.895   4.262  40.568 -0.6651 -1.3890 -0.6564
10060TIP3   OH251670   0.384   2.954  37.658 -0.3103  0.5443 -0.1349
10060TIP3    H151671   0.318   2.940  37.591  0.3690 -2.4573 -0.3216
10060TIP3    H251672   0.408   2.866  37.687  1.9919  1.6073  1.5169
10061TIP3   OH251673   0.506   1.256   5.143 -0.1236 -0.0834 -0.6482
10061TIP3    H151674   0.479   1.214   5.062  0.9075  0.1820 -1.1309
10061TIP3    H251675   0.572   1.320   5.117 -0.1361  0.3492  0.3362
10062TIP3   OH251676   2.170   3.328   9.247  0.0774  0.0055 -0.1207
10062TIP3    H151677   2.169   3.236   9.274 -1.0887  0.3184  0.9752
10062TIP3    H251678   2.130   3.327   9.160  0.4766 -0.5736 -0.3032
10063TIP3   OH251679   3.605   2.789  31.711 -0.0959 -0.4303  0.5253
10063TIP3    H151680   3.638   2.707  31.747  0.1829  0.0713  1.4472
10063TIP3    H251681   3.641   2.856  31.769  0.3915  0.4154 -0.7143
10064TIP3   OH251682   0.888   3.814  30.138  0.6109 -0.0135  0.1357
10064TIP3    H151683   0.931   3.896  30.114  0.7474 -0.1326 -0.0385
10064TIP3    H251684   0.799   3.824  30.106  0.7528 -0.1119 -0.2951
10065TIP3   OH251685   1.606   2.907   7.432  0.4839 -0.1170  0.1595
10065TIP3    H151686   1.539   2.905   7.363 -1.1340 -0.8139  1.6730
10065TIP3    H251687   1.647   2.821   7.428  0.6272 -0.0389 -0.1274
10066TIP3   OH251688   2.311   2.474   5.812  0.1075 -0.1554  0.6472
10066TIP3    H151689   2.332   2.489   5.720 -0.9016 -1.4633  0.1659
10066TIP3    H251690   2.393   2.446   5.851  1.3833  3.5448  0.9798
10067TIP3   OH251691   2.143   4.373  28.944 -0.1516  0.5066  0.1613
10067TIP3    H151692   2.183   4.461  28.945 -1.2810  1.0335  0.3494
10067TIP3    H251693   2.212   4.316  28.909  0.7507  1.3928  0.4484
10068TIP3   OH251694   2.164   2.563  30.437 -0.4396 -0.3089 -0.4700
10068TIP3    H151695   2.245   2.610  30.454  0.7019 -1.9591 -1.0871
10068TIP3    H251696   2.166   2.544  30.344 -2.3803  1.0636 -0.8439
10069TIP3   OH251697   1.717   3.061  36.513  0.0022 -0.2408  0.0265
10069TIP3    H151698   1.715   3.142  36.564  1.6048  0.4584 -0.9410
10069TIP3    H251699   1.660   3.079  36.438 -0.5076 -0.4161  0.3703
10070TIP3   OH251700   3.508   3.285  33.490  0.2638 -0.1477  1.1698
10070TIP3    H151701   3.443   3.245  33.432  0.2479  0.3871  0.8109
10070TIP3    H251702   3.492   3.245  33.575  1.0685 -1.8508  0.5665
10071TIP3   OH251703   1.797   0.414  27.182 -0.2039 -0.0106 -0.1105
10071TIP3    H151704   1.704   0.425  27.166  0.1313  2.0837 -0.9409
10071TIP3    H251705   1.817   0.326  27.149 -2.4411 -2.0172  3.2501
10072TIP3   OH251706   2.606   2.178  41.257 -0.2794 -0.4420 -0.3105
10072TIP3    H151707   2.581   2.264  41.222  0.1279  0.1310  0.7652
10072TIP3    H251708   2.667   2.143  41.192  1.0970  0.9572  0.1658
10073TIP3   OH251709   0.823   2.150  35.041  0.0578  0.3780 -0.4030
10073TIP3    H151710   0.895   2.212  35.039 -1.3280  2.2382  2.2121
10073TIP3    H251711   0.862   2.068  35.070  1.1392  1.3399  0.9348
10074TIP3   OH251712   3.979   3.926   8.021  0.0101 -0.2817  0.7265
10074TIP3    H151713   4.067   3.901   7.993  0.3154  1.2297  0.2466
10074TIP3    H251714   3.968   3.884   8.107  0.8190 -1.2474  0.3775
10075TIP3   OH251715   0.398   3.250  12.973  0.2245  0.1684 -0.0552
10075TIP3    H151716   0.424   3.173  12.922  1.0661  1.3832 -1.5874
10075TIP3    H251717   0.303   3.246  12.976  0.1751 -0.2097 -1.3572
10076TIP3   OH251718   2.211   1.772  27.523 -0.0915  0.6989 -0.2046
10076TIP3    H151719   2.246   1.704  27.466  2.3087  0.6327  1.2211
10076TIP3    H251720   2.136   1.807  27.475  1.0498 -0.1670 -2.8095
10077TIP3   OH251721   4.329   2.683   9.359  0.2676  0.0381 -0.1121
10077TIP3    H151722   4.385   2.718   9.428 -0.5082  0.5177  0.2914
10077TIP3    H251723   4.360   2.725   9.279  0.3014  0.5251  0.1530
10078TIP3   OH251724   3.696   2.117  20.945 -0.3945 -0.0664 -0.0139
10078TIP3    H151725   3.741   2.082  21.022  1.0809  0.0796 -0.7781
10078TIP3    H251726   3.680   2.209  20.967 -0.9841 -0.2965  0.5473
10079TIP3   OH251727   4.177   1.606  32.049  0.4210  0.7105  0.3385
10079TIP3    H151728   4.223   1.686  32.023 -1.0608  1.4231 -0.1942
10079TIP3    H251729   4.188   1.602  32.144  1.0261  1.2045  0.2947
10080TIP3   OH251730   4.060   4.247  39.054 -0.8882  0.4158  0.2997
10080TIP3    H151731   3.986   4.291  39.097 -0.7234  0.8250  0.1714
10080TIP3    H251732   4.102   4.316  39.003 -0.2526  0.2508  0.5826
10081TIP3   OH251733   1.367   3.948  33.622  0.4886  0.1779 -0.6495
10081TIP3    H151734   1.300   3.941  33.554  0.2656  0.8197 -0.4950
10081TIP3    H251735   1.408   3.861  33.623 -0.7395 -0.4194 -0.3177
10082TIP3   OH251736   4.367   1.792  12.063 -0.2112  0.1016 -0.5111
10082TIP3    H151737   4.290   1.801  12.008 -1.5545 -2.5947  0.7402
10082TIP3    H251738   4.340   1.827  12.148  0.5156  0.6683 -0.5087
10083TIP3   OH251739   1.115   1.262  18.742  0.0747 -0.2431 -0.2683
10083TIP3    H151740   1.108   1.180  18.791 -0.1484  0.7612  1.4759
10083TIP3    H251741   1.078   1.243  18.656  1.9348 -2.5270 -0.6427
10084TIP3   OH251742   1.626   0.882   6.227  0.1790  0.2927  0.0910
10084TIP3    H151743   1.538   0.914   6.243  1.3779  3.5959  0.7239
10084TIP3    H251744   1.646   0.908   6.137  0.6532 -0.1614  0.0539
10085TIP3   OH251745   2.395   4.260  18.155 -0.3824 -0.2952  0.0075
10085TIP3    H151746   2.353   4.237  18.238  1.0999  1.6332  1.3936
10085TIP3    H251747   2.411   4.176  18.112  0.1299 -1.5013  2.3720
10086TIP3   OH251748   2.278   0.915   9.260 -0.1339 -0.2464  0.0594
10086TIP3    H151749   2.280   0.903   9.355 -0.5899  0.8268  0.2132
10086TIP3    H251750   2.185   0.923   9.239  0.0078  0.3361 -0.3620
10087TIP3   OH251751   0.883   3.601   4.291 -0.1389  0.1140  0.1743
10087TIP3    H151752   0.899   3.682   4.243  2.0871 -0.4742 -0.2212
10087TIP3    H251753   0.840   3.544   4.227  0.1536  0.3204 -0.2120
10088TIP3   OH251754   0.407   1.702  28.942 -0.5741 -0.3625  0.3239
10088TIP3    H151755   0.409   1.687  29.036  1.1056 -2.4740  0.0268
10088TIP3    H251756   0.374   1.620  28.905  2.3364 -1.0533 -1.0638
10089TIP3   OH251757   4.347   4.132  28.462  0.3461 -0.5226 -0.7871
10089TIP3    H151758   4.412   4.164  28.525  0.6098 -1.2744 -0.6700
10089TIP3    H251759   4.272   4.105  28.516  0.7700 -1.6502 -0.7324
10090TIP3   OH251760   0.193   3.172   6.162  0.4042  0.2225 -0.5201
10090TIP3    H151761   0.160   3.194   6.249 -0.1705  1.1731 -0.9653
10090TIP3    H251762   0.187   3.076   6.158 -2.6529  0.2945 -0.6595
10091TIP3   OH251763   0.254   2.551   4.498  0.6917  0.1745  0.0169
10091TIP3    H151764   0.282   2.539   4.407  0.5600 -0.2393  0.0275
10091TIP3    H251765   0.287   2.474   4.543  1.6348  0.8634  0.5368
10092TIP3   OH251766   4.218   3.898  30.288  0.3570  0.5259 -0.3130
10092TIP3    H151767   4.199   3.838  30.216  2.1330 -1.0740  0.4664
10092TIP3    H251768   4.268   3.970  30.247  1.3802 -0.3845 -0.7066
10093TIP3   OH251769   0.537   2.376   3.461  0.0101 -0.1185  0.5880
10093TIP3    H151770   0.627   2.345   3.471  0.7877  2.0525  0.7772
10093TIP3    H251771   0.509   2.396   3.551  0.0754  1.0895  0.3536
10094TIP3   OH251772   3.949   3.095   9.826  0.2030 -0.4865 -0.3311
10094TIP3    H151773   4.012   3.163   9.850 -0.4313  0.0313 -0.1005
10094TIP3    H251774   4.003   3.017   9.814  0.7692 -0.3763  1.1341
10095TIP3   OH251775   4.233   0.440  30.641  0.4092  0.5367  0.8639
10095TIP3    H151776   4.234   0.501  30.567 -0.5673 -0.1031  0.3012
10095TIP3    H251777   4.321   0.402  30.641  0.7012  1.1955  0.5832
10096TIP3   OH251778   3.348   3.500  33.745  0.0772  0.7706 -0.2377
10096TIP3    H151779   3.425   3.532  33.698 -1.1646  1.6356 -1.7845
10096TIP3    H251780   3.364   3.407  33.756 -0.1797  0.1491 -3.8339
10097TIP3   OH251781   4.387   2.217  21.065  0.0435 -0.0742 -0.2547
10097TIP3    H151782   4.473   2.190  21.032  0.6777  1.8821 -0.3574
10097TIP3    H251783   4.345   2.136  21.091  2.4215 -1.0328  0.9847
10098TIP3   OH251784   1.838   0.721  41.216 -0.1400 -0.2274  0.4414
10098TIP3    H151785   1.901   0.759  41.278  0.5661 -1.3778  0.4635
10098TIP3    H251786   1.831   0.786  41.146 -0.0498  0.5696  1.1660
10099TIP3   OH251787   1.565   1.744   1.198 -0.1469 -0.1645  0.4924
10099TIP3    H151788   1.538   1.761   1.107 -2.3081  0.3713  1.1800
10099TIP3    H251789   1.567   1.649   1.205  0.1062 -0.2137 -0.1170
10100TIP3   OH251790   1.500   3.098  16.066  0.2368  1.0357  0.3002
10100TIP3    H151791   1.409   3.096  16.038  0.2982  0.5794  0.1157
10100TIP3    H251792   1.508   3.023  16.125  0.6962  0.5642 -0.3467
10101TIP3   OH251793   1.958   1.263   4.229  0.0050  0.1214 -0.1164
10101TIP3    H151794   2.030   1.320   4.199  0.1047  0.4172  0.6445
10101TIP3    H251795   1.882   1.292   4.180  0.8731 -1.9206 -2.9070
10102TIP3   OH251796   3.814   2.634   4.275  0.3123  0.0927 -0.1626
10102TIP3    H151797   3.899   2.635   4.319 -0.2357 -0.5791  0.9863
10102TIP3    H251798   3.816   2.556   4.219  0.1479 -0.4368  0.5482
10103TIP3   OH251799   1.902   0.237  37.948  0.1498 -0.1518 -0.7355
10103TIP3    H151800   1.932   0.146  37.955  0.6064 -0.0064 -0.7745
10103TIP3    H251801   1.812   0.235  37.981  0.6707 -0.3451  0.7656
10104TIP3   OH251802   0.062   3.520   5.828 -0.2580 -0.0336  0.2407
10104TIP3    H151803   0.056   3.426   5.846 -2.2270  0.2998  1.7703
10104TIP3    H251804   0.151   3.533   5.796  0.9858 -2.0474  2.4877
10105TIP3   OH251805   0.965   3.744  17.593  0.8449 -0.3047 -0.6524
10105TIP3    H151806   0.899   3.704  17.649  0.2723  0.9156 -0.4296
10105TIP3    H251807   0.980   3.679  17.524 -0.6031 -0.5983 -0.7280
10106TIP3   OH251808   4.205   3.539  34.594 -0.2184 -0.6022  0.3383
10106TIP3    H151809   4.182   3.511  34.505  0.8608  0.4989 -0.3263
10106TIP3    H251810   4.194   3.460  34.647 -0.9823 -1.2593 -0.7531
10107TIP3   OH251811   3.856   3.368   0.374 -0.3674  0.4041 -0.0123
10107TIP3    H151812   3.884   3.322   0.295 -1.4374  1.3735 -0.9960
10107TIP3    H251813   3.763   3.387   0.359 -0.1967  2.0296  0.7493
10108TIP3   OH251814   0.084   3.528  29.019  0.1107  0.0356  0.1141
10108TIP3    H151815   0.155   3.568  28.969 -0.7100  0.5530 -0.6713
10108TIP3    H251816   0.109   3.541  29.111  1.1732 -0.0746 -0.1398
10109TIP3   OH251817   4.097   1.782   3.227  0.4499 -0.3871 -0.1951
10109TIP3    H151818   4.060   1.828   3.302 -0.5009  0.8987 -1.4068
10109TIP3    H251819   4.128   1.699   3.263  1.0480  0.6408  1.8169
10110TIP3   OH251820   3.066   3.874   0.394 -0.4570 -0.5922  0.0746
10110TIP3    H151821   3.119   3.795   0.404  1.5085  0.4998 -1.1232
10110TIP3    H251822   3.055   3.884   0.299 -1.6883 -0.0474  0.2523
10111TIP3   OH251823   0.148   2.998  25.312 -0.7190 -0.1021  0.1266
10111TIP3    H151824   0.209   3.053  25.263 -1.2401  0.0858 -0.3143
10111TIP3    H251825   0.063   3.039  25.300 -1.4329 -1.9263 -1.6529
10112TIP3   OH251826   0.221   2.353  22.946  0.5610  0.6689 -0.5696
10112TIP3    H151827   0.278   2.291  22.900 -0.0801 -0.1388 -0.2965
10112TIP3    H251828   0.255   2.355  23.035  0.6675  0.8291 -0.6126
10113TIP3   OH251829   0.560   4.362   9.421  0.9132 -0.3247 -0.1732
10113TIP3    H151830   0.487   4.422   9.406  1.4448  0.1006 -1.1247
10113TIP3    H251831   0.546   4.330   9.510 -1.0864 -1.1473 -0.7129
10114TIP3   OH251832   2.153   1.540  26.644 -0.0980  0.4484  0.4645
10114TIP3    H151833   2.180   1.478  26.576 -1.5388 -1.4012  1.4834
10114TIP3    H251834   2.068   1.571  26.614 -0.8893 -0.6228  1.5103
10115TIP3   OH251835   1.661   0.766   7.770  0.0050  0.3473  0.4103
10115TIP3    H151836   1.578   0.759   7.818 -0.1438  0.0485  0.1097
10115TIP3    H251837   1.646   0.717   7.690 -0.0583  1.6159 -0.3799
10116TIP3   OH251838   4.196   3.477  34.327 -0.1626 -0.2983 -0.5229
10116TIP3    H151839   4.119   3.478  34.270 -1.7407 -1.2859  1.4650
10116TIP3    H251840   4.259   3.423  34.281 -0.9421 -0.1048 -1.8606
10117TIP3   OH251841   2.210   2.481   4.432 -0.4134  0.2907 -0.2629
10117TIP3    H151842   2.265   2.511   4.359 -0.3798  0.3912 -0.1957
10117TIP3    H251843   2.272   2.455   4.500 -0.4527  0.5663 -0.1220
10118TIP3   OH251844   0.081   2.103   4.717  0.3887 -0.4157  0.2393
10118TIP3    H151845  -0.008   2.088   4.748 -0.0294 -0.9021 -1.1270
10118TIP3    H251846   0.123   2.017   4.721  0.1305 -0.6307 -1.0667
10119TIP3   OH251847   0.109   3.203  12.986  0.1579 -0.3893  0.0071
10119TIP3    H151848   0.041   3.211  13.053  1.1801  2.2797  0.8610
10119TIP3    H251849   0.083   3.127  12.934 -1.9798 -1.0938  1.9439
10120TIP3   OH251850   1.184   2.568  10.926 -0.4609 -0.1537  0.6523
10120TIP3    H151851   1.185   2.630  10.853 -1.6297 -0.8733  0.0045
10120TIP3    H251852   1.102   2.586  10.972 -1.4132 -1.9543 -0.2341
10121TIP3   OH251853   1.903   4.140  17.439 -0.1398 -0.1772 -0.8124
10121TIP3    H151854   1.879   4.049  17.418 -3.3143  0.4675 -0.4884
10121TIP3    H251855   1.944   4.134  17.525 -1.3046 -1.2415 -0.2986
10122TIP3   OH251856   0.566   4.111  21.354  0.0528  0.4965  0.2643
10122TIP3    H151857   0.510   4.042  21.318 -1.4831  1.5650  0.5397
10122TIP3    H251858   0.594   4.161  21.277 -0.6924  0.9144  0.2560
10123TIP3   OH251859   0.036   0.957  37.389  0.0255  0.3493  0.6468
10123TIP3    H151860   0.100   0.941  37.457  1.6582  0.0457 -0.8872
10123TIP3    H251861  -0.016   1.031  37.422  1.2385  0.6956  1.8731
10124TIP3   OH251862   0.428   4.229  33.923  0.8094 -0.4070  0.3723
10124TIP3    H151863   0.455   4.148  33.879 -1.0993 -0.5256 -0.7081
10124TIP3    H251864   0.389   4.282  33.853  1.1088  1.0175  1.2549
10125TIP3   OH251865   0.308   1.177  41.504  0.4263 -0.0494 -0.4303
10125TIP3    H151866   0.311   1.169  41.409 -1.5178  3.1986 -0.9301
10125TIP3    H251867   0.281   1.090  41.534 -1.5389 -0.5028 -3.1157
10126TIP3   OH251868   4.399   3.855  36.185  0.2004  0.0214  0.3216
10126TIP3    H151869   4.454   3.820  36.115 -1.5353  1.2176 -1.7393
10126TIP3    H251870   4.375   3.778  36.237 -0.0009 -1.2014 -1.5066
10127TIP3   OH251871   3.721   0.369   2.141 -0.4167 -0.2097  0.6089
10127TIP3    H151872   3.803   0.397   2.100 -0.7600 -2.0415 -1.5262
10127TIP3    H251873   3.738   0.281   2.172 -1.7820 -1.0190 -0.7523
10128TIP3   OH251874   1.351   1.707  38.315 -0.7698  0.0598 -0.1857
10128TIP3    H151875   1.302   1.758  38.380 -0.0018  2.0089 -1.0595
10128TIP3    H251876   1.343   1.757  38.234 -0.4711 -1.5606 -1.2713
10129TIP3   OH251877   4.221   3.553  23.759 -0.1431 -0.5530  0.0360
10129TIP3    H151878   4.274   3.476  23.739  0.1696 -0.5156  0.6918
10129TIP3    H251879   4.142   3.542  23.706  0.6436 -0.4525 -1.1869
10130TIP3   OH251880   0.947   1.559   9.079 -0.0706  0.7841  0.2822
10130TIP3    H151881   0.998   1.610   9.142  0.3410 -0.1257  0.6938
10130TIP3    H251882   0.937   1.473   9.119 -2.0850  0.9644  0.2966
10131TIP3   OH251883   2.045   1.028  11.706 -0.5115 -0.0082  0.2399
10131TIP3    H151884   1.955   1.037  11.738 -0.5777 -0.9247  0.3382
10131TIP3    H251885   2.040   0.958  11.641 -0.2742  1.4509 -1.4057
10132TIP3   OH251886   0.670   1.224   5.836 -0.0776  0.0535  0.0668
10132TIP3    H151887   0.623   1.150   5.874 -1.1176  0.7438  0.1398
10132TIP3    H251888   0.699   1.193   5.751  1.7718 -1.3140  1.1154
10133TIP3   OH251889   2.556   1.152  13.280  0.1481  0.1916  0.1756
10133TIP3    H151890   2.605   1.148  13.198  2.2284 -2.1589  1.4061
10133TIP3    H251891   2.544   1.245  13.297 -0.3495  0.7466 -2.7486
10134TIP3   OH251892   2.105   1.647  13.830  0.6391 -0.3008 -0.7334
10134TIP3    H151893   2.078   1.730  13.792  0.4279  0.2998  0.6739
10134TIP3    H251894   2.079   1.653  13.922  1.2077 -1.6659 -0.4591
10135TIP3   OH251895   0.295   0.092  37.252 -0.0890  0.0129 -0.1006
10135TIP3    H151896   0.225   0.119  37.192 -0.0526  1.6041  0.5217
10135TIP3    H251897   0.365   0.156  37.236  0.0163  0.3082  1.4504
10136TIP3   OH251898   0.213   3.777  38.313  0.1787  0.7288  0.5266
10136TIP3    H151899   0.214   3.813  38.224  0.5217 -1.0160 -0.2180
10136TIP3    H251900   0.122   3.785  38.341 -0.7860 -1.8864 -1.4182
10137TIP3   OH251901   0.975   3.852   2.402 -0.0361  0.1363  0.5833
10137TIP3    H151902   1.036   3.824   2.334 -0.4123 -0.4840  0.4958
10137TIP3    H251903   0.986   3.787   2.472 -0.8805 -0.2206  0.3975
10138TIP3   OH251904   2.582   4.347  41.280 -0.0088 -0.6569  0.0325
10138TIP3    H151905   2.500   4.311  41.316  0.0670  0.6619  1.6380
10138TIP3    H251906   2.618   4.400  41.351  1.6507 -0.2339 -1.0665
10139TIP3   OH251907   0.560   2.875  34.161  0.1074 -0.8676  0.5881
10139TIP3    H151908   0.576   2.944  34.097  0.0354  0.7378  2.2182
10139TIP3    H251909   0.604   2.905  34.241 -1.0911 -2.0470  1.7464
10140TIP3   OH251910   0.292   4.158  21.770 -0.3548  0.1941  0.1606
10140TIP3    H151911   0.221   4.221  21.755 -2.2145 -2.1494 -1.5720
10140TIP3    H251912   0.357   4.207  21.821 -2.6286  2.8334  0.7589
10141TIP3   OH251913   1.503   2.196  27.767  0.2931  1.0256 -0.3323
10141TIP3    H151914   1.570   2.264  27.778 -0.4229  1.6207  0.5749
10141TIP3    H251915   1.482   2.198  27.673  1.2879  1.0609 -0.5663
10142TIP3   OH251916   3.852   1.142   2.867 -0.7692 -0.7270 -0.2779
10142TIP3    H151917   3.897   1.200   2.806  1.2984 -2.0326 -0.0827
10142TIP3    H251918   3.798   1.201   2.920  0.3085  0.8657 -0.8838
10143TIP3   OH251919   2.255   3.453   5.826 -0.2265  0.7769 -0.1729
10143TIP3    H151920   2.290   3.532   5.867 -0.6831 -0.5635  3.1084
10143TIP3    H251921   2.309   3.382   5.860 -0.8867 -0.5232 -1.6948
10144TIP3   OH251922   1.702   2.344  41.101 -0.1171 -0.5923  0.2692
10144TIP3    H151923   1.676   2.370  41.189 -1.5843  0.1604 -0.3473
10144TIP3    H251924   1.728   2.426  41.059 -2.3069 -0.4240 -0.8967
10145TIP3   OH251925   4.216   4.088  12.314  0.2720  0.2371 -0.2252
10145TIP3    H151926   4.124   4.109  12.298 -0.0724 -1.2338 -0.3063
10145TIP3    H251927   4.226   4.094  12.409 -0.2199 -0.7262 -0.1016
10146TIP3   OH251928   0.495   0.926   5.443 -0.1872  0.2127 -0.4130
10146TIP3    H151929   0.460   1.014   5.457 -1.0146 -0.2968  0.8875
10146TIP3    H251930   0.493   0.886   5.530 -1.1439 -1.5745 -1.2267
10147TIP3   OH251931   0.028   3.166  28.255  0.3772  0.2498 -0.0420
10147TIP3    H151932  -0.047   3.142  28.201  0.0898  0.6065  0.1954
10147TIP3    H251933   0.068   3.082  28.278 -1.4138 -0.1719  1.9255
10148TIP3   OH251934   3.509   2.956  26.084  0.2744 -0.7486 -0.4789
10148TIP3    H151935   3.457   3.026  26.123 -1.7189 -2.4713  0.1284
10148TIP3    H251936   3.496   2.881  26.142  2.9766 -1.4770 -0.6654
10149TIP3   OH251937   1.203   0.372  26.844 -0.2461 -0.4148 -0.1510
10149TIP3    H151938   1.133   0.333  26.896 -0.4181 -4.3544 -2.8886
10149TIP3    H251939   1.274   0.307  26.848  0.9280  0.6529 -2.2102
10150TIP3   OH251940   0.103   2.224  36.930 -0.2081 -0.2174 -0.1852
10150TIP3    H151941   0.145   2.199  37.012  0.9945 -0.7651 -0.9475
10150TIP3    H251942   0.073   2.142  36.892 -1.8942  0.1432  0.2666
10151TIP3   OH251943   3.745   3.889   0.305 -0.0883  0.0388 -0.1735
10151TIP3    H151944   3.831   3.876   0.345 -0.5985 -0.5089  0.7870
10151TIP3    H251945   3.764   3.916   0.215  1.0961  1.8888  0.5788
10152TIP3   OH251946   0.978   0.222  36.607  0.1654  0.1850 -0.5815
10152TIP3    H151947   0.887   0.227  36.636  0.3814  2.0836 -0.0950
10152TIP3    H251948   1.000   0.311  36.579  1.8500 -0.2494 -0.7961
10153TIP3   OH251949   2.824   0.032  35.534 -0.0457  0.5465  0.2959
10153TIP3    H151950   2.764   0.078  35.592 -1.8160  0.2673 -1.1918
10153TIP3    H251951   2.828   0.086  35.455  2.2228  0.8777  0.5796
10154TIP3   OH251952   2.081   0.165  30.889 -0.0527  0.3714 -0.0058
10154TIP3    H151953   2.025   0.140  30.962  0.1795 -0.1404  0.0003
10154TIP3    H251954   2.140   0.091  30.877  0.6286  0.8962 -0.0056
10155TIP3   OH251955   4.152   2.790  35.022 -0.1899 -0.2346  0.0610
10155TIP3    H151956   4.213   2.787  34.949 -0.0636 -1.5850  0.1830
10155TIP3    H251957   4.206   2.778  35.100 -0.5162 -0.7612  0.2193
10156TIP3   OH251958   3.443   1.241  13.257  0.4174 -0.0090 -0.0195
10156TIP3    H151959   3.433   1.320  13.309 -0.5579  0.5601 -1.0199
10156TIP3    H251960   3.398   1.173  13.307 -0.2668  0.4669  0.0237
10157TIP3   OH251961   0.114   0.418  33.658  0.2377 -0.1662 -0.7874
10157TIP3    H151962   0.205   0.398  33.678  0.2226  0.3499 -0.1647
10157TIP3    H251963   0.065   0.340  33.686  0.4610 -0.3486 -0.9054
10158TIP3   OH251964   1.874   2.260   7.968 -0.3611  0.5231 -0.4803
10158TIP3    H151965   1.846   2.184   8.019  1.5412 -0.0361 -0.1819
10158TIP3    H251966   1.940   2.302   8.023  1.4252  0.1748 -2.2451
10159TIP3   OH251967   0.251   2.820  22.950 -0.2282  0.3193 -0.0304
10159TIP3    H151968   0.274   2.817  22.857  0.1544 -0.5147  0.0835
10159TIP3    H251969   0.199   2.899  22.959  0.6927  1.0270 -0.7398
10160TIP3   OH251970   1.769   1.426  29.457  0.1888 -0.5497  0.8041
10160TIP3    H151971   1.812   1.383  29.383  1.5605  0.6937  0.8467
10160TIP3    H251972   1.746   1.513  29.424 -0.0983 -0.3382  1.5484
10161TIP3   OH251973   0.191   1.507  23.667  0.5772 -0.3014  0.5139
10161TIP3    H151974   0.127   1.569  23.634  1.4193 -0.1919 -1.0207
10161TIP3    H251975   0.147   1.422  23.664  0.4446 -0.2092 -0.4070
10162TIP3   OH251976   1.279   3.864  40.640  0.7114 -0.3467 -0.3908
10162TIP3    H151977   1.358   3.919  40.642  0.8523 -0.5520  1.2728
10162TIP3    H251978   1.210   3.920  40.676  0.7472 -1.0509  0.8453
10163TIP3   OH251979   3.384   2.719  10.271  0.1550  0.3430  0.2239
10163TIP3    H151980   3.433   2.723  10.353  0.2290  0.0190  0.1975
10163TIP3    H251981   3.380   2.626  10.250  2.1041  0.5232 -1.2955
10164TIP3   OH251982   3.138   0.674  10.359  0.2362  0.8233  0.3906
10164TIP3    H151983   3.219   0.644  10.318  0.5045 -1.1841  2.2449
10164TIP3    H251984   3.069   0.626  10.314  0.2850  0.7032  0.4446
10165TIP3   OH251985   3.764   2.212  12.482  0.0162 -0.2487 -0.0876
10165TIP3    H151986   3.768   2.190  12.575  1.7817  0.9478  0.1552
10165TIP3    H251987   3.740   2.129  12.440 -1.4082 -0.6849  1.4303
10166TIP3   OH251988   1.598   2.521  11.484 -0.1027  0.6000 -0.0678
10166TIP3    H151989   1.664   2.533  11.416 -0.2094 -0.4567 -0.3847
10166TIP3    H251990   1.515   2.543  11.441 -0.0051  1.5326  0.2110
10167TIP3   OH251991   3.028   4.176   9.676  0.0930 -0.1541  0.1101
10167TIP3    H151992   2.995   4.248   9.624  2.1360 -0.8987 -2.4343
10167TIP3    H251993   3.075   4.218   9.748 -1.1455  0.9502  0.3075
10168TIP3   OH251994   2.908   0.981  27.094 -0.6224  1.3180  0.1785
10168TIP3    H151995   2.989   1.030  27.083 -0.2094  0.5686 -0.1698
10168TIP3    H251996   2.863   0.990  27.010  0.5827 -0.8854 -0.7973
10169TIP3   OH251997   1.849   1.539  33.347  0.0719 -0.5189  0.4281
10169TIP3    H151998   1.899   1.494  33.416 -1.8411 -1.0781  1.5435
10169TIP3    H251999   1.839   1.473  33.279  0.9407 -0.3490  0.1152
10170TIP3   OH252000   3.160   0.034  30.652 -0.1663 -0.0440  0.5147
10170TIP3    H152001   3.251   0.059  30.666 -0.7986  1.5827  2.1758
10170TIP3    H252002   3.109   0.111  30.678 -2.0456 -1.0859  0.1471
10171TIP3   OH252003   3.955   2.131  40.244  0.4353  0.1212  0.1754
10171TIP3    H152004   3.907   2.203  40.202  1.2401  1.3814  1.2962
10171TIP3    H252005   3.892   2.092  40.305  0.3641  0.7714  0.5329
10172TIP3   OH252006   1.958   3.601  16.542 -0.1205  0.0006 -0.0487
10172TIP3    H152007   2.047   3.628  16.520 -0.0865  0.0819  0.1761
10172TIP3    H252008   1.925   3.557  16.464 -0.0643  0.4299 -0.3174
10173TIP3   OH252009   0.104   0.151  40.687  0.2606 -0.1160  0.2584
10173TIP3    H152010   0.171   0.220  40.686 -0.6754  0.8169  0.6637
10173TIP3    H252011   0.049   0.170  40.611  0.0686 -0.4886  0.3027
10174TIP3   OH252012   0.724   1.892  33.572 -0.4326 -0.1673  0.0620
10174TIP3    H152013   0.756   1.809  33.538 -1.3057 -0.0932 -0.9838
10174TIP3    H252014   0.700   1.873  33.663 -0.3506 -0.9828 -0.0772
10175TIP3   OH252015   1.573   0.173   3.776  0.3000 -0.1130  0.2697
10175TIP3    H152016   1.536   0.253   3.815  2.3133  0.2731  1.5180
10175TIP3    H252017   1.517   0.155   3.701 -2.1860  0.6038  1.8391
10176TIP3   OH252018   3.195   4.389   1.692  0.0663 -0.4418  0.2392
10176TIP3    H152019   3.257   4.332   1.737 -0.1280 -1.7552 -1.0734
10176TIP3    H252020   3.183   4.463   1.751  1.0026 -1.3381  1.6104
10177TIP3   OH252021   0.203   0.973   6.456  0.2617  0.2133 -0.2028
10177TIP3    H152022   0.267   0.912   6.494 -0.0930  0.0632  0.1599
10177TIP3    H252023   0.131   0.917   6.427  0.5143  0.3263 -1.0895
10178TIP3   OH252024   0.735   3.553   9.758 -0.3190  0.2031 -0.1362
10178TIP3    H152025   0.730   3.496   9.835 -0.8916 -1.2616 -1.2034
10178TIP3    H252026   0.719   3.641   9.793  1.7963 -0.0668  1.7495
10179TIP3   OH252027   1.387   3.264   9.963 -0.5292 -0.1092  0.0015
10179TIP3    H152028   1.351   3.351   9.976 -1.1198 -0.1884 -0.9852
10179TIP3    H252029   1.315   3.213   9.924  0.2002 -0.6602 -0.6858
10180TIP3   OH252030   4.378   4.081   5.659 -0.2914  0.4018  0.0794
10180TIP3    H152031   4.426   4.060   5.579 -1.8553 -0.2545 -0.7387
10180TIP3    H252032   4.415   4.024   5.726  2.9745  2.8803  0.6172
10181TIP3   OH252033   4.326   3.848   9.381  0.2333 -0.2178 -0.4586
10181TIP3    H152034   4.323   3.926   9.326 -0.0238 -1.3257 -2.0797
10181TIP3    H252035   4.336   3.882   9.470 -1.5784  1.7110 -0.9186
10182TIP3   OH252036   2.150   1.861   8.011  0.5113 -0.2776  0.3120
10182TIP3    H152037   2.125   1.908   7.932  0.4892  0.8940  0.9832
10182TIP3    H252038   2.156   1.770   7.984  0.1909  0.0529 -0.9573
10183TIP3   OH252039   3.454   0.041  36.458  0.1990  0.0407 -0.4619
10183TIP3    H152040   3.450   0.117  36.400  0.9894 -0.5518 -1.3387
10183TIP3    H252041   3.387   0.056  36.524 -0.3617  0.9933 -1.2355
10184TIP3   OH252042   1.918   2.055  35.373 -0.6562 -0.0882  0.6604
10184TIP3    H152043   1.848   2.086  35.431 -1.5095 -2.7288  1.2022
10184TIP3    H252044   1.876   1.986  35.321  0.8556  0.2342 -1.0745
10185TIP3   OH252045   0.545   2.614  41.253  0.1308 -0.1381  0.2498
10185TIP3    H152046   0.543   2.645  41.163  0.1007  0.2616  0.3841
10185TIP3    H252047   0.455   2.625  41.285  0.3511  0.6185  0.6225
10186TIP3   OH252048   1.608   0.567  37.681  0.0551 -0.1449 -0.7677
10186TIP3    H152049   1.703   0.568  37.666  0.2089 -1.3166  0.0301
10186TIP3    H252050   1.582   0.476  37.666 -1.0853  0.3060 -1.7101
10187TIP3   OH252051   1.384   1.187  16.792 -0.0795  0.0919  0.2458
10187TIP3    H152052   1.306   1.238  16.771 -0.0609  0.5573  1.2385
10187TIP3    H252053   1.382   1.113  16.732 -0.9185  0.4693 -0.1984
10188TIP3   OH252054   3.112   1.762  11.318  0.0572  0.3267  0.6495
10188TIP3    H152055   3.019   1.758  11.298  0.0762 -0.6648  0.6844
10188TIP3    H252056   3.150   1.818  11.250 -0.1618 -1.4661 -1.0389
10189TIP3   OH252057   1.646   3.167   8.230 -0.2221 -0.5365  0.3493
10189TIP3    H152058   1.703   3.092   8.244  0.5869 -0.4064 -1.8079
10189TIP3    H252059   1.557   3.132   8.236  0.1119 -1.2655  1.2002
10190TIP3   OH252060   1.795   4.282  39.488 -0.0322 -1.3494 -0.6010
10190TIP3    H152061   1.880   4.243  39.468 -0.1155 -1.4705 -0.7167
10190TIP3    H252062   1.732   4.226  39.444 -0.0691 -0.3599 -1.8830
10191TIP3   OH252063   2.243   3.191  10.174  0.1667  0.1152 -0.7107
10191TIP3    H152064   2.150   3.207  10.188  0.0369  0.4135 -1.8561
10191TIP3    H252065   2.282   3.205  10.261 -0.8002  0.3449 -0.2963
10192TIP3   OH252066   3.658   2.146  32.523  0.0781  0.1417  0.0902
10192TIP3    H152067   3.695   2.179  32.605 -0.4276  2.5703 -0.5967
10192TIP3    H252068   3.713   2.184  32.454  1.3609 -2.9443 -0.7586
10193TIP3   OH252069   3.973   0.613   4.677  0.1170  0.2203 -1.0118
10193TIP3    H152070   4.023   0.666   4.615 -0.8874  0.3355 -1.7664
10193TIP3    H252071   3.882   0.638   4.661 -0.1769  0.2194  0.5001
10194TIP3   OH252072   1.019   4.028  28.441  0.6899  0.6277 -0.3855
10194TIP3    H152073   0.977   4.107  28.406  1.7734  1.0049 -0.8581
10194TIP3    H252074   0.979   3.956  28.391  0.6181  0.9816 -0.8461
10195TIP3   OH252075   1.327   1.857  10.314  0.2346  0.1273 -0.1139
10195TIP3    H152076   1.271   1.922  10.272  1.1084  1.1832  0.3009
10195TIP3    H252077   1.281   1.834  10.394  0.6714  1.4819  0.5529
10196TIP3   OH252078   2.695   2.818   7.652 -0.2071  0.0959 -0.1509
10196TIP3    H152079   2.774   2.784   7.694 -0.0989  1.8198  1.1307
10196TIP3    H252080   2.651   2.868   7.720 -1.4539  0.6942 -1.3542
10197TIP3   OH252081   0.406   3.296   0.808 -0.7520 -0.8309 -0.2828
10197TIP3    H152082   0.401   3.260   0.720 -2.1653  0.5919 -0.8273
10197TIP3    H252083   0.319   3.281   0.845 -0.5052 -0.4475  0.4765
10198TIP3   OH252084   2.490   0.885  34.132 -0.4051  0.9638 -1.0947
10198TIP3    H152085   2.506   0.797  34.097  0.0985  0.2680  0.7447
10198TIP3    H252086   2.543   0.942  34.076 -2.4065  0.4847 -3.7172
10199TIP3   OH252087   0.145   2.519  28.293  0.7583  0.2566  0.2737
10199TIP3    H152088   0.086   2.583  28.332  0.4325  0.2955 -0.2764
10199TIP3    H252089   0.181   2.470  28.368 -1.9624 -1.5606  0.5425
10200TIP3   OH252090   1.146   4.399   1.458 -0.7707  0.5639  0.6737
10200TIP3    H152091   1.059   4.414   1.421 -0.1976 -1.4133 -1.7833
10200TIP3    H252092   1.205   4.444   1.398  0.1059 -1.4687 -0.0756
10201TIP3   OH252093   0.352   3.809   8.437 -0.5434 -0.1713  0.0534
10201TIP3    H152094   0.415   3.798   8.509  0.0138 -0.2815 -0.4400
10201TIP3    H252095   0.365   3.731   8.382  0.1725  0.6607 -1.0134
10202TIP3   OH252096   3.246   2.548   1.409 -0.4304  0.2195 -0.5896
10202TIP3    H152097   3.325   2.601   1.396 -0.1596  0.5875  2.0181
10202TIP3    H252098   3.278   2.462   1.436 -0.8404  0.7644  1.8522
10203TIP3   OH252099   2.503   0.816  38.592  0.4574 -0.4986  0.1896
10203TIP3    H152100   2.559   0.752  38.547  0.3650 -0.2353 -0.2926
10203TIP3    H252101   2.422   0.818  38.542 -0.4349 -1.6812  1.4949
10204TIP3   OH252102   0.021   0.706  37.726 -0.0102 -0.5776 -0.0393
10204TIP3    H152103   0.083   0.766  37.684 -0.0801  0.2961  1.0490
10204TIP3    H252104  -0.048   0.763  37.759 -0.7483 -1.4126 -0.1141
10205TIP3   OH252105   3.935   4.177  12.768 -0.4764  0.2712  0.1032
10205TIP3    H152106   3.947   4.140  12.856  1.4454 -1.9944 -0.9863
10205TIP3    H252107   4.005   4.137  12.715 -3.3614 -0.8954 -3.1947
10206TIP3   OH252108   1.774   1.514   1.163 -0.1062  0.7565 -0.0074
10206TIP3    H152109   1.776   1.455   1.238 -0.5244  1.1100  0.2829
10206TIP3    H252110   1.810   1.596   1.195 -0.3747  0.9382 -0.1672
10207TIP3   OH252111   1.126   2.034  29.549  0.0758 -0.0610  0.1557
10207TIP3    H152112   1.065   2.058  29.619  0.8847  1.4393  0.3997
10207TIP3    H252113   1.191   1.978  29.593  0.2187  0.3406  0.4643
10208TIP3   OH252114   4.080   1.258  29.534 -0.1237  0.7327  0.3173
10208TIP3    H152115   4.027   1.235  29.611 -0.2656  0.9693  0.2900
10208TIP3    H252116   4.131   1.334  29.561  0.0945  0.5936  0.2939
10209TIP3   OH252117   2.829   1.246  28.083  0.3375 -0.2183  0.3185
10209TIP3    H152118   2.834   1.182  28.155  0.2859 -0.1611  0.3733
10209TIP3    H252119   2.882   1.207  28.013 -1.5226 -1.4196 -0.5081
10210TIP3   OH252120   1.208   3.347  38.059 -0.1863 -0.3318 -0.0166
10210TIP3    H152121   1.159   3.334  38.140  1.2657 -0.5870  0.8577
10210TIP3    H252122   1.212   3.260  38.019 -0.4099 -0.3154 -0.0784
10211TIP3   OH252123   1.170   3.945  11.826 -0.3316 -0.3374  0.4518
10211TIP3    H152124   1.093   3.954  11.769 -0.8134 -1.1474  0.9496
10211TIP3    H252125   1.229   3.888  11.777 -0.7346 -1.0128  0.7465
10212TIP3   OH252126   2.778   0.827  39.799 -0.2665  0.3613  0.0435
10212TIP3    H152127   2.697   0.840  39.848 -0.4178  1.0176 -0.3621
10212TIP3    H252128   2.844   0.808  39.866 -0.8913 -0.9664  0.3207
10213TIP3   OH252129   0.995   0.732  31.911 -0.0326 -0.5643 -0.5992
10213TIP3    H152130   0.961   0.814  31.876  1.8648  1.1823  1.2990
10213TIP3    H252131   0.954   0.724  31.997 -0.9133 -2.1621 -1.1303
10214TIP3   OH252132   4.098   4.095   1.866  0.3750 -0.6030  0.3965
10214TIP3    H152133   4.007   4.122   1.853  0.6142  0.0166 -0.0146
10214TIP3    H252134   4.108   4.018   1.809  0.1883 -0.5106  0.2366
10215TIP3   OH252135   3.880   0.104   5.772 -0.5284 -0.5210  0.3878
10215TIP3    H152136   3.850   0.042   5.838 -0.1223 -0.1784  0.9063
10215TIP3    H252137   3.851   0.189   5.806  4.9349  0.5514  3.4907
10216TIP3   OH252138   1.879   1.048  32.176 -0.4181  0.1490  0.2126
10216TIP3    H152139   1.830   0.967  32.165  0.2815 -0.2308 -0.1365
10216TIP3    H252140   1.863   1.096  32.094 -1.0730  0.5038  0.5389
10217TIP3   OH252141   4.328   1.954   8.210  0.2427 -0.3079 -0.1331
10217TIP3    H152142   4.379   1.890   8.160  1.3656  0.3917  0.0722
10217TIP3    H252143   4.394   2.007   8.255 -0.6826  0.5652  0.2287
10218TIP3   OH252144   4.150   2.600   4.672 -0.3575  0.1541  0.0477
10218TIP3    H152145   4.158   2.617   4.578 -1.2090 -1.3425 -0.3391
10218TIP3    H252146   4.193   2.515   4.684  0.0171  0.4790  1.0711
10219TIP3   OH252147   3.266   1.161  27.714 -0.0708  0.5150 -0.0641
10219TIP3    H152148   3.329   1.213  27.764  1.2013  0.7862 -1.8410
10219TIP3    H252149   3.320   1.097  27.667 -1.2647 -0.0917 -0.6511
10220TIP3   OH252150   0.779   1.233   1.246  1.1617  0.1870 -0.2367
10220TIP3    H152151   0.872   1.212   1.242  1.1604  0.1598 -0.1085
10220TIP3    H252152   0.735   1.148   1.245  1.1537  0.1847  0.1863
10221TIP3   OH252153   2.838   1.782  28.950  0.2506 -0.1571  0.6534
10221TIP3    H152154   2.876   1.707  28.904  1.9947  0.2776  1.3297
10221TIP3    H252155   2.881   1.858  28.912  0.4295  0.3144  1.7645
10222TIP3   OH252156   2.973   1.877   5.340 -0.0634  0.1861  0.3242
10222TIP3    H152157   3.023   1.936   5.283 -0.3956 -1.7930 -2.1820
10222TIP3    H252158   3.028   1.799   5.347 -0.6781 -0.1507  1.5973
10223TIP3   OH252159   4.215   3.286   8.307 -0.2771 -0.3353 -0.4156
10223TIP3    H152160   4.158   3.359   8.329  0.8404  1.0316 -1.8205
10223TIP3    H252161   4.285   3.289   8.372 -0.9861 -1.1076  0.4157
10224TIP3   OH252162   1.025   3.331  36.920  0.2902 -0.0015  0.4268
10224TIP3    H152163   0.934   3.300  36.916  0.0994  0.6594 -1.1458
10224TIP3    H252164   1.078   3.251  36.917 -0.2281 -0.3296 -0.3854
10225TIP3   OH252165   1.313   1.010  13.630  0.8679  0.2800 -0.4523
10225TIP3    H152166   1.329   0.999  13.536 -1.9249 -0.1979 -0.9386
10225TIP3    H252167   1.299   0.921  13.663 -0.2826  0.6009 -0.0346
10226TIP3   OH252168   1.776   1.131   8.797 -0.2312 -0.5662  0.0972
10226TIP3    H152169   1.792   1.052   8.746 -0.5471  1.2158 -3.0709
10226TIP3    H252170   1.862   1.160   8.826  0.1571 -0.8673 -0.7311
10227TIP3   OH252171   2.036   2.926   2.945 -0.4127  0.6910 -0.0125
10227TIP3    H152172   2.121   2.956   2.914  0.3661 -1.0060  0.3203
10227TIP3    H252173   2.020   2.976   3.025  0.6712  0.4773  0.3563
10228TIP3   OH252174   3.471   1.147  23.812 -0.2097 -0.5120  0.4255
10228TIP3    H152175   3.519   1.156  23.730 -0.0916  0.7559  0.6168
10228TIP3    H252176   3.447   1.237  23.835  1.1067 -0.6547  2.5787
10229TIP3   OH252177   1.581   1.242  32.591 -0.7503 -0.1551  0.6174
10229TIP3    H152178   1.651   1.178  32.578  0.4594  1.1775  0.2161
10229TIP3    H252179   1.501   1.190  32.593  0.1569 -1.6497  0.1448
10230TIP3   OH252180   2.406   0.894   3.315  0.5046 -0.0815  0.4888
10230TIP3    H152181   2.441   0.961   3.374  1.8080  0.1833 -0.5486
10230TIP3    H252182   2.324   0.930   3.283  0.6023  0.4842  0.8658
10231TIP3   OH252183   1.613   1.190  34.343  0.1407  0.5045  0.2841
10231TIP3    H152184   1.619   1.283  34.322 -0.6905  0.4146 -0.4391
10231TIP3    H252185   1.649   1.182  34.431  3.7148  0.9525 -0.9680
10232TIP3   OH252186   0.695   2.799  39.877  0.2239  0.0946 -0.0581
10232TIP3    H152187   0.674   2.722  39.824 -0.2670  0.4721 -0.4215
10232TIP3    H252188   0.616   2.852  39.873 -0.1492 -0.2678  1.7812
10233TIP3   OH252189   3.102   1.055  33.416 -0.0935 -0.2372 -0.1063
10233TIP3    H152190   3.141   1.121  33.359 -1.8134 -0.2746 -1.4404
10233TIP3    H252191   3.020   1.031  33.371 -0.3725 -1.9807  1.2328
10234TIP3   OH252192   3.861   2.163   0.226  0.8338  0.0600 -0.1731
10234TIP3    H152193   3.814   2.110   0.290  0.3904 -0.1141 -0.6312
10234TIP3    H252194   3.863   2.109   0.147  1.5025  0.2099 -0.2633
10235TIP3   OH252195   3.568   2.166   3.338 -0.0919  0.0401 -0.4005
10235TIP3    H152196   3.490   2.191   3.288  0.0726  0.7494 -0.3156
10235TIP3    H252197   3.631   2.236   3.320 -0.1914  0.5870  1.1817
10236TIP3   OH252198   3.690   0.911  34.643  0.1276  0.4505 -0.3623
10236TIP3    H152199   3.658   0.828  34.679 -0.8113  0.2659 -1.5507
10236TIP3    H252200   3.701   0.893  34.550 -0.1864  1.6876 -0.6477
10237TIP3   OH252201   0.619   1.376  21.976 -0.6477 -0.0926  0.2372
10237TIP3    H152202   0.711   1.358  21.961 -1.3401 -1.7002 -2.8847
10237TIP3    H252203   0.617   1.465  22.009  1.9882  0.1294  0.0033
10238TIP3   OH252204   2.038   1.057  30.939 -0.7657  0.3143 -0.3991
10238TIP3    H152205   1.979   1.105  30.996 -1.2612 -1.4525  0.6259
10238TIP3    H252206   2.062   0.979  30.988  2.1965  0.7825 -0.8859
10239TIP3   OH252207   0.850   2.239  40.414 -0.6790  0.2081  0.2848
10239TIP3    H152208   0.818   2.222  40.325 -0.0247  1.9469 -0.3383
10239TIP3    H252209   0.945   2.244  40.405 -0.6279  0.7524  1.0072
10240TIP3   OH252210   1.331   2.220   9.720  0.0351  0.2797  0.7779
10240TIP3    H152211   1.256   2.272   9.750 -1.1272 -0.7768 -0.1938
10240TIP3    H252212   1.378   2.198   9.800 -0.0614  1.8644  1.3159
10241TIP3   OH252213   1.663   1.630   7.398  0.2590  0.4455 -0.6856
10241TIP3    H152214   1.644   1.537   7.397 -0.5195  0.5949 -0.4973
10241TIP3    H252215   1.703   1.646   7.483 -0.3826  0.4282 -0.3779
10242TIP3   OH252216   2.625   1.536  37.452  0.2108  0.0155 -0.4417
10242TIP3    H152217   2.668   1.584  37.381  1.8528  0.3326  0.7329
10242TIP3    H252218   2.557   1.485  37.408 -1.1654  2.8271 -1.8542
10243TIP3   OH252219   0.505   1.609   9.009 -0.1767  0.2092  0.2735
10243TIP3    H152220   0.474   1.530   9.052 -0.0665 -0.3925 -0.7217
10243TIP3    H252221   0.465   1.606   8.921  0.0017  1.1437  0.1455
10244TIP3   OH252222   0.311   0.087  22.723 -0.2257  0.1596  0.1543
10244TIP3    H152223   0.315  -0.004  22.751 -1.3984 -0.0895 -0.4319
10244TIP3    H252224   0.284   0.135  22.801  0.4975  0.0272  0.4911
10245TIP3   OH252225   3.389   1.756  39.728  0.9134  0.3723 -0.0187
10245TIP3    H152226   3.307   1.707  39.726  1.1659 -0.2033  1.6107
10245TIP3    H252227   3.393   1.801  39.644 -0.7783 -0.0542 -0.3614
10246TIP3   OH252228   1.094   0.847  36.744 -0.2540 -0.0572  0.0918
10246TIP3    H152229   1.124   0.845  36.835 -0.5728 -0.6375  0.1829
10246TIP3    H252230   1.172   0.824  36.694 -0.4236 -1.1740  0.3124
10247TIP3   OH252231   0.870   3.614  32.947  0.5991 -0.4726 -0.0061
10247TIP3    H152232   0.811   3.583  32.878  1.9218  1.6062 -2.2182
10247TIP3    H252233   0.827   3.692  32.982 -0.1462 -1.6072  1.7603
10248TIP3   OH252234   0.341   0.448  41.298  0.0711  0.0688 -0.0799
10248TIP3    H152235   0.423   0.484  41.331 -0.2009  0.9629 -0.3466
10248TIP3    H252236   0.322   0.500  41.220 -0.3498 -0.6546 -0.4707
10249TIP3   OH252237   3.221   2.677  31.719  0.8899  0.0517  0.5685
10249TIP3    H152238   3.230   2.618  31.794 -1.2758  1.5894  2.1701
10249TIP3    H252239   3.154   2.635  31.664  0.5555  0.1780  0.8695
10250TIP3   OH252240   1.159   0.530  22.991 -0.4626  0.6948  0.0256
10250TIP3    H152241   1.095   0.460  22.999 -0.9359  1.2269  1.0185
10250TIP3    H252242   1.233   0.490  22.945 -0.7320 -0.4432  0.5608
10251TIP3   OH252243   4.310   3.374  23.445 -0.3780 -0.0341 -0.5909
10251TIP3    H152244   4.329   3.365  23.539 -1.1411 -3.3246 -0.6128
10251TIP3    H252245   4.217   3.392  23.442 -0.1562  1.1540 -0.7376
10252TIP3   OH252246   0.924   1.764  29.717 -0.6840  0.0885  0.3801
10252TIP3    H152247   0.970   1.799  29.793  0.1657  1.4362 -0.7177
10252TIP3    H252248   0.954   1.674  29.710  2.4453  1.1061 -0.7289
10253TIP3   OH252249   0.285   2.843  22.255  0.0531 -0.3455 -0.4215
10253TIP3    H152250   0.278   2.900  22.332 -0.4368 -1.7228  0.5836
10253TIP3    H252251   0.299   2.903  22.182 -0.0927  1.0374  0.6544
10254TIP3   OH252252   4.394   0.681  23.624 -0.8732 -0.0295  0.3910
10254TIP3    H152253   4.465   0.674  23.687 -0.8686 -0.1848  0.3693
10254TIP3    H252254   4.435   0.719  23.546 -1.1142  1.2110  0.8569
10255TIP3   OH252255   3.544   1.459  25.391  0.5840 -0.0604 -0.2972
10255TIP3    H152256   3.635   1.445  25.417  0.4529 -0.0910  0.1419
10255TIP3    H252257   3.508   1.517  25.459  0.5578  0.7769 -0.9992
10256TIP3   OH252258   2.565   1.472  40.465  0.1893  0.4706 -0.1055
10256TIP3    H152259   2.605   1.532  40.402 -2.8130  1.0512 -1.6521
10256TIP3    H252260   2.561   1.388  40.419 -0.2655  0.4059  0.0456
10257TIP3   OH252261   2.998   3.875  32.455  0.3423 -0.8741 -0.1390
10257TIP3    H152262   2.920   3.918  32.419 -0.2132 -1.0268  0.8308
10257TIP3    H252263   3.059   3.871  32.382 -0.7212 -1.1412 -1.0499
10258TIP3   OH252264   3.536   1.715  39.944  0.1103 -0.1709 -0.3477
10258TIP3    H152265   3.477   1.730  39.870 -0.4976 -0.0031  0.1614
10258TIP3    H252266   3.624   1.717  39.906 -0.2015 -0.2133 -1.0836
10259TIP3   OH252267   2.477   2.877   8.648  0.6925  0.2955 -0.1068
10259TIP3    H152268   2.537   2.949   8.628  0.5751  0.1260 -1.0799
10259TIP3    H252269   2.534   2.801   8.659  0.6983  0.2236 -0.6083
10260TIP3   OH252270   1.390   2.756   7.029 -0.1237  0.0695  0.0342
10260TIP3    H152271   1.346   2.702   7.095 -1.2875  0.5478 -0.3214
10260TIP3    H252272   1.403   2.841   7.073 -0.6228  0.2915 -0.2353
10261TIP3   OH252273   0.760   1.326  32.408  0.3527 -1.1479 -0.4141
10261TIP3    H152274   0.704   1.255  32.376 -0.8037  0.3653 -1.9697
10261TIP3    H252275   0.771   1.384  32.332  0.8951  0.5317  0.8788
10262TIP3   OH252276   1.412   3.509  14.208 -0.3739  0.3291  0.1681
10262TIP3    H152277   1.408   3.546  14.296 -1.2664  0.7752 -0.0458
10262TIP3    H252278   1.337   3.450  14.203 -0.3170  0.2879 -0.2829
10263TIP3   OH252279   3.599   3.822  29.451  0.2022  0.0795  0.3477
10263TIP3    H152280   3.554   3.757  29.506  0.8974  0.1002  0.9578
10263TIP3    H252281   3.585   3.791  29.362 -1.2066  0.2027  0.5043
10264TIP3   OH252282   1.919   1.363  13.845 -0.0581 -0.2416  0.0341
10264TIP3    H152283   1.891   1.423  13.914  0.7922  0.6531 -0.3641
10264TIP3    H252284   1.852   1.372  13.777  0.7505  1.3387 -0.6093
10265TIP3   OH252285   1.780   3.628   6.745  0.0028  0.6272 -0.3720
10265TIP3    H152286   1.695   3.631   6.788 -0.7145  0.6032 -1.7554
10265TIP3    H252287   1.770   3.683   6.667  1.4052  1.0228 -0.3018
10266TIP3   OH252288   2.162   1.126  41.199 -0.2219  0.3746 -0.0633
10266TIP3    H152289   2.210   1.202  41.166  1.8805 -0.2754  1.2466
10266TIP3    H252290   2.205   1.051  41.158  0.6446 -0.2803  1.8716
10267TIP3   OH252291   3.650   2.997  11.383 -1.2976  0.3983 -0.2817
10267TIP3    H152292   3.726   2.939  11.385  0.0125  2.0685  1.0611
10267TIP3    H252293   3.628   3.011  11.475 -1.6081  1.9977 -0.5755
10268TIP3   OH252294   3.670   0.939  39.801  0.1488  0.3751 -0.2048
10268TIP3    H152295   3.727   0.879  39.753 -0.0823  0.2213 -0.2868
10268TIP3    H252296   3.718   0.958  39.882  0.4646  0.5083 -0.4218
10269TIP3   OH252297   3.390   1.975   2.305 -0.1013 -0.1103  0.0774
10269TIP3    H152298   3.332   2.051   2.309 -1.1435 -0.7447 -1.8745
10269TIP3    H252299   3.341   1.909   2.257  2.0809 -0.8286 -1.3233
10270TIP3   OH252300   1.238   4.138  39.943 -0.2337 -0.1856 -0.2939
10270TIP3    H152301   1.305   4.181  39.996 -0.2818  0.2934 -0.6212
10270TIP3    H252302   1.165   4.200  39.941 -0.1844 -0.1441 -1.0290
10271TIP3   OH252303   0.923   2.241  36.543  0.2727  0.3885 -0.4263
10271TIP3    H152304   0.863   2.228  36.470  1.1045 -1.2320 -0.8843
10271TIP3    H252305   0.876   2.208  36.620 -0.2569  1.2542 -0.3647
10272TIP3   OH252306   4.113   2.122  26.185 -0.0603 -0.1120 -0.1635
10272TIP3    H152307   4.084   2.059  26.120  0.2770  0.4745 -0.8993
10272TIP3    H252308   4.204   2.140  26.162 -0.4791  1.5132 -0.6906
10273TIP3   OH252309   4.178   2.101  40.369 -0.5098  0.4900  0.1198
10273TIP3    H152310   4.100   2.141  40.331 -0.9186 -1.0441 -0.7529
10273TIP3    H252311   4.251   2.145  40.326 -0.9311  0.6840 -0.4044
10274TIP3   OH252312   0.012   2.769  31.650 -0.3246 -0.2980  0.4807
10274TIP3    H152313   0.095   2.730  31.679 -0.9928 -0.4310  2.3247
10274TIP3    H252314  -0.027   2.804  31.729 -1.1522  1.5318 -0.6711
10275TIP3   OH252315   1.343   0.519   9.390  0.2041  0.1683 -0.0658
10275TIP3    H152316   1.415   0.531   9.328  0.7761 -1.0936  0.3259
10275TIP3    H252317   1.345   0.597   9.445  1.4183  0.0474  0.0827
10276TIP3   OH252318   2.046   2.736   3.954  0.2946  0.3633 -0.0273
10276TIP3    H152319   2.051   2.801   4.025  2.4879 -0.7142  0.9044
10276TIP3    H252320   2.127   2.749   3.905 -0.5327  0.1175 -1.4949
10277TIP3   OH252321   4.242   0.310  32.302 -0.1229 -0.8679  0.0038
10277TIP3    H152322   4.255   0.360  32.222  0.7650  1.5176  1.5264
10277TIP3    H252323   4.147   0.302  32.311 -0.3336  1.1459 -0.0079
10278TIP3   OH252324   1.321   2.259  15.793 -0.8692  0.5479  0.2883
10278TIP3    H152325   1.338   2.263  15.887  1.5470 -2.4033  0.1298
10278TIP3    H252326   1.406   2.279  15.753 -1.3774 -0.1240 -1.1985
10279TIP3   OH252327   1.508   3.162  31.271  0.0018 -0.2896  0.1570
10279TIP3    H152328   1.557   3.149  31.190  0.7065  0.3404  0.4720
10279TIP3    H252329   1.448   3.235  31.252  1.1090  0.7579  0.6028
10280TIP3   OH252330   1.809   2.146  37.873 -0.2848 -0.0572  0.4515
10280TIP3    H152331   1.843   2.228  37.837  0.7593 -0.4667  0.4710
10280TIP3    H252332   1.714   2.155  37.867 -0.1851  0.1676 -1.7849
10281TIP3   OH252333   1.251   3.073   5.892  0.3700  0.0622  0.0059
10281TIP3    H152334   1.308   3.150   5.899  0.6691 -0.1950  0.4701
10281TIP3    H252335   1.304   3.008   5.846  0.0119  0.2322 -0.6450
10282TIP3   OH252336   2.659   2.365   1.725  0.3766  0.4732  0.1418
10282TIP3    H152337   2.616   2.425   1.664 -1.4188  1.7453  2.4953
10282TIP3    H252338   2.747   2.402   1.736  0.4154  0.7353 -0.9794
10283TIP3   OH252339   3.461   1.330  28.672 -0.3811 -0.1674 -0.1119
10283TIP3    H152340   3.373   1.320  28.634 -0.6613 -2.8929  1.0195
10283TIP3    H252341   3.476   1.248  28.719  1.6418  1.3593  2.1441
10284TIP3   OH252342   0.358   0.901   7.313  1.0419 -0.0726 -0.1916
10284TIP3    H152343   0.422   0.922   7.381 -0.9052 -1.7260  2.3734
10284TIP3    H252344   0.356   0.805   7.311  0.7321 -0.0717 -2.3460
10285TIP3   OH252345   3.624   2.213  26.677  0.4025  0.3115  0.3452
10285TIP3    H152346   3.637   2.254  26.591  0.7828 -1.3716 -0.4336
10285TIP3    H252347   3.609   2.121  26.658 -0.0626 -0.0038  2.0693
10286TIP3   OH252348   0.892   2.969   2.724  0.3635 -0.3045 -0.0202
10286TIP3    H152349   0.823   2.911   2.692 -1.2200  1.6501 -0.3357
10286TIP3    H252350   0.936   2.918   2.792 -0.8533 -1.8973 -0.3546
10287TIP3   OH252351   1.076   1.737  39.200 -0.5372  0.2426 -0.1625
10287TIP3    H152352   1.015   1.806  39.175 -2.1020 -0.9348  0.2413
10287TIP3    H252353   1.020   1.664  39.225  1.0163 -0.3274  1.8997
10288TIP3   OH252354   4.263   0.581   0.711 -0.0920  0.0004 -0.5495
10288TIP3    H152355   4.321   0.579   0.787  0.4576 -0.1880 -0.9669
10288TIP3    H252356   4.318   0.551   0.638 -0.4883  0.5933 -1.1023
10289TIP3   OH252357   3.534   2.339  31.784 -0.0266 -0.1651  0.0626
10289TIP3    H152358   3.535   2.372  31.694 -0.1130 -1.6405 -0.5119
10289TIP3    H252359   3.608   2.279  31.789 -0.1902 -0.3117  0.8889
10290TIP3   OH252360   1.040   3.275  33.453 -1.0149  0.1880  0.1327
10290TIP3    H152361   1.098   3.350  33.440 -0.7152  0.1911  1.3249
10290TIP3    H252362   1.099   3.200  33.455 -1.1858  0.0538  0.1737
10291TIP3   OH252363   0.928   0.851   1.490  0.0895 -0.6282  0.0763
10291TIP3    H152364   0.872   0.927   1.506  0.9961  0.0258  0.1983
10291TIP3    H252365   0.937   0.810   1.576  0.3168 -0.3643  0.1810
10292TIP3   OH252366   1.747   3.874   5.150  0.4781  0.2361 -0.1842
10292TIP3    H152367   1.762   3.814   5.077 -1.5313 -1.1979  0.4949
10292TIP3    H252368   1.716   3.955   5.109 -1.0337 -0.6965 -0.9260
10293TIP3   OH252369   3.259   4.155   1.862  0.1349  0.5587 -0.3643
10293TIP3    H152370   3.308   4.095   1.806  0.9035  2.0418 -1.3339
10293TIP3    H252371   3.325   4.196   1.917 -0.3864  0.5210  0.3007
10294TIP3   OH252372   3.722   1.437  37.940 -0.1657 -0.0313  0.2199
10294TIP3    H152373   3.749   1.448  38.032  3.0572 -1.2457 -0.4208
10294TIP3    H252374   3.746   1.520  37.899  0.9490 -0.4298  0.0199
10295TIP3   OH252375   3.837   2.854  11.811  0.5392 -0.0564 -0.7183
10295TIP3    H152376   3.923   2.884  11.839 -0.2756  2.5921 -0.7895
10295TIP3    H252377   3.839   2.864  11.715  0.1241  0.1542 -0.7064
10296TIP3   OH252378   2.131   0.724   1.635 -0.2039  0.5459 -0.0150
10296TIP3    H152379   2.080   0.747   1.712 -0.7024 -1.8511  0.4601
10296TIP3    H252380   2.072   0.743   1.561 -1.6068 -1.4756  0.4856
10297TIP3   OH252381   1.721   0.406   4.327 -0.3681  0.8240 -0.5308
10297TIP3    H152382   1.637   0.436   4.291 -3.4017 -2.2083  3.0914
10297TIP3    H252383   1.754   0.345   4.260 -1.9647  0.7840 -1.3518
10298TIP3   OH252384   0.572   2.169   5.524  0.2836 -0.8834  0.5523
10298TIP3    H152385   0.523   2.146   5.445  2.0937 -1.2532 -0.5239
10298TIP3    H252386   0.569   2.090   5.578  0.0068 -1.0283  0.3268
10299TIP3   OH252387   1.811   2.120  32.482  0.0443 -0.6154  0.4656
10299TIP3    H152388   1.883   2.067  32.515  1.2170  0.4273 -0.3303
10299TIP3    H252389   1.835   2.210  32.503  0.1503 -0.0322 -1.8516
10300TIP3   OH252390   2.660   3.204   9.570 -0.0224 -0.1938  0.1642
10300TIP3    H152391   2.673   3.242   9.484 -1.0690 -0.9627 -0.3539
10300TIP3    H252392   2.621   3.274   9.622  1.0008  0.4046  0.1614
10301TIP3   OH252393   2.852   0.787  34.996 -0.4489 -0.3117 -0.4313
10301TIP3    H152394   2.839   0.853  34.927  1.9545  1.1157  0.3207
10301TIP3    H252395   2.841   0.836  35.077  2.0151 -0.5571  0.1529
10302TIP3   OH252396   0.165   0.151   1.178 -0.4075 -0.1104 -1.1360
10302TIP3    H152397   0.214   0.188   1.105 -0.8038 -1.5442 -2.1559
10302TIP3    H252398   0.209   0.187   1.256  1.0165  0.1931 -2.0348
10303TIP3   OH252399   1.176   4.107  34.623  0.3136  0.1686  0.3445
10303TIP3    H152400   1.191   4.161  34.701 -0.2644  0.4644  0.2594
10303TIP3    H252401   1.258   4.112  34.574  0.0946  1.4381  0.0694
10304TIP3   OH252402   3.524   1.452   7.395  0.8924  0.2257  0.0748
10304TIP3    H152403   3.611   1.462   7.357  0.4491  0.6337 -0.8776
10304TIP3    H252404   3.511   1.358   7.402  1.8581  0.1563  1.3346
10305TIP3   OH252405   1.509   0.488  32.202  0.3525 -0.2071  0.1884
10305TIP3    H152406   1.538   0.481  32.111  0.5628  2.2219  0.0149
10305TIP3    H252407   1.448   0.414  32.213 -0.0659 -0.2694 -2.0576
10306TIP3   OH252408   1.960   2.976   7.788  0.3216 -0.1941  1.0658
10306TIP3    H152409   1.877   2.956   7.744  0.6786  2.3438 -0.9999
10306TIP3    H252410   1.935   2.999   7.878 -0.8524 -1.9721  1.2475
10307TIP3   OH252411   2.354   3.721   4.763  0.6884  0.2623  0.4190
10307TIP3    H152412   2.349   3.639   4.714  3.2291  1.5869 -2.4396
10307TIP3    H252413   2.265   3.735   4.796 -0.2786 -2.6340 -0.6317
10308TIP3   OH252414   3.161   2.037  28.445 -0.2075  0.6995  0.0480
10308TIP3    H152415   3.094   2.085  28.494 -0.7156  0.1592 -0.1024
10308TIP3    H252416   3.137   1.945  28.456 -2.1031  0.5954 -3.6178
10309TIP3   OH252417   0.640   3.203   0.232  0.2866 -0.0057 -0.3451
10309TIP3    H152418   0.603   3.291   0.229 -0.0188  0.0097  2.0610
10309TIP3    H252419   0.564   3.145   0.236  0.4907 -0.4049 -1.6942
10310TIP3   OH252420   2.383   0.042  40.234  0.1200  0.5317 -0.0321
10310TIP3    H152421   2.317  -0.002  40.289  2.6063 -0.0515  2.7184
10310TIP3    H252422   2.407   0.120  40.284  1.3189  0.8863 -1.1142
10311TIP3   OH252423   0.306   1.276   7.657  0.1845 -0.5675 -0.3958
10311TIP3    H152424   0.365   1.327   7.602 -0.3707  0.5524  0.0243
10311TIP3    H252425   0.282   1.201   7.602  0.1857  0.1627 -1.4249
10312TIP3   OH252426   1.420   0.293  41.448  0.4448  0.0692  0.3871
10312TIP3    H152427   1.451   0.225  41.509 -1.7492 -0.5715  0.8717
10312TIP3    H252428   1.492   0.356  41.444  1.3561 -0.7674  2.2697
10313TIP3   OH252429   1.451   3.669  32.038  0.1193 -0.0862  0.5531
10313TIP3    H152430   1.452   3.607  32.111 -0.5826 -0.3401  0.3670
10313TIP3    H252431   1.446   3.613  31.960  0.9807  0.1768  0.3005
10314TIP3   OH252432   3.954   1.099  33.282  0.0567 -0.2420 -0.4018
10314TIP3    H152433   3.880   1.115  33.223 -2.5524 -1.1216  2.3736
10314TIP3    H252434   3.945   1.008  33.308  0.8634  0.1908  1.5783
10315TIP3   OH252435   2.455   2.538   4.907  0.4654 -0.3055 -0.3135
10315TIP3    H152436   2.479   2.477   4.837 -1.2818 -0.4650 -0.8312
10315TIP3    H252437   2.450   2.483   4.985 -2.0822 -1.1260 -0.9565
10316TIP3   OH252438   2.274   3.131   1.466 -0.0133 -0.4555  0.1344
10316TIP3    H152439   2.185   3.113   1.496 -0.4427  0.7047 -0.3572
10316TIP3    H252440   2.298   3.055   1.413 -0.4554 -1.0697  0.8124
10317TIP3   OH252441   0.848   1.930   2.776 -0.1139 -0.0148 -0.2783
10317TIP3    H152442   0.869   1.848   2.732 -0.5365 -0.2324 -0.0743
10317TIP3    H252443   0.753   1.928   2.788  0.0061 -0.0224  0.7598
10318TIP3   OH252444   3.929   3.754   3.853 -0.0441  0.2191  0.1479
10318TIP3    H152445   3.991   3.698   3.806  0.9521  0.4521  1.1360
10318TIP3    H252446   3.924   3.833   3.799 -0.3635 -0.2360 -0.5151
10319TIP3   OH252447   0.270   0.664  25.928  0.1300  0.6140 -0.0618
10319TIP3    H152448   0.207   0.602  25.891  1.4950 -0.2256 -1.0792
10319TIP3    H252449   0.287   0.631  26.016  0.5004 -0.2157 -0.4340
10320TIP3   OH252450   3.555   0.251  10.597 -0.2140  0.3671  0.1345
10320TIP3    H152451   3.519   0.334  10.566 -2.1053  0.8586  3.2194
10320TIP3    H252452   3.521   0.186  10.535 -2.4504  1.4498  0.1046
10321TIP3   OH252453   1.580   4.333   6.434  0.4254  0.3850 -0.0770
10321TIP3    H152454   1.642   4.387   6.483  0.8304  0.7211 -0.9512
10321TIP3    H252455   1.630   4.254   6.412 -0.1356 -0.3437  1.1167
10322TIP3   OH252456   1.030   1.771   4.846  0.5964  0.2661 -0.3099
10322TIP3    H152457   0.997   1.840   4.905  0.3425 -0.1444  0.0401
10322TIP3    H252458   0.975   1.779   4.768  0.6833  0.5737 -0.3411
10323TIP3   OH252459   2.401   1.734  40.313  0.6843  0.2906 -0.0552
10323TIP3    H152460   2.378   1.659  40.368  0.4020  0.6265  0.2886
10323TIP3    H252461   2.495   1.724  40.296  1.2976  1.2736  2.2283
10324TIP3   OH252462   0.008   1.862   9.971  0.0055 -0.2681  0.1456
10324TIP3    H152463  -0.044   1.788   9.941  0.0322  0.1845 -1.0627
10324TIP3    H252464   0.025   1.844  10.064  0.0290 -1.7717 -0.1307
10325TIP3   OH252465   2.100   0.772  32.625 -0.0309  0.5015  0.2932
10325TIP3    H152466   2.186   0.807  32.601  0.0790 -0.6622 -1.1324
10325TIP3    H252467   2.119   0.685  32.662 -0.3594  1.4953  3.0637
10326TIP3   OH252468   0.286   1.590  30.724  0.4801  0.6225 -0.4946
10326TIP3    H152469   0.200   1.567  30.760 -0.1682  1.9950 -1.0973
10326TIP3    H252470   0.346   1.530  30.768 -0.7601 -0.3015  0.0239
10327TIP3   OH252471   2.461   3.209  18.955 -0.2034 -0.0785 -0.6754
10327TIP3    H152472   2.405   3.190  19.031  2.6711 -2.2328  1.0894
10327TIP3    H252473   2.500   3.294  18.975 -0.8524  0.2280 -0.6744
10328TIP3   OH252474   1.252   1.706  36.187 -0.6925  0.2596  0.3927
10328TIP3    H152475   1.243   1.629  36.131  1.0255  0.4678 -0.2280
10328TIP3    H252476   1.175   1.704  36.243 -1.7515 -0.7348 -1.0348
10329TIP3   OH252477   1.361   1.848   1.448 -1.1066  0.3962 -0.1752
10329TIP3    H152478   1.351   1.766   1.495  0.8092  0.9668  1.3315
10329TIP3    H252479   1.423   1.829   1.378  0.7260  0.9097  1.2496
10330TIP3   OH252480   1.510   1.528  36.055  0.6952  0.0422  0.0392
10330TIP3    H152481   1.534   1.459  35.992  2.1492  0.1232  0.4734
10330TIP3    H252482   1.509   1.484  36.140  0.2659  0.2718  0.1553
10331TIP3   OH252483   2.475   3.467   0.395  0.1103 -0.2766  0.1420
10331TIP3    H152484   2.531   3.523   0.448  1.1050 -1.8616  0.8158
10331TIP3    H252485   2.422   3.418   0.459 -1.0081  0.1192 -0.4458
10332TIP3   OH252486   2.988   1.904  27.367 -0.2489 -0.3213  0.1696
10332TIP3    H152487   3.051   1.970  27.338  0.8019 -1.2960  0.1259
10332TIP3    H252488   3.037   1.851  27.430 -1.1194 -0.9361  0.3429
10333TIP3   OH252489   1.839   0.010   9.904 -0.1664 -0.0720  0.0126
10333TIP3    H152490   1.893   0.013   9.825 -0.1191  0.2847  0.0578
10333TIP3    H252491   1.894  -0.034   9.969 -0.1373 -0.2006 -0.0971
10334TIP3   OH252492   1.618   2.666  26.958 -0.4298  0.0677  0.0023
10334TIP3    H152493   1.588   2.755  26.977 -1.2953 -0.6943  2.7131
10334TIP3    H252494   1.550   2.628  26.903 -0.3540  0.8752 -0.6645
10335TIP3   OH252495   0.864   0.357  30.263  0.2144  0.4468 -0.0878
10335TIP3    H152496   0.823   0.414  30.329  0.9626 -0.1268  0.8951
10335TIP3    H252497   0.826   0.387  30.180 -1.1381  0.8476  0.6332
10336TIP3   OH252498   1.927   4.053  35.676 -0.1676  0.3313  0.1093
10336TIP3    H152499   1.875   4.125  35.641 -0.3295  0.7653  1.1825
10336TIP3    H252500   2.011   4.060  35.631  0.0678  1.6550  0.6789
10337TIP3   OH252501   1.749   1.232  11.975 -0.1811  0.3282  0.3408
10337TIP3    H152502   1.790   1.202  11.894  0.9178 -0.2377  1.0768
10337TIP3    H252503   1.658   1.250  11.951  0.1453  0.2664 -1.0297
10338TIP3   OH252504   0.571   2.569  35.373  0.0913 -0.5826 -0.0471
10338TIP3    H152505   0.502   2.634  35.358  0.1584 -0.2629  0.9707
10338TIP3    H252506   0.642   2.619  35.412  1.1142 -0.8159 -1.5367
10339TIP3   OH252507   0.921   3.243  14.300 -0.3341 -0.4975 -0.2725
10339TIP3    H152508   0.992   3.223  14.361 -0.6625 -1.5235 -0.2098
10339TIP3    H252509   0.842   3.219  14.348 -0.6933  0.0930 -0.5572
10340TIP3   OH252510   1.380   2.964  32.744  0.5606 -0.2190  0.4642
10340TIP3    H152511   1.467   3.004  32.753  0.9992 -1.1882  0.6757
10340TIP3    H252512   1.349   2.994  32.658  0.5388  1.1790  0.9398
10341TIP3   OH252513   2.440   3.857  27.399 -0.3705 -0.0830 -0.1637
10341TIP3    H152514   2.531   3.826  27.397 -0.2272  0.2701  0.5769
10341TIP3    H252515   2.409   3.834  27.486 -1.2546 -0.8993 -0.6625
10342TIP3   OH252516   3.865   1.107  21.871  0.2435 -0.5867 -0.4440
10342TIP3    H152517   3.798   1.165  21.909 -0.3298 -0.5034 -1.5413
10342TIP3    H252518   3.925   1.089  21.943  0.2015  1.0333  0.0353
10343TIP3   OH252519   0.670   1.905   6.606  0.0976 -0.4676 -0.2705
10343TIP3    H152520   0.576   1.901   6.623  0.2075 -0.7754  0.3236
10343TIP3    H252521   0.684   1.845   6.533 -0.5116  1.4981 -2.0827
10344TIP3   OH252522   0.543   1.525  29.805 -0.2449  0.0580  0.0967
10344TIP3    H152523   0.614   1.511  29.867 -2.2295 -1.2248  2.2090
10344TIP3    H252524   0.491   1.445  29.809 -2.6217  1.4963 -0.2695
10345TIP3   OH252525   0.621   0.905  32.757 -0.0961 -0.8586  0.4445
10345TIP3    H152526   0.583   0.828  32.798 -0.2790 -0.0943  1.7822
10345TIP3    H252527   0.605   0.976  32.820 -1.1184  0.5549 -1.3095
10346TIP3   OH252528   0.097   3.857  33.381 -0.0697 -0.1897 -0.5964
10346TIP3    H152529   0.146   3.868  33.463 -1.1343 -0.8447  0.1538
10346TIP3    H252530   0.162   3.869  33.312  1.1108 -0.8137  0.3712
10347TIP3   OH252531   1.811   4.036  18.329  0.4169  0.1064  0.2752
10347TIP3    H152532   1.780   4.010  18.415  0.0112  0.6501  0.2991
10347TIP3    H252533   1.733   4.034  18.274  0.7467 -0.6251 -0.1770
10348TIP3   OH252534   0.819   4.131   5.867 -0.2400  0.3795  0.5840
10348TIP3    H152535   0.897   4.079   5.887 -1.0150 -0.9997  0.1448
10348TIP3    H252536   0.853   4.211   5.826  0.9009 -1.1889 -1.7776
10349TIP3   OH252537   2.971   4.324  34.470 -0.7298  0.4898 -0.4169
10349TIP3    H152538   3.049   4.327  34.414 -0.1074  1.9946  0.4825
10349TIP3    H252539   2.995   4.375  34.547 -2.2447  0.0605  0.3649
10350TIP3   OH252540   2.418   4.248   0.626  0.6338  0.1378  0.3966
10350TIP3    H152541   2.499   4.252   0.575 -1.1348 -1.1674 -2.8423
10350TIP3    H252542   2.430   4.173   0.685  2.1554  0.6581  0.7859
10351TIP3   OH252543   3.166   2.118   7.558  0.3967 -0.2876 -0.4853
10351TIP3    H152544   3.215   2.171   7.621  1.5694 -2.2010  0.2721
10351TIP3    H252545   3.198   2.148   7.472  2.0636 -0.6643 -0.0345
10352TIP3   OH252546   3.730   0.141  10.767  0.4933 -0.4433 -0.0154
10352TIP3    H152547   3.662   0.180  10.712  1.1363 -0.3450 -0.7554
10352TIP3    H252548   3.810   0.190  10.746  0.7458 -0.3711  1.0481
10353TIP3   OH252549   2.162   2.975   2.365  0.1551  0.4917  0.4333
10353TIP3    H152550   2.186   2.970   2.458 -0.9903  0.6998  0.7563
10353TIP3    H252551   2.154   2.883   2.338  0.6047  0.4290  0.5025
10354TIP3   OH252552   2.537   0.738   4.545  0.2284  0.2738  0.0403
10354TIP3    H152553   2.448   0.717   4.572  0.0638 -0.2215 -0.8432
10354TIP3    H252554   2.564   0.663   4.492  1.2908  0.2771  0.5580
10355TIP3   OH252555   4.100   1.040  12.770 -0.1187  0.1106  1.0862
10355TIP3    H152556   4.103   0.971  12.703  2.9769  1.1697 -0.0540
10355TIP3    H252557   4.095   0.993  12.853 -0.6663 -1.3519  0.2642
10356TIP3   OH252558   2.670   0.488   3.912  0.0779 -0.4057  0.1252
10356TIP3    H152559   2.726   0.565   3.916 -1.5580  0.9028 -0.8520
10356TIP3    H252560   2.597   0.508   3.971 -0.1053 -1.4354  0.2660
10357TIP3   OH252561   4.363   1.262  25.489 -0.1257  0.3192 -0.1772
10357TIP3    H152562   4.332   1.204  25.559 -1.2783  1.2752  0.1327
10357TIP3    H252563   4.411   1.204  25.430 -1.5547 -1.0304 -0.0758
10358TIP3   OH252564   3.047   1.857  39.973  0.2828 -0.3045  0.4073
10358TIP3    H152565   3.011   1.867  39.884  0.0183 -0.2182  0.5225
10358TIP3    H252566   2.974   1.879  40.031  0.4256 -0.4627  0.6481
10359TIP3   OH252567   1.352   4.039   6.242 -0.0840  0.0250 -0.5496
10359TIP3    H152568   1.382   4.011   6.328  1.0653  0.1936 -0.8750
10359TIP3    H252569   1.395   3.979   6.181  2.4905  2.3993 -1.2744
10360TIP3   OH252570   1.786   0.825  40.959 -0.2520 -0.3517  0.0725
10360TIP3    H152571   1.806   0.813  40.867 -2.7010 -0.6908 -0.4916
10360TIP3    H252572   1.855   0.882  40.992  0.1669  0.5342 -2.1916
10361TIP3   OH252573   3.719   0.666  38.201  0.5927 -0.4480 -0.1547
10361TIP3    H152574   3.760   0.692  38.118 -0.4007  2.5841  0.1927
10361TIP3    H252575   3.780   0.697  38.268  0.0220 -0.2608  0.2805
10362TIP3   OH252576   3.997   4.355   4.012 -0.2647 -0.1710 -0.5742
10362TIP3    H152577   3.944   4.275   4.013 -2.2455  1.0292  1.8645
10362TIP3    H252578   4.078   4.331   4.056 -2.2793 -0.1671  3.6454
10363TIP3   OH252579   2.245   0.441  33.684  0.3590 -0.1640 -0.2872
10363TIP3    H152580   2.192   0.397  33.617 -0.8173 -0.0852  0.5497
10363TIP3    H252581   2.191   0.436  33.763  0.5687  1.9973  0.0436
10364TIP3   OH252582   0.063   2.711   1.390 -0.4948  0.1449 -0.0641
10364TIP3    H152583   0.104   2.684   1.473 -1.0278  0.4530  0.3071
10364TIP3    H252584   0.134   2.749   1.339  0.3777 -2.1770 -0.7292
10365TIP3   OH252585   2.997   3.449  31.778 -0.1947  0.2203 -0.3195
10365TIP3    H152586   2.970   3.537  31.754  1.2344  0.6695 -0.3488
10365TIP3    H252587   3.060   3.461  31.849 -0.4224 -0.8120  0.0845
10366TIP3   OH252588   0.509   2.358   2.240 -0.3007 -0.0857  0.2831
10366TIP3    H152589   0.487   2.271   2.208 -0.8503 -0.0782  0.6301
10366TIP3    H252590   0.511   2.413   2.162 -1.2102 -0.1543  0.2029
10367TIP3   OH252591   3.605   2.249  30.382  0.0597  0.2281 -0.2111
10367TIP3    H152592   3.597   2.333  30.426  0.6486  1.4612 -2.3208
10367TIP3    H252593   3.515   2.224  30.362 -0.2068 -0.2653  1.4072
10368TIP3   OH252594   2.231   0.695   5.000 -0.0952  0.4220  0.4562
10368TIP3    H152595   2.212   0.719   4.910 -0.8982 -0.5532  0.3382
10368TIP3    H252596   2.160   0.634   5.024  0.9854 -0.5995  1.1968
10369TIP3   OH252597   4.376   3.824  28.240 -0.4402 -0.6327 -0.0983
10369TIP3    H152598   4.378   3.814  28.144 -0.6907 -0.4011 -0.1279
10369TIP3    H252599   4.439   3.759  28.272 -0.5283 -0.8748 -0.4092
10370TIP3   OH252600   1.215   3.122  38.854 -0.0864 -0.7517  0.4474
10370TIP3    H152601   1.119   3.118  38.851 -0.0910 -0.5840 -2.2674
10370TIP3    H252602   1.243   3.034  38.828  0.6031 -1.3612  2.9241
10371TIP3   OH252603   4.163   3.739  39.629  0.2387  0.1411  0.2599
10371TIP3    H152604   4.257   3.753  39.646  0.3878  1.1243 -1.1720
10371TIP3    H252605   4.122   3.821  39.656  0.2770  1.0920 -2.2866
10372TIP3   OH252606   4.305   2.875  37.705 -0.0922  0.2459  0.3885
10372TIP3    H152607   4.265   2.815  37.768 -1.2924  2.8882  2.3276
10372TIP3    H252608   4.232   2.904  37.649  0.0937  1.1835  0.6111
10373TIP3   OH252609   1.437   2.951   3.530  0.4035  0.4277  1.2224
10373TIP3    H152610   1.345   2.946   3.506  0.6353  0.2346  0.3230
10373TIP3    H252611   1.475   2.869   3.496  0.8230  0.3088  1.9543
10374TIP3   OH252612   2.688   2.681  28.576  0.0426 -0.4124 -0.4294
10374TIP3    H152613   2.630   2.617  28.618 -1.1622  1.3145  0.6454
10374TIP3    H252614   2.707   2.642  28.491  0.2740 -2.7134  0.5968
10375TIP3   OH252615   2.545   0.909  28.796  0.0991 -0.2196  0.4879
10375TIP3    H152616   2.624   0.855  28.795  0.1228 -0.1921  0.7119
10375TIP3    H252617   2.533   0.931  28.888  0.3708  0.5670  0.3382
10376TIP3   OH252618   0.642   2.903  27.214  0.0358  0.0501  0.9263
10376TIP3    H152619   0.552   2.931  27.202  0.4504  0.9121 -0.4566
10376TIP3    H252620   0.695   2.981  27.198  1.1325 -0.9951 -1.0955
10377TIP3   OH252621   0.762   4.011   1.057  0.7964 -0.0457  0.5835
10377TIP3    H152622   0.709   3.961   0.995  0.8697  0.6687 -0.0669
10377TIP3    H252623   0.850   4.010   1.020  0.7997  0.5552  0.5601
10378TIP3   OH252624   2.093   4.182   8.150  0.2587  0.6427 -0.2253
10378TIP3    H152625   2.156   4.255   8.149 -0.3488  1.2101  0.8359
10378TIP3    H252626   2.147   4.104   8.165  0.9489  0.8212 -1.6284
10379TIP3   OH252627   2.482   3.513  11.802  0.3831 -0.6227 -0.2838
10379TIP3    H152628   2.485   3.600  11.762 -1.7078 -1.0117 -1.3767
10379TIP3    H252629   2.448   3.528  11.890  1.3935 -0.2134  0.0602
10380TIP3   OH252630   2.011   0.575  40.516 -0.4304 -0.5430  0.3620
10380TIP3    H152631   1.981   0.514  40.583  0.1137 -0.3704  0.7699
10380TIP3    H252632   1.932   0.596  40.466 -0.8951 -0.4503  1.1197
10381TIP3   OH252633   1.401   0.696  41.239 -0.0721  0.1279 -0.3992
10381TIP3    H152634   1.384   0.648  41.320  1.8457  0.6278  0.3726
10381TIP3    H252635   1.485   0.661  41.208  0.1545  1.2716 -1.1415
10382TIP3   OH252636   0.417   2.889  36.232  0.1314  0.1931  0.3885
10382TIP3    H152637   0.506   2.873  36.264  2.0761  4.1969 -2.1596
10382TIP3    H252638   0.412   2.839  36.150  1.3790  2.2761 -1.0615
10383TIP3   OH252639   3.083   0.179   0.030  0.4861 -0.4501 -0.4150
10383TIP3    H152640   3.048   0.092   0.010 -0.3666 -0.0347 -0.7193
10383TIP3    H252641   3.007   0.236   0.033  1.1503  0.5106 -1.3209
10384TIP3   OH252642   3.333   0.073  11.446 -0.7636 -0.2603  1.0497
10384TIP3    H152643   3.378   0.104  11.525  1.1355  0.2813 -0.1593
10384TIP3    H252644   3.381  -0.007  11.422 -0.8154 -0.0037  0.0503
10385TIP3   OH252645   0.624   1.808   0.951  0.2343 -0.3059  0.6056
10385TIP3    H152646   0.666   1.722   0.961  1.9918  0.3333 -0.8235
10385TIP3    H252647   0.682   1.868   0.998 -0.3627  0.2748  0.6133
10386TIP3   OH252648   2.929   2.170   0.352  0.1000  0.2373  0.0537
10386TIP3    H152649   2.977   2.149   0.433 -0.0903  0.0268  0.1134
10386TIP3    H252650   2.959   2.104   0.289 -0.2942 -0.0506  0.1624
10387TIP3   OH252651   1.209   4.008  10.939  0.6610 -0.1549 -0.2322
10387TIP3    H152652   1.124   3.966  10.922 -0.2918  1.1382  1.0876
10387TIP3    H252653   1.231   4.050  10.855 -0.0267 -0.4538 -0.5734
10388TIP3   OH252654   0.793   0.892  35.914 -0.7195  0.0292  0.1929
10388TIP3    H152655   0.786   0.877  36.009  0.4313 -2.7157 -0.0618
10388TIP3    H252656   0.888   0.896  35.898 -0.9045  2.2811 -0.6738
10389TIP3   OH252657   3.661   0.246   8.249  0.6542 -0.5546  0.9839
10389TIP3    H152658   3.614   0.258   8.167  1.1429 -1.7397  0.5132
10389TIP3    H252659   3.729   0.183   8.229  1.7178  0.2386  1.9479
10390TIP3   OH252660   4.261   3.506  37.076 -0.7731 -0.3025  0.2582
10390TIP3    H152661   4.346   3.525  37.036 -0.7772  1.5598  1.0031
10390TIP3    H252662   4.204   3.486  37.002 -0.2282  0.7889 -0.4932
10391TIP3   OH252663   0.155   3.595  28.276 -0.2370  0.3548 -0.6993
10391TIP3    H152664   0.156   3.513  28.327 -0.4755  1.1233  0.5936
10391TIP3    H252665   0.242   3.633  28.290 -0.7999  1.2983  0.3994
10392TIP3   OH252666   3.506   1.846  34.059  0.6476  0.5871  0.0626
10392TIP3    H152667   3.414   1.822  34.071  0.9944 -0.5890  0.4903
10392TIP3    H252668   3.543   1.774  34.008  1.5436  0.5707  0.7085
10393TIP3   OH252669   0.485   1.238  33.536  0.4246  0.1687  0.1005
10393TIP3    H152670   0.468   1.311  33.476 -0.7800 -0.4112 -0.3080
10393TIP3    H252671   0.434   1.259  33.614 -0.0781 -0.3001 -0.0915
10394TIP3   OH252672   4.244   0.787  11.746  0.1131  0.3535 -0.3641
10394TIP3    H152673   4.218   0.875  11.774  0.9324  0.5630 -0.2339
10394TIP3    H252674   4.340   0.790  11.743  0.1470 -0.5220 -0.4165
10395TIP3   OH252675   2.107   2.143  39.869 -0.1550  0.2059  0.3373
10395TIP3    H152676   2.168   2.172  39.801 -1.1227  2.3964  0.3000
10395TIP3    H252677   2.022   2.138  39.825 -0.4474 -0.2567  0.9432
10396TIP3   OH252678   0.294   2.498  27.154 -0.6120  0.3624  0.5722
10396TIP3    H152679   0.310   2.559  27.226  0.9702  0.2026  0.3728
10396TIP3    H252680   0.294   2.411  27.194  0.3855  0.2637  0.3905
10397TIP3   OH252681   0.653   3.763   7.152 -0.5943  0.0353  0.2915
10397TIP3    H152682   0.655   3.721   7.237 -1.9578 -2.8560 -0.9754
10397TIP3    H252683   0.730   3.729   7.106 -1.7941 -1.3036 -0.8038
10398TIP3   OH252684   0.802   3.490  39.451 -0.2997 -0.3062  0.5712
10398TIP3    H152685   0.849   3.509  39.370 -1.0499 -0.0229  0.1907
10398TIP3    H252686   0.817   3.567  39.506 -0.1770 -0.2920  0.5186
10399TIP3   OH252687   3.500   1.204  28.411 -0.2292  0.0257 -0.2321
10399TIP3    H152688   3.486   1.276  28.473 -2.8588  0.0091 -0.7090
10399TIP3    H252689   3.418   1.155  28.412  1.2321 -2.5903 -0.4814
10400TIP3   OH252690   2.707   4.018  41.296  0.1418 -0.4048 -0.0547
10400TIP3    H152691   2.766   4.093  41.289 -0.3033 -0.1451 -1.1719
10400TIP3    H252692   2.642   4.045  41.361 -0.2214  0.3455 -0.7058
10401TIP3   OH252693   2.766   2.993  30.810  0.1768 -0.0023  0.4973
10401TIP3    H152694   2.736   2.992  30.719 -1.4593  0.4729  0.9977
10401TIP3    H252695   2.851   3.036  30.807  0.5805 -0.8455 -0.9163
10402TIP3   OH252696   0.452   1.875  36.202  0.1475  0.4224 -0.0101
10402TIP3    H152697   0.465   1.872  36.297 -0.4502 -3.0213  0.0817
10402TIP3    H252698   0.357   1.887  36.192 -0.1316 -1.4995 -0.0483
10403TIP3   OH252699   0.853   2.953  39.211 -0.6775 -0.5180  0.2413
10403TIP3    H152700   0.866   2.883  39.275  0.0480 -0.3546  0.2743
10403TIP3    H252701   0.810   3.023  39.260  0.6295 -0.0665  0.7595
10404TIP3   OH252702   0.652   1.856  11.042  0.2935  0.0383 -0.0844
10404TIP3    H152703   0.576   1.799  11.054  0.8839 -0.7002  0.2828
10404TIP3    H252704   0.705   1.811  10.976  0.3283  0.6369 -0.4683
10405TIP3   OH252705   0.069   3.081   1.233  0.0053  0.5984  0.1432
10405TIP3    H152706   0.058   3.010   1.170 -0.4610 -0.3160  1.2155
10405TIP3    H252707  -0.008   3.136   1.220 -0.9541 -0.4860  0.9942
10406TIP3   OH252708   1.228   2.617  30.686 -0.7676  0.2771 -0.0237
10406TIP3    H152709   1.298   2.563  30.649  0.2940  1.2626  0.4817
10406TIP3    H252710   1.215   2.688  30.623 -0.3147  0.8753  0.5413
10407TIP3   OH252711   0.868   0.240  14.068 -0.1396 -0.5915 -0.1099
10407TIP3    H152712   0.887   0.331  14.047 -0.5225 -1.1291 -3.1880
10407TIP3    H252713   0.845   0.241  14.161  0.4702  2.3157  0.0899
10408TIP3   OH252714   1.528   0.663   5.645  0.3519 -0.6033 -0.2570
10408TIP3    H152715   1.569   0.680   5.560  2.1405 -0.5905  0.5610
10408TIP3    H252716   1.565   0.580   5.674 -1.0147 -1.1278  0.0792
10409TIP3   OH252717   3.511   0.871  38.751  0.4877 -0.1301 -0.4112
10409TIP3    H152718   3.524   0.805  38.683 -0.5766 -0.1614 -0.5954
10409TIP3    H252719   3.446   0.833  38.810 -0.2463  0.8003 -0.5929
10410TIP3   OH252720   3.933   2.108  10.102 -0.2404  0.1381 -0.7479
10410TIP3    H152721   4.023   2.095  10.072 -0.4569  0.7266 -1.7041
10410TIP3    H252722   3.937   2.185  10.159 -0.2326  0.5360 -1.2800
10411TIP3   OH252723   1.948   3.647  29.270  0.1633 -0.0508 -0.1070
10411TIP3    H152724   2.007   3.703  29.320  0.3244 -1.0432  0.8475
10411TIP3    H252725   1.870   3.638  29.325 -1.1103  1.5764 -1.5219
10412TIP3   OH252726   2.105   0.852   3.541  0.0433 -0.5363  0.1455
10412TIP3    H152727   2.023   0.901   3.550 -0.5393 -1.5571  0.4509
10412TIP3    H252728   2.111   0.831   3.448 -0.1464 -0.6491  0.1592
10413TIP3   OH252729   2.417   2.722   6.367  0.0122 -0.3120 -0.0737
10413TIP3    H152730   2.455   2.809   6.355 -0.9515 -0.0349 -1.3590
10413TIP3    H252731   2.372   2.703   6.284 -1.8206 -1.0099  1.0009
10414TIP3   OH252732   1.759   2.570   7.653  0.0190 -0.6946 -0.3173
10414TIP3    H152733   1.718   2.571   7.567  0.4586 -1.8825 -0.5634
10414TIP3    H252734   1.800   2.484   7.659  2.0033  0.2251  0.1479
10415TIP3   OH252735   1.453   3.658  39.798  0.2580  0.3272  0.0563
10415TIP3    H152736   1.454   3.723  39.728 -2.4033  0.2676 -0.1574
10415TIP3    H252737   1.487   3.578  39.758 -1.4925  0.2175 -1.3340
10416TIP3   OH252738   3.385   4.244  39.425 -0.7424 -0.4775 -0.0151
10416TIP3    H152739   3.336   4.221  39.347 -0.7316  1.4376 -0.6467
10416TIP3    H252740   3.323   4.235  39.497 -1.3265 -0.3306 -0.5029
10417TIP3   OH252741   0.780   1.133   7.791  0.1334  0.0046 -0.2003
10417TIP3    H152742   0.687   1.148   7.778  0.2286 -0.0681 -0.9889
10417TIP3    H252743   0.808   1.205   7.847 -1.1542 -2.0381  3.4066
10418TIP3   OH252744   3.238   3.249  40.302 -0.1917 -0.6247 -0.8786
10418TIP3    H152745   3.182   3.247  40.379  1.5959 -2.2914  0.5107
10418TIP3    H252746   3.181   3.278  40.230 -1.7152  1.8732  1.1734
10419TIP3   OH252747   1.835   2.899   1.097 -0.3948  0.1727 -0.0216
10419TIP3    H152748   1.852   2.987   1.063  0.5203 -0.2837 -0.8032
10419TIP3    H252749   1.898   2.843   1.051 -1.4554 -1.0096 -0.0833
10420TIP3   OH252750   3.270   4.325   0.790  0.7667 -0.7656 -0.0052
10420TIP3    H152751   3.201   4.345   0.727  0.3977  0.2579  0.7062
10420TIP3    H252752   3.347   4.308   0.735  0.4047 -0.0962 -0.7422
10421TIP3   OH252753   1.355   0.427  11.888 -0.4273 -0.1317 -0.3929
10421TIP3    H152754   1.347   0.469  11.973 -1.4877 -0.1224 -0.4837
10421TIP3    H252755   1.309   0.344  11.898  2.7219 -1.9863  0.1902
10422TIP3   OH252756   2.797   3.436  12.670  0.3875 -0.6351  0.3206
10422TIP3    H152757   2.834   3.401  12.589 -1.6220 -1.1778 -0.4201
10422TIP3    H252758   2.786   3.360  12.726 -0.4004 -0.6168  0.1954
10423TIP3   OH252759   2.987   1.267  12.506 -1.1532  0.0001 -0.0857
10423TIP3    H152760   3.057   1.285  12.569 -0.4400  1.5332 -1.2466
10423TIP3    H252761   2.949   1.184  12.535 -0.5959  0.4557  2.1014
10424TIP3   OH252762   1.186   0.605  34.434 -0.1271  0.1983  0.0667
10424TIP3    H152763   1.179   0.636  34.524  2.6537 -0.5139  0.6141
10424TIP3    H252764   1.158   0.513  34.438  1.1946 -0.2077  0.5137
10425TIP3   OH252765   3.227   0.945  11.083  0.0246  0.1601 -0.2664
10425TIP3    H152766   3.280   0.881  11.130 -0.8253 -1.3092 -1.2499
10425TIP3    H252767   3.159   0.894  11.040 -3.1828  2.0409  2.0546
10426TIP3   OH252768   3.735   0.186   9.022  0.3596 -0.0275  0.5439
10426TIP3    H152769   3.730   0.282   9.025  0.9054  0.0038  0.5763
10426TIP3    H252770   3.684   0.161   8.945  0.0362  0.2734  0.6570
10427TIP3   OH252771   1.397   2.718  30.319 -0.4104  0.2853  0.1380
10427TIP3    H152772   1.394   2.694  30.226 -3.9681 -1.6739  0.5824
10427TIP3    H252773   1.453   2.796  30.322  0.5960 -0.1150 -3.4690
10428TIP3   OH252774   0.419   2.321  34.782  0.3063 -0.0590  0.9583
10428TIP3    H152775   0.499   2.269  34.776  0.0792 -0.7510  3.2233
10428TIP3    H252776   0.443   2.397  34.835 -0.6121 -0.5038  2.0564
10429TIP3   OH252777   3.881   2.457  21.568  0.2551 -0.0943  0.3632
10429TIP3    H152778   3.867   2.472  21.661 -2.7386 -0.3621  0.0616
10429TIP3    H252779   3.975   2.438  21.560  0.8917  1.3717  3.0627
10430TIP3   OH252780   4.366   2.857  27.387  0.2746 -0.3358  0.0112
10430TIP3    H152781   4.289   2.820  27.430  1.1107 -2.2985 -0.0396
10430TIP3    H252782   4.439   2.805  27.421  1.4466  0.7980 -0.6943
10431TIP3   OH252783   2.071   2.571  34.636 -0.3120 -0.3844  0.2617
10431TIP3    H152784   2.113   2.629  34.572 -0.1024 -0.0049  0.7406
10431TIP3    H252785   2.002   2.625  34.675  0.5536 -0.1106  1.4561
10432TIP3   OH252786   0.199   3.342  28.359  0.0644 -0.3750 -0.7405
10432TIP3    H152787   0.238   3.307  28.439  1.9880 -0.4575 -1.6541
10432TIP3    H252788   0.118   3.292  28.347 -0.6102  0.0660  1.4375
10433TIP3   OH252789   1.613   0.856   3.446  0.0586  0.0353 -0.1121
10433TIP3    H152790   1.622   0.899   3.532  1.2145  0.8792 -0.6199
10433TIP3    H252791   1.549   0.910   3.400  0.3562  0.3245 -0.1983
10434TIP3   OH252792   0.605   1.618  26.779 -0.5223  0.2912 -0.8226
10434TIP3    H152793   0.581   1.659  26.696 -0.7046  1.4871 -0.1923
10434TIP3    H252794   0.693   1.652  26.797 -0.6572  0.3763 -0.3160
10435TIP3   OH252795   1.253   2.005   4.301 -0.1325 -0.0044 -0.5306
10435TIP3    H152796   1.303   2.077   4.339  0.7749 -0.1823 -1.3502
10435TIP3    H252797   1.211   2.043   4.224  1.6687 -0.7047 -1.9198
10436TIP3   OH252798   0.987   3.152  27.854  0.1033  0.2510 -0.2848
10436TIP3    H152799   1.042   3.231  27.851  0.4789 -0.0225 -0.7576
10436TIP3    H252800   1.044   3.086  27.894  0.4370 -0.2728 -1.5780
10437TIP3   OH252801   0.401   2.896   9.606 -0.2130  0.5457  0.1492
10437TIP3    H152802   0.398   2.948   9.686 -2.0079 -1.1446  1.2638
10437TIP3    H252803   0.458   2.822   9.627 -1.1145 -0.1870  0.0738
10438TIP3   OH252804   2.977   3.605  30.551  0.0802 -0.0657  0.1173
10438TIP3    H152805   2.957   3.692  30.584 -1.6806  0.5519 -2.3458
10438TIP3    H252806   2.909   3.549  30.589  0.7933 -0.2746  1.1320
10439TIP3   OH252807   0.911   1.170  36.700 -0.4228 -0.4253 -0.1363
10439TIP3    H152808   0.994   1.180  36.746 -0.3718 -2.3447  0.2860
10439TIP3    H252809   0.925   1.213  36.616  1.0217 -0.7704 -0.0949
10440TIP3   OH252810   3.542   0.878  26.458 -0.9537  0.4450 -0.1635
10440TIP3    H152811   3.535   0.827  26.378 -0.3303 -0.2138  0.1851
10440TIP3    H252812   3.458   0.867  26.501 -0.5530 -1.0391  0.3230
10441TIP3   OH252813   4.391   3.485   1.345 -0.1706  0.2243  0.3685
10441TIP3    H152814   4.339   3.536   1.283 -2.0885 -2.0337 -0.0488
10441TIP3    H252815   4.380   3.529   1.429 -1.3387  0.7577 -0.0509
10442TIP3   OH252816   1.250   2.454   8.646 -0.2717  0.2022 -0.7583
10442TIP3    H152817   1.164   2.416   8.629 -1.3311  2.2372 -0.2389
10442TIP3    H252818   1.249   2.477   8.739  1.2612 -0.6913 -0.4822
10443TIP3   OH252819   0.540   1.312  26.919  0.2686 -0.4504 -0.4128
10443TIP3    H152820   0.616   1.255  26.910 -0.0576 -0.7970 -0.9639
10443TIP3    H252821   0.554   1.381  26.853  0.6591  0.1189  0.2461
10444TIP3   OH252822   2.586   0.943  11.122  0.0339  0.0548  0.1588
10444TIP3    H152823   2.549   0.855  11.123 -0.7987  0.3302 -1.5605
10444TIP3    H252824   2.510   1.001  11.132  0.4512  0.5896  0.2565
10445TIP3   OH252825   1.895   4.213  28.315  0.1123  0.1697 -0.5724
10445TIP3    H152826   1.868   4.211  28.224 -0.9662  0.2564 -0.2601
10445TIP3    H252827   1.825   4.260  28.361  0.7416  0.3220  0.2668
10446TIP3   OH252828   1.563   1.176  40.137 -0.3456  0.3839  0.0664
10446TIP3    H152829   1.516   1.257  40.158 -0.9117  0.7460 -2.3513
10446TIP3    H252830   1.515   1.139  40.063  0.1632 -1.9664  0.8341
10447TIP3   OH252831   1.629   0.656  30.771 -0.0985 -0.0810 -0.2186
10447TIP3    H152832   1.621   0.687  30.680 -1.0171  2.6792  0.7040
10447TIP3    H252833   1.687   0.719  30.813 -0.9341 -0.4026  1.4870
10448TIP3   OH252834   1.471   0.460  31.706  0.1876  0.1385 -0.1299
10448TIP3    H152835   1.423   0.380  31.686 -0.7615  0.4698  0.7938
10448TIP3    H252836   1.405   0.523  31.733  0.9987  1.0206 -0.1239
10449TIP3   OH252837   1.539   1.456  27.345 -0.3274 -0.2388  0.7007
10449TIP3    H152838   1.508   1.542  27.373  0.1245 -0.1496  0.9407
10449TIP3    H252839   1.484   1.434  27.270  0.1697  0.6689  0.0492
10450TIP3   OH252840   4.164   0.054   4.803 -0.0521  0.4387  0.0225
10450TIP3    H152841   4.148  -0.016   4.740 -1.3391  2.5162 -2.1802
10450TIP3    H252842   4.138   0.018   4.887 -0.6686 -1.6851 -1.0144
10451TIP3   OH252843   4.338   0.308   6.059  0.2444 -0.2834  0.4514
10451TIP3    H152844   4.346   0.262   6.143  0.5937 -0.9965  0.0390
10451TIP3    H252845   4.290   0.388   6.080  1.3734  0.1324  1.5460
10452TIP3   OH252846   3.713   2.217   6.531  0.0933 -0.1522  0.3686
10452TIP3    H152847   3.798   2.204   6.572 -0.0334  0.0866  0.7140
10452TIP3    H252848   3.721   2.302   6.487  0.4431 -0.7001 -0.6613
10453TIP3   OH252849   0.696   0.008   4.016 -0.6378 -0.3430 -0.1670
10453TIP3    H152850   0.677   0.054   4.098 -0.4820  1.8117 -1.2705
10453TIP3    H252851   0.790  -0.007   4.017 -0.6392 -0.3384  0.0412
10454TIP3   OH252852   4.252   2.642   8.810 -0.2755 -0.7935 -0.4326
10454TIP3    H152853   4.302   2.576   8.763  0.4804  0.1038 -0.9179
10454TIP3    H252854   4.292   2.644   8.897  0.8642  0.2400 -0.9571
10455TIP3   OH252855   1.908   1.320  10.116 -0.2691  0.2401  0.0659
10455TIP3    H152856   1.991   1.272  10.121  0.2165  0.9505 -0.9194
10455TIP3    H252857   1.933   1.411  10.134 -1.3171  0.0688  2.9126
10456TIP3   OH252858   0.967   2.387  30.993 -0.3618 -1.1302  0.1037
10456TIP3    H152859   1.038   2.436  31.034 -1.9812  0.1683  1.5024
10456TIP3    H252860   0.908   2.454  30.960 -1.9255 -2.1320  0.7704
10457TIP3   OH252861   3.707   4.097  35.598  0.0423  0.1299 -0.0514
10457TIP3    H152862   3.665   4.011  35.592  0.9868 -0.4590  1.4246
10457TIP3    H252863   3.700   4.121  35.690 -0.5234  1.8302 -0.4973
10458TIP3   OH252864   1.838   2.973  41.200 -0.0431  0.1810 -0.3633
10458TIP3    H152865   1.833   2.970  41.296 -1.3394 -1.8562 -0.4316
10458TIP3    H252866   1.828   3.066  41.179  2.0105  0.9079  1.5011
10459TIP3   OH252867   1.781   1.937   4.764 -0.0872  0.2504  0.1391
10459TIP3    H152868   1.829   1.892   4.833  0.2717 -0.5238 -0.5973
10459TIP3    H252869   1.696   1.957   4.803 -0.2200 -0.9954  0.5344
10460TIP3   OH252870   1.276   3.644  36.089 -0.6710 -0.3735  0.0719
10460TIP3    H152871   1.189   3.653  36.127 -1.5061  0.6208 -1.8898
10460TIP3    H252872   1.323   3.723  36.116 -0.8107 -0.3044  0.1112
10461TIP3   OH252873   1.163   1.530  18.851  0.5901 -0.1543 -0.3349
10461TIP3    H152874   1.111   1.455  18.820  0.2311  0.3213 -0.9162
10461TIP3    H252875   1.219   1.494  18.919 -1.0391 -0.5479  0.8499
10462TIP3   OH252876   3.832   1.187   5.682  0.0809 -0.0113 -0.1980
10462TIP3    H152877   3.895   1.134   5.632  0.2724 -1.2263  1.2463
10462TIP3    H252878   3.751   1.135   5.681 -0.9789  1.5672 -2.0897
10463TIP3   OH252879   0.840   4.092   9.595 -0.0215 -0.0260  0.4767
10463TIP3    H152880   0.842   4.186   9.577  1.6254  0.1095  1.1443
10463TIP3    H252881   0.756   4.078   9.638 -0.7685  0.9248 -0.6031
10464TIP3   OH252882   4.130   2.217   3.491 -0.0807  0.0639  0.4567
10464TIP3    H152883   4.211   2.260   3.516 -0.1974 -1.0234  2.9318
10464TIP3    H252884   4.158   2.138   3.445  0.1600  1.0009 -1.1028
10465TIP3   OH252885   3.436   0.471  38.759  0.7275  0.1721 -0.5980
10465TIP3    H152886   3.354   0.492  38.804  0.4117 -0.6184 -0.7874
10465TIP3    H252887   3.409   0.424  38.681  1.3757 -0.3436 -0.5208
10466TIP3   OH252888   0.387   1.397   5.401 -0.5868  0.6288 -0.5907
10466TIP3    H152889   0.423   1.353   5.478 -1.5250  1.0230  0.0908
10466TIP3    H252890   0.339   1.472   5.437 -2.6505 -0.2512 -1.3920
10467TIP3   OH252891   3.551   0.504  11.282 -0.3703 -0.2570 -0.2109
10467TIP3    H152892   3.559   0.527  11.189 -0.4782 -1.2402 -0.4694
10467TIP3    H252893   3.464   0.463  11.289 -0.9332  1.0041  0.5854
10468TIP3   OH252894   2.539   2.545   5.376 -0.4349  0.0922  0.2272
10468TIP3    H152895   2.534   2.620   5.436 -0.2103  0.4158 -0.1505
10468TIP3    H252896   2.499   2.577   5.295 -2.5358 -0.9492  0.7740
10469TIP3   OH252897   4.116   0.668  28.113 -0.2759 -0.2385 -0.2456
10469TIP3    H152898   4.062   0.607  28.164  0.0843  0.7247  1.3529
10469TIP3    H252899   4.186   0.613  28.077 -0.5738 -0.9663  0.2547
10470TIP3   OH252900   0.971   3.445  34.113  0.5616 -0.4510  0.0907
10470TIP3    H152901   0.977   3.528  34.162 -0.1768 -0.3730  0.0567
10470TIP3    H252902   1.028   3.459  34.037 -0.6936  0.5894 -0.6936
10471TIP3   OH252903   1.528   4.174  39.107  0.0264 -0.1912  0.4436
10471TIP3    H152904   1.506   4.124  39.028 -0.5282  0.1867  0.3562
10471TIP3    H252905   1.548   4.262  39.076 -1.3740  0.2911  0.8273
10472TIP3   OH252906   3.531   2.652   8.433  0.3259  0.2574  0.3245
10472TIP3    H152907   3.567   2.563   8.431 -2.1030 -0.7875 -0.4132
10472TIP3    H252908   3.496   2.662   8.522  2.2542  1.2568  1.0295
10473TIP3   OH252909   2.662   1.149   2.615 -0.2871  0.3577  0.1054
10473TIP3    H152910   2.614   1.216   2.664 -0.5505  0.8321 -0.7717
10473TIP3    H252911   2.715   1.199   2.552 -1.0185 -0.2511 -1.0396
10474TIP3   OH252912   1.491   2.827  14.191  0.4290  0.0403  0.6499
10474TIP3    H152913   1.551   2.833  14.116 -1.1648 -0.6512 -0.7338
10474TIP3    H252914   1.511   2.742  14.230 -1.5761 -1.6207 -1.6299
10475TIP3   OH252915   0.906   1.499   9.386  0.1228  0.5289 -0.1705
10475TIP3    H152916   0.854   1.477   9.463  0.3336  3.1823  0.8411
10475TIP3    H252917   0.845   1.545   9.328 -0.1390 -1.7781 -1.8755
10476TIP3   OH252918   0.628   2.091   7.365  0.4122  0.5148 -0.4461
10476TIP3    H152919   0.598   2.148   7.436 -0.1618 -0.8619  0.4570
10476TIP3    H252920   0.547   2.064   7.321  0.5613 -0.6327 -0.0370
10477TIP3   OH252921   3.171   0.052  31.858 -0.9021  0.6107  0.0715
10477TIP3    H152922   3.150   0.011  31.942  1.7299  0.3166  0.6810
10477TIP3    H252923   3.262   0.080  31.868 -0.4228  0.3019 -2.7908
10478TIP3   OH252924   0.342   3.021   9.007  0.3471 -0.0300 -0.1176
10478TIP3    H152925   0.392   3.101   8.992 -2.3868  1.5658 -1.6760
10478TIP3    H252926   0.251   3.051   9.013 -0.6641 -2.9198  0.5508
10479TIP3   OH252927   1.006   0.059   7.757 -0.2842  0.2586  0.6200
10479TIP3    H152928   1.093   0.064   7.719 -0.7920  0.9954 -0.5295
10479TIP3    H252929   1.012   0.109   7.838  0.7115 -0.9489  1.3223
10480TIP3   OH252930   2.295   4.289  36.429  0.2067  0.5477 -0.4500
10480TIP3    H152931   2.210   4.329  36.413 -0.4080 -1.3017 -2.3374
10480TIP3    H252932   2.359   4.357  36.409 -0.8113  1.0876 -1.9785
10481TIP3   OH252933   3.045   1.990   9.921 -0.5226 -0.4249 -0.6072
10481TIP3    H152934   3.082   2.054   9.981  0.0827 -2.8401  1.7778
10481TIP3    H252935   3.108   1.984   9.849  0.0417  0.7055 -0.2183
10482TIP3   OH252936   0.888   3.268  41.526  0.5125 -0.2507 -0.2718
10482TIP3    H152937   0.872   3.178  41.556  1.4136 -0.8701 -1.5191
10482TIP3    H252938   0.862   3.267  41.434 -0.5864  1.1165  0.0056
10483TIP3   OH252939   0.764   0.555   7.600  0.3012 -0.1842 -0.2867
10483TIP3    H152940   0.760   0.636   7.651  0.2092 -0.2500 -0.1894
10483TIP3    H252941   0.752   0.485   7.665 -2.3005 -0.2154 -0.7109
10484TIP3   OH252942   3.611   4.200  10.866  0.1687 -0.3720  0.5943
10484TIP3    H152943   3.582   4.172  10.953 -2.4660  1.4026  0.4314
10484TIP3    H252944   3.558   4.148  10.806 -2.3491  2.2777  0.2627
10485TIP3   OH252945   1.606   0.489   0.613  0.3138  0.2102  0.4022
10485TIP3    H152946   1.650   0.560   0.659  2.2470 -1.3232  1.0736
10485TIP3    H252947   1.650   0.410   0.645 -0.9108 -1.1941 -1.2357
10486TIP3   OH252948   2.186   3.721  28.810 -0.2774 -0.1033  0.1883
10486TIP3    H152949   2.113   3.715  28.871  0.2824  0.4859  0.9482
10486TIP3    H252950   2.151   3.767  28.734 -0.9744 -0.8101  0.0729
10487TIP3   OH252951   1.508   0.345  32.963  0.6797  0.2972  0.3122
10487TIP3    H152952   1.473   0.269  33.010  0.0275 -0.4430 -1.2979
10487TIP3    H252953   1.491   0.419  33.021  0.8370 -0.6965  1.6785
10488TIP3   OH252954   3.092   4.275   4.115 -0.0331  0.2758  0.0721
10488TIP3    H152955   3.045   4.285   4.033 -1.4565  0.3279  0.8540
10488TIP3    H252956   3.034   4.222   4.170  2.0878 -2.1627  0.1464
10489TIP3   OH252957   0.193   1.755   2.100 -0.2365 -0.7617 -0.1530
10489TIP3    H152958   0.102   1.738   2.123 -1.2385  3.5028 -0.1479
10489TIP3    H252959   0.188   1.813   2.024  2.3296  1.2025  1.0219
10490TIP3   OH252960   2.026   1.245   8.858 -0.1161  0.0230 -0.0830
10490TIP3    H152961   2.056   1.265   8.769  0.3954 -0.1767  0.0461
10490TIP3    H252962   2.045   1.325   8.908  1.0516 -0.4331  0.2116
10491TIP3   OH252963   2.042   3.031  29.316  0.2481 -0.2110  0.0214
10491TIP3    H152964   2.002   3.088  29.250  0.4563 -0.1516 -0.0528
10491TIP3    H252965   2.099   2.973  29.266  0.0565 -0.4688  0.1011
10492TIP3   OH252966   2.157   1.733  37.113  0.6264 -0.0829  0.1171
10492TIP3    H152967   2.234   1.687  37.081 -0.8326 -1.2573 -1.9594
10492TIP3    H252968   2.089   1.713  37.048 -0.8552  2.6862  0.6846
10493TIP3   OH252969   3.318   1.105   5.754  0.2925  0.4034 -0.0404
10493TIP3    H152970   3.381   1.147   5.812  0.5209 -0.5478  0.4136
10493TIP3    H252971   3.287   1.176   5.698 -0.7227  1.5654  1.9107
10494TIP3   OH252972   2.155   2.846  12.770  0.2676 -0.3597  0.2053
10494TIP3    H152973   2.250   2.857  12.781  0.5240  1.2508 -2.5781
10494TIP3    H252974   2.147   2.771  12.711 -0.0423  0.5989 -1.0038
10495TIP3   OH252975   0.631   3.675  22.684 -0.4352  0.7004  0.0128
10495TIP3    H152976   0.701   3.697  22.623 -0.0278  0.3931  0.3636
10495TIP3    H252977   0.598   3.760  22.714 -0.7018  0.8549 -0.6997
10496TIP3   OH252978   0.393   3.115   5.949 -0.3185 -0.1719  0.1942
10496TIP3    H152979   0.340   3.041   5.978  1.1891 -0.9650  1.0692
10496TIP3    H252980   0.472   3.074   5.913  0.4585  0.9935  0.5288
10497TIP3   OH252981   1.869   2.334   8.934  0.4066 -0.6189 -0.7501
10497TIP3    H152982   1.905   2.367   9.016 -0.8126 -0.0250 -0.4371
10497TIP3    H252983   1.936   2.356   8.869  1.2227 -0.7740  0.0017
10498TIP3   OH252984   2.554   3.594   1.198 -0.4097  0.3615  0.1798
10498TIP3    H152985   2.638   3.584   1.243  0.0420  0.3507 -0.6302
10498TIP3    H252986   2.503   3.517   1.223 -0.5262  0.8130  1.3850
10499TIP3   OH252987   2.758   0.403  35.298  0.3230 -0.2638  0.9841
10499TIP3    H152988   2.663   0.388  35.300  0.4974 -2.2600 -1.4583
10499TIP3    H252989   2.782   0.409  35.391 -2.2550  1.2257  1.6746
10500TIP3   OH252990   3.074   0.016  35.621 -0.2170  0.2105 -0.4700
10500TIP3    H152991   3.107  -0.068  35.654  1.9212  0.8835 -0.7520
10500TIP3    H252992   2.988  -0.005  35.585 -1.3376 -1.1787  2.6027
10501TIP3   OH252993   3.573   0.969  31.244 -0.5276  0.4114  0.1615
10501TIP3    H152994   3.648   0.933  31.292 -0.0257  0.0133 -0.9001
10501TIP3    H252995   3.610   1.001  31.162 -1.7260 -1.2559 -1.0926
10502TIP3   OH252996   0.411   3.638  30.130 -0.2220 -0.1043 -0.3182
10502TIP3    H152997   0.373   3.711  30.082  0.3848 -0.6381 -1.6625
10502TIP3    H252998   0.392   3.561  30.076  0.1175 -0.7968  0.5129
10503TIP3   OH252999   1.766   2.661  28.983 -0.5292  0.7112 -0.1966
10503TIP3    H153000   1.681   2.643  29.024  0.3174 -0.5416  1.1101
10503TIP3    H253001   1.744   2.709  28.903 -2.4121  1.0476  0.4595
10504TIP3   OH253002   1.998   2.307   1.695 -0.3085 -0.4258  0.1640
10504TIP3    H153003   1.941   2.231   1.708  1.6942 -1.5889  3.1022
10504TIP3    H253004   2.070   2.295   1.756  0.9165  3.1467 -0.2947
10505TIP3   OH253005   3.958   1.330  28.790 -0.8456  0.1934  0.4892
10505TIP3    H153006   3.958   1.328  28.695 -1.6735  3.3076  0.3198
10505TIP3    H253007   4.034   1.383  28.813 -0.2353 -1.1069  1.6707
10506TIP3   OH253008   3.394   1.652   1.192  0.4368 -0.4513  0.2994
10506TIP3    H153009   3.309   1.639   1.150  0.1070 -2.6962  1.4889
10506TIP3    H253010   3.456   1.609   1.133  0.7704  1.0821 -0.5083
10507TIP3   OH253011   1.678   3.458  18.270  0.1412 -0.0583 -0.3175
10507TIP3    H153012   1.740   3.385  18.273 -0.8175 -0.8711  0.4373
10507TIP3    H253013   1.710   3.519  18.336 -1.7826 -2.1471  2.8376
10508TIP3   OH253014   2.510   1.819  41.023 -0.3107  0.1094 -0.2914
10508TIP3    H153015   2.564   1.763  41.080 -0.8064  1.0235  1.1466
10508TIP3    H253016   2.456   1.869  41.084 -1.7988  0.2259 -1.6401
10509TIP3   OH253017   3.464   0.302   6.452  0.4137  0.3231 -0.4050
10509TIP3    H153018   3.482   0.355   6.374 -1.9950 -0.6925 -1.7488
10509TIP3    H253019   3.530   0.232   6.448  1.2846  1.1236 -0.6384
10510TIP3   OH253020   1.580   4.354  32.742 -0.3057 -0.4292  0.3578
10510TIP3    H153021   1.586   4.327  32.650 -0.2616  0.5968  0.0506
10510TIP3    H253022   1.654   4.309  32.784  1.8168  1.7584 -0.7992
10511TIP3   OH253023   1.830   2.325  34.222  0.0341 -0.1449  0.3226
10511TIP3    H153024   1.835   2.401  34.280  0.1505  0.0294  0.0871
10511TIP3    H253025   1.759   2.346  34.161  0.9975  0.4274 -0.6462
10512TIP3   OH253026   2.872   4.221  12.870 -0.5974  0.2813 -0.0097
10512TIP3    H153027   2.917   4.144  12.835 -0.2738 -0.8143  2.6118
10512TIP3    H253028   2.829   4.190  12.949 -0.5871  2.7729  1.0500
10513TIP3   OH253029   2.883   2.998  11.963 -0.0213  0.7437 -0.5039
10513TIP3    H153030   2.830   2.924  11.994  0.7391  0.0179 -0.9028
10513TIP3    H253031   2.830   3.040  11.896 -0.8359  1.1112  0.3485
10514TIP3   OH253032   2.010   0.767  39.194  0.1025  0.3228  0.3284
10514TIP3    H153033   2.029   0.674  39.185 -0.1746  0.4368 -2.1940
10514TIP3    H253034   2.090   0.804  39.231  0.5855 -0.7759  0.4234
10515TIP3   OH253035   3.907   1.262  32.733 -0.0306 -0.5213  0.1603
10515TIP3    H153036   3.819   1.297  32.742  0.2723 -0.0732  1.9151
10515TIP3    H253037   3.963   1.327  32.777  1.1755 -0.8046 -0.8841
10516TIP3   OH253038   2.330   3.120  17.713  0.3911 -0.2792  0.6898
10516TIP3    H153039   2.397   3.177  17.675  0.7154 -1.8471 -1.2347
10516TIP3    H253040   2.259   3.180  17.736 -0.0893  0.8168 -3.0211
10517TIP3   OH253041   1.624   2.418  11.197  0.3087 -0.0791 -0.0114
10517TIP3    H153042   1.669   2.502  11.190  2.0158 -0.9007  0.6397
10517TIP3    H253043   1.665   2.374  11.271 -2.8289 -0.1671  1.8321
10518TIP3   OH253044   0.932   1.986   0.640 -0.3465  0.6611  1.1868
10518TIP3    H153045   0.959   1.896   0.662 -1.0861  0.4889  1.4236
10518TIP3    H253046   0.986   2.041   0.697  1.2850  0.4730 -0.1069
10519TIP3   OH253047   4.057   0.935  10.345 -0.4689 -0.1058  0.0881
10519TIP3    H153048   4.090   0.958  10.258 -3.1336  0.9740 -0.7304
10519TIP3    H253049   4.010   0.852  10.332 -2.0194  0.7350  0.1709
10520TIP3   OH253050   2.698   2.478  36.666  0.3618 -0.0889 -0.8392
10520TIP3    H153051   2.658   2.392  36.657  2.1784 -1.0332 -0.5186
10520TIP3    H253052   2.693   2.498  36.760  1.4686 -0.6706 -0.6386
10521TIP3   OH253053   3.955   0.283   1.714 -0.2403 -0.5281  0.3353
10521TIP3    H153054   3.968   0.377   1.702 -1.2146 -0.3007  0.9797
10521TIP3    H253055   4.042   0.249   1.736  0.1361  0.1924 -0.0012
10522TIP3   OH253056   3.195   1.488   3.746 -0.4489  0.1082  0.1539
10522TIP3    H153057   3.162   1.472   3.658 -1.4414  1.5209  0.2210
10522TIP3    H253058   3.141   1.561   3.778  0.0360 -0.2381  1.8422
10523TIP3   OH253059   2.334   0.055   0.160  0.2098 -0.1172 -0.5979
10523TIP3    H153060   2.374  -0.028   0.132 -0.7188 -1.2237  1.1922
10523TIP3    H253061   2.241   0.035   0.169  0.3351  0.2091  2.6897
10524TIP3   OH253062   2.924   0.058  41.122 -0.7671  0.0373 -0.1590
10524TIP3    H153063   3.002   0.089  41.076 -1.3293  0.8125 -0.5958
10524TIP3    H253064   2.913   0.120  41.194  0.1857 -1.2427  1.1466
10525TIP3   OH253065   1.111   0.937  37.418  0.0936 -0.5272  0.2688
10525TIP3    H153066   1.123   1.031  37.412  0.0658 -0.5502 -0.2066
10525TIP3    H253067   1.066   0.923  37.501  0.7951 -0.1934  0.7058
10526TIP3   OH253068   2.349   0.096  41.109 -0.1357  0.1207  0.1425
10526TIP3    H153069   2.428   0.082  41.161 -0.0034 -0.4488 -0.1982
10526TIP3    H253070   2.326   0.188  41.124  0.2333  0.1167  0.7364
10527TIP3   OH253071   4.125   1.990  38.816 -0.6615  0.2809 -0.7028
10527TIP3    H153072   4.096   1.908  38.776  2.6941 -2.2168  1.3985
10527TIP3    H253073   4.088   1.988  38.904  0.8749  0.0362 -0.0350
10528TIP3   OH253074   1.901   2.962  40.034  0.1608 -0.1487 -0.0744
10528TIP3    H153075   1.823   2.908  40.046  1.3462 -2.3833 -1.7212
10528TIP3    H253076   1.965   2.904  39.992  3.2440  1.1087  2.3976
10529TIP3   OH253077   3.931   0.845  35.718 -0.0014 -0.7881 -0.1120
10529TIP3    H153078   3.878   0.818  35.643  0.8189 -2.6959 -0.0556
10529TIP3    H253079   4.022   0.832  35.689  0.3263 -1.8471  1.2828
10530TIP3   OH253080   0.784   2.233   2.286 -0.0093  0.2789 -0.3025
10530TIP3    H153081   0.825   2.257   2.203  0.0482 -0.7389 -0.5837
10530TIP3    H253082   0.709   2.291   2.293 -0.5119 -0.1968 -1.4983
10531TIP3   OH253083   2.790   2.681  30.826 -0.5116  0.0018 -0.0384
10531TIP3    H153084   2.880   2.651  30.817  0.0956  1.7775 -0.3648
10531TIP3    H253085   2.796   2.776  30.816 -2.2586  0.2794  1.1527
10532TIP3   OH253086   1.636   1.927   6.794  0.1409 -0.8397 -0.1549
10532TIP3    H153087   1.645   2.014   6.832 -1.2749 -1.4019  1.6068
10532TIP3    H253088   1.599   1.943   6.707 -2.3459  0.2711  1.0074
10533TIP3   OH253089   1.569   0.273  17.355 -0.2344  0.3466  0.1944
10533TIP3    H153090   1.648   0.321  17.380 -0.1031  0.4470 -0.3800
10533TIP3    H253091   1.503   0.300  17.418  0.0127  0.7815  0.2704
10534TIP3   OH253092   4.395   1.775   6.832  0.2795  0.2081 -0.4443
10534TIP3    H153093   4.436   1.719   6.765 -2.1946 -0.9605 -1.1116
10534TIP3    H253094   4.465   1.834   6.860  2.7421 -2.4448 -0.5370
10535TIP3   OH253095   2.030   3.499  32.287 -0.0373  0.8063 -0.4390
10535TIP3    H153096   1.962   3.463  32.229  0.6603  1.6998 -1.8559
10535TIP3    H253097   2.110   3.494  32.235  0.8618  0.4471  0.9457
10536TIP3   OH253098   4.340   0.096  24.185 -0.0951 -0.2073  0.0902
10536TIP3    H153099   4.406   0.051  24.238  1.9733  1.1547 -1.1847
10536TIP3    H253100   4.328   0.180  24.230  1.3223  0.7599 -1.2306
10537TIP3   OH253101   2.079   1.607   7.055  0.1304 -0.2708 -0.0872
10537TIP3    H153102   2.154   1.620   7.113 -0.4937 -0.7627  0.8628
10537TIP3    H253103   2.012   1.567   7.111 -0.9502  0.4192 -0.8368
10538TIP3   OH253104   0.996   2.401  29.515  0.1542  0.2907  0.1520
10538TIP3    H153105   1.059   2.389  29.586  0.6732 -1.2458 -0.5143
10538TIP3    H253106   1.036   2.356  29.440 -0.8404  0.9892 -0.8335
10539TIP3   OH253107   2.444   0.119  39.299 -0.7905  0.6231 -0.0900
10539TIP3    H153108   2.415   0.028  39.285  1.2283 -0.1850  0.6881
10539TIP3    H253109   2.447   0.129  39.394  0.8280  0.8749 -0.1503
10540TIP3   OH253110   1.459   2.663  41.399 -0.3531 -0.1800 -0.4073
10540TIP3    H153111   1.538   2.656  41.452 -0.7370 -2.5844 -0.0449
10540TIP3    H253112   1.481   2.729  41.333  1.2505  0.5816  0.8174
10541TIP3   OH253113   1.766   1.091  29.430 -0.1061 -0.2091  0.1787
10541TIP3    H153114   1.698   1.149  29.396  0.1954  0.7003  1.1040
10541TIP3    H253115   1.837   1.097  29.366 -1.6652 -2.9685 -2.1110
10542TIP3   OH253116   0.452   3.491  34.510 -0.0353  0.5883  0.3189
10542TIP3    H153117   0.431   3.411  34.558 -1.9425  1.3065  0.7553
10542TIP3    H253118   0.396   3.558  34.549  0.2486  1.7586 -1.1913
10543TIP3   OH253119   1.339   2.378  18.812 -0.2577 -0.2347  0.2238
10543TIP3    H153120   1.258   2.428  18.823 -0.7986 -1.5025  2.8788
10543TIP3    H253121   1.393   2.402  18.887  0.8178 -1.1955 -0.2025
10544TIP3   OH253122   3.506   0.187  40.520  0.2686 -0.5515  0.5459
10544TIP3    H153123   3.524   0.146  40.604 -0.6208 -0.4081  0.8163
10544TIP3    H253124   3.593   0.205  40.483  0.6651 -1.1598  1.1552
10545TIP3   OH253125   3.806   2.706  26.065 -0.5280 -0.3212 -0.0302
10545TIP3    H153126   3.856   2.731  26.143 -1.2152  0.0023  0.3091
10545TIP3    H253127   3.793   2.787  26.017 -0.9035 -0.3700 -0.0130
10546TIP3   OH253128   0.838   1.008  35.614  0.1963  0.5651 -0.3004
10546TIP3    H153129   0.883   1.056  35.544 -0.0224  0.5581 -0.4469
10546TIP3    H253130   0.834   1.070  35.686 -0.7577  1.0346 -0.7428
10547TIP3   OH253131   1.599   3.536  17.794  0.0058  0.3153  0.4429
10547TIP3    H153132   1.509   3.566  17.802 -0.0390  0.0826  0.9065
10547TIP3    H253133   1.609   3.472  17.865  0.5041  0.2661  0.3362
10548TIP3   OH253134   0.195   1.620  10.986  0.5213 -0.2793  0.1321
10548TIP3    H153135   0.219   1.621  10.893  0.7365 -0.4020  0.1837
10548TIP3    H253136   0.156   1.533  10.999 -1.2714  0.4374 -0.2707
10549TIP3   OH253137   3.573   1.095  25.679  0.5761  0.0547 -0.3048
10549TIP3    H153138   3.480   1.111  25.663  0.2074 -0.6870  0.9282
10549TIP3    H253139   3.609   1.181  25.699 -0.4863  0.0295  2.0836
10550TIP3   OH253140   3.105   2.111  30.301  0.2181 -0.2917  0.0153
10550TIP3    H153141   3.158   2.169  30.245 -1.9144  1.1446 -0.6649
10550TIP3    H253142   3.015   2.123  30.269 -0.3529 -4.2827 -0.3662
10551TIP3   OH253143   1.829   0.571  31.435  0.1485 -0.3662  0.6572
10551TIP3    H153144   1.835   0.532  31.522  1.0059 -0.7025  0.4661
10551TIP3    H253145   1.741   0.606  31.430 -0.0751 -0.7823  1.4760
10552TIP3   OH253146   1.258   0.175   4.257 -0.3161  0.0132  0.8895
10552TIP3    H153147   1.314   0.102   4.229 -2.6207 -2.4528  2.2632
10552TIP3    H253148   1.204   0.194   4.181  0.7449  0.8335  0.3073
10553TIP3   OH253149   3.977   2.698  10.658  0.1323  0.0310 -0.1447
10553TIP3    H153150   3.973   2.780  10.708  0.7320 -1.1804  2.0110
10553TIP3    H253151   4.028   2.639  10.713  2.6652 -0.8163 -3.1374
10554TIP3   OH253152   3.521   0.750   7.919 -0.2848 -0.1001  0.7718
10554TIP3    H153153   3.546   0.798   7.840 -0.9416 -1.4062 -0.2662
10554TIP3    H253154   3.426   0.744   7.914 -0.4027  0.3943  2.0467
10555TIP3   OH253155   0.899   4.203   8.420  0.0854  1.0728 -0.2081
10555TIP3    H153156   0.929   4.254   8.495 -1.6843 -1.2437  2.2634
10555TIP3    H253157   0.807   4.183   8.440 -0.1471 -0.5246 -2.5013
10556TIP3   OH253158   3.647   0.575   5.975 -0.2284  0.0263  0.0019
10556TIP3    H153159   3.715   0.637   5.948  1.3345 -1.3555  0.6164
10556TIP3    H253160   3.572   0.630   5.999  0.7422  1.6024 -0.4453
10557TIP3   OH253161   1.618   2.593   8.438 -0.3292 -0.1382 -0.3041
10557TIP3    H153162   1.559   2.518   8.442 -0.7474  0.2326  1.8756
10557TIP3    H253163   1.703   2.559   8.467  0.0234 -0.1957 -1.3484
10558TIP3   OH253164   1.879   2.088  12.522 -0.1470  0.6326 -0.1270
10558TIP3    H153165   1.845   2.031  12.453  1.9124  0.6959 -1.2972
10558TIP3    H253166   1.802   2.120  12.567 -1.4682 -1.4871 -0.7213
10559TIP3   OH253167   1.536   0.232  14.084  0.4449 -0.0356 -0.1073
10559TIP3    H153168   1.611   0.289  14.067  0.4748 -0.3374 -1.0567
10559TIP3    H253169   1.518   0.191  14.000  0.1416 -1.0908  0.4559
10560TIP3   OH253170   4.390   3.250  22.872  0.0695  0.1599  0.4404
10560TIP3    H153171   4.479   3.267  22.900  0.4733 -0.2632 -0.5501
10560TIP3    H253172   4.384   3.154  22.867 -0.3473  0.1965  0.2103
10561TIP3   OH253173   2.073   0.202  10.367 -0.1496 -0.2502  0.1973
10561TIP3    H153174   2.096   0.179  10.277  0.8151  1.5083 -0.0595
10561TIP3    H253175   2.126   0.143  10.421  0.6713 -0.0917 -0.4104
10562TIP3   OH253176   1.452   0.423  34.397 -0.4579  0.1613 -0.1817
10562TIP3    H153177   1.456   0.460  34.485  1.3321  0.4712 -0.3615
10562TIP3    H253178   1.425   0.496  34.342  0.1827  0.4396 -0.1331
10563TIP3   OH253179   2.666   2.794   1.115  0.0910  0.2105  0.3095
10563TIP3    H153180   2.642   2.746   1.194 -2.1791 -1.5376 -1.2986
10563TIP3    H253181   2.728   2.737   1.070 -1.6062 -0.7058 -0.9755
10564TIP3   OH253182   0.957   2.427  31.893 -0.3089  0.4967 -0.1460
10564TIP3    H153183   0.886   2.409  31.954  0.0549 -1.4062 -0.2215
10564TIP3    H253184   0.929   2.386  31.811  0.3276  0.8239 -0.5361
10565TIP3   OH253185   1.861   2.560  36.520 -0.0283 -0.9217  0.0369
10565TIP3    H153186   1.876   2.651  36.544  0.9533 -0.7607 -1.0925
10565TIP3    H253187   1.872   2.558  36.425 -2.5890 -1.7290 -0.3446
10566TIP3   OH253188   3.961   1.268  22.844 -0.3201  0.7630 -0.0178
10566TIP3    H153189   3.975   1.184  22.887  4.9874  1.8751  1.1016
10566TIP3    H253190   3.925   1.325  22.912  2.1798  0.9253  1.2569
10567TIP3   OH253191   0.354   0.927   7.853  0.7263 -0.3969  0.2886
10567TIP3    H153192   0.269   0.935   7.810  1.7484 -0.2956 -1.8136
10567TIP3    H253193   0.356   0.837   7.886 -1.1379  0.2964  2.6433
10568TIP3   OH253194   2.035   0.987   5.201 -0.3884 -0.0775  0.0046
10568TIP3    H153195   2.104   0.984   5.135 -0.0528  3.8153 -0.0242
10568TIP3    H253196   2.076   0.952   5.280  0.1433 -1.9285 -1.0207
10569TIP3   OH253197   1.288   2.782  40.870  0.6351  0.2131  0.0265
10569TIP3    H153198   1.280   2.719  40.941  1.5602  1.0484  0.8866
10569TIP3    H253199   1.382   2.793  40.857  0.4794  0.9325 -0.5620
10570TIP3   OH253200   0.784   2.925  36.602 -0.2656  0.3004 -0.1982
10570TIP3    H153201   0.781   3.019  36.587  0.8333 -0.0375 -3.2290
10570TIP3    H253202   0.788   2.887  36.514 -2.9178 -2.7080  0.7857
10571TIP3   OH253203   0.075   1.698  41.373 -0.0162 -0.1625  0.1091
10571TIP3    H153204   0.022   1.771  41.404 -1.4246 -1.1233  0.0643
10571TIP3    H253205   0.164   1.720  41.399 -0.6184  0.8709  1.4012
10572TIP3   OH253206   2.279   2.071  30.747 -0.5411 -0.1398  0.2478
10572TIP3    H153207   2.190   2.106  30.758 -0.7442 -1.0556  1.8666
10572TIP3    H253208   2.268   1.976  30.755  0.6701 -0.2138  1.3112
10573TIP3   OH253209   2.595   4.056  12.023  0.2785 -0.2975 -0.0391
10573TIP3    H153210   2.635   4.118  12.084  0.0843  0.7806 -0.9703
10573TIP3    H253211   2.515   4.098  11.994 -0.2266 -1.3033 -0.1643
10574TIP3   OH253212   3.122   0.172  32.548 -0.0570  0.0825 -0.1015
10574TIP3    H153213   3.124   0.267  32.561 -0.6228  0.1500 -0.4522
10574TIP3    H253214   3.213   0.144  32.560  0.0801  0.6420  0.1910
10575TIP3   OH253215   3.077   0.756  11.382  0.3650  0.2884  0.0161
10575TIP3    H153216   2.987   0.740  11.410 -0.6613  2.2466 -1.9321
10575TIP3    H253217   3.094   0.690  11.315  0.0664  0.5121 -0.2762
10576TIP3   OH253218   1.397   0.544  39.046 -0.3030  0.6913 -0.3886
10576TIP3    H153219   1.484   0.560  39.083  0.7313 -0.0290 -2.3517
10576TIP3    H253220   1.413   0.526  38.953 -2.3864 -1.0854 -0.4943
10577TIP3   OH253221   1.263   1.429  29.172 -0.1887  1.1385  0.0379
10577TIP3    H153222   1.288   1.468  29.256  2.6654 -1.2402  0.4607
10577TIP3    H253223   1.190   1.371  29.194  1.2269 -0.3062  1.2406
10578TIP3   OH253224   0.574   0.185  30.408  0.2510  0.3028  0.8610
10578TIP3    H153225   0.559   0.123  30.336  0.5885 -0.6621  1.5952
10578TIP3    H253226   0.649   0.150  30.454  0.7666  1.5661  1.0100
10579TIP3   OH253227   2.719   3.193   4.453  0.3358 -0.2115  0.3449
10579TIP3    H153228   2.743   3.113   4.407  1.3975  0.5723 -0.4989
10579TIP3    H253229   2.779   3.197   4.527  1.4973  0.7041 -0.6210
10580TIP3   OH253230   3.628   0.364   0.176 -0.3787  0.3005 -0.1408
10580TIP3    H153231   3.580   0.286   0.147 -0.7562 -0.0359  1.3101
10580TIP3    H253232   3.618   0.425   0.103 -2.1439 -0.1421 -0.3402
10581TIP3   OH253233   4.047   3.044   9.385 -0.0001 -0.1457 -0.2021
10581TIP3    H153234   4.107   3.031   9.312 -0.6329  1.6758 -1.1008
10581TIP3    H253235   4.014   2.956   9.405  2.9224 -1.2206  0.3600
10582TIP3   OH253236   2.570   1.038  10.253 -0.3594  0.1027 -0.1976
10582TIP3    H153237   2.512   1.011  10.325 -1.3963  1.3972 -0.5055
10582TIP3    H253238   2.648   1.072  10.297  0.3189 -1.8169  0.2206
10583TIP3   OH253239   0.924   2.010  10.293  0.3698 -0.4310 -0.2064
10583TIP3    H153240   0.983   1.975  10.359 -0.7194  0.1733  1.1486
10583TIP3    H253241   0.923   2.104  10.310 -1.2073 -0.4650  0.0227
10584TIP3   OH253242   3.862   0.275  37.303  0.3634 -0.5920 -0.0268
10584TIP3    H153243   3.825   0.201  37.352  2.4752  0.2608  3.1417
10584TIP3    H253244   3.817   0.352  37.337  1.0510 -0.0476 -0.3310
10585TIP3   OH253245   2.153   3.867  33.444  0.5833  0.2969  0.2927
10585TIP3    H153246   2.223   3.881  33.507  1.1311 -2.4494  0.3905
10585TIP3    H253247   2.075   3.852  33.498  0.7231 -0.4398  0.2991
10586TIP3   OH253248   0.095   3.974  21.757 -0.1029  0.4374 -0.1450
10586TIP3    H153249   0.185   4.007  21.768  0.1762 -0.3493 -0.0068
10586TIP3    H253250   0.044   4.024  21.820  0.4402  0.1397  0.5511
10587TIP3   OH253251   0.846   1.694  34.154 -0.0722 -0.0346 -0.4237
10587TIP3    H153252   0.925   1.728  34.112 -0.6398  0.5826 -0.9981
10587TIP3    H253253   0.878   1.626  34.213  0.8580 -0.0330 -0.9163
10588TIP3   OH253254   1.510   1.710  40.738 -0.0391  0.3764  0.2908
10588TIP3    H153255   1.522   1.726  40.644 -0.8629 -0.8818 -0.0410
10588TIP3    H253256   1.417   1.690  40.747 -0.1227  1.2038  1.5085
10589TIP3   OH253257   3.169   3.950  36.138  0.1919  0.0440  0.0520
10589TIP3    H153258   3.116   3.887  36.186  1.7745 -0.4976  1.1771
10589TIP3    H253259   3.159   4.032  36.185  0.8695 -0.2189  0.6606
10590TIP3   OH253260   1.600   4.010  30.097  0.4531 -0.0526  0.2312
10590TIP3    H153261   1.598   4.105  30.097 -0.5471 -0.0684 -0.1084
10590TIP3    H253262   1.604   3.986  30.004  0.0029 -0.3490  0.2840
10591TIP3   OH253263   0.348   1.218  10.930 -0.1436  0.3970  0.0001
10591TIP3    H153264   0.356   1.310  10.903  1.1708  0.6010  0.9556
10591TIP3    H253265   0.353   1.169  10.848  0.3987  1.1409 -0.4322
10592TIP3   OH253266   2.133   1.868  38.942 -0.0147 -0.1210  0.0821
10592TIP3    H153267   2.106   1.953  38.909  0.3283 -0.3502 -0.8248
10592TIP3    H253268   2.175   1.825  38.868 -0.6494 -1.2869  0.3641
10593TIP3   OH253269   2.219   1.848  33.582  0.4407  0.1112 -0.0086
10593TIP3    H153270   2.138   1.875  33.539 -0.3201 -0.7383  0.8586
10593TIP3    H253271   2.283   1.916  33.557 -1.0531  1.9843  1.0124
10594TIP3   OH253272   3.700   2.091  38.057  0.3812 -0.1891  0.1550
10594TIP3    H153273   3.793   2.079  38.077  0.2671 -0.8936  0.3001
10594TIP3    H253274   3.655   2.028  38.114 -0.1271 -0.3882 -0.4565
10595TIP3   OH253275   0.242   2.079  10.283  0.2216  0.4918 -0.1737
10595TIP3    H153276   0.234   2.153  10.342 -0.5578  0.8890 -0.7694
10595TIP3    H253277   0.332   2.048  10.295 -0.0548  0.2819  1.5350
10596TIP3   OH253278   1.716   0.488   5.533  0.1801 -0.1402  0.2150
10596TIP3    H153279   1.761   0.558   5.486 -1.1861 -0.6012 -1.9370
10596TIP3    H253280   1.695   0.424   5.466 -2.1501 -0.7183  1.3816
10597TIP3   OH253281   3.273   0.014  32.832 -0.2316  0.2467  0.0992
10597TIP3    H153282   3.202  -0.049  32.821 -0.4310  0.7208 -1.7948
10597TIP3    H253283   3.320   0.011  32.748  1.4138  0.6242  0.9797
10598TIP3   OH253284   0.698   2.567  26.382  0.5189 -0.5072  0.0131
10598TIP3    H153285   0.728   2.534  26.466  2.5995 -1.2107 -0.9239
10598TIP3    H253286   0.711   2.662  26.387 -0.6132 -0.3758  0.9056
10599TIP3   OH253287   0.706   1.458   7.651  0.2341 -0.1252  0.1740
10599TIP3    H153288   0.683   1.366   7.633  1.4413 -0.3879 -0.1190
10599TIP3    H253289   0.703   1.500   7.566 -0.9849  0.2785  0.4035
10600TIP3   OH253290   0.279   0.935  13.576  0.3573 -0.4055  0.8358
10600TIP3    H153291   0.278   0.869  13.645  1.7483  0.7922  2.0808
10600TIP3    H253292   0.254   1.016  13.620 -0.9721 -0.0064 -0.5807
10601TIP3   OH253293   3.523   3.098  12.156 -0.1408 -0.0280 -0.1548
10601TIP3    H153294   3.588   3.139  12.212 -0.6869 -0.1201  0.5607
10601TIP3    H253295   3.555   3.113  12.067  1.1651 -0.5938  0.1979
10602TIP3   OH253296   0.531   0.599   6.879  0.1250 -0.3387 -0.0066
10602TIP3    H153297   0.527   0.545   6.800 -0.5808  2.3829 -2.0136
10602TIP3    H253298   0.440   0.602   6.910  0.4361 -1.5751  1.0935
10603TIP3   OH253299   3.313   0.111   7.835  0.2628 -0.1514 -0.2203
10603TIP3    H153300   3.353   0.080   7.916  0.7586  0.5645 -0.1824
10603TIP3    H253301   3.231   0.151   7.863  2.1131  3.6068  0.5269
10604TIP3   OH253302   3.274   4.234  13.160 -0.1272 -0.2158  0.2360
10604TIP3    H153303   3.310   4.222  13.072  1.4472 -2.9342  1.1441
10604TIP3    H253304   3.347   4.214  13.219 -1.8044 -1.0428  2.1493
10605TIP3   OH253305   1.966   1.859   5.184 -0.4085  0.1202 -0.2468
10605TIP3    H153306   2.051   1.902   5.195 -0.5895  0.2255  0.9576
10605TIP3    H253307   1.977   1.773   5.223 -0.9506  0.2710  0.2546
10606TIP3   OH253308   2.461   2.083  31.828  0.4367 -0.1144 -0.3408
10606TIP3    H153309   2.488   1.994  31.852  0.0373  0.2783  1.8097
10606TIP3    H253310   2.370   2.089  31.857  0.4268  0.9674 -0.5627
10607TIP3   OH253311   1.344   2.276  33.980  0.2986 -0.0462 -0.1538
10607TIP3    H153312   1.368   2.335  34.051  0.7455 -1.2372  0.7178
10607TIP3    H253313   1.427   2.240  33.950 -0.1143 -2.1551  1.0674
10608TIP3   OH253314   1.171   1.511  36.019  0.6332  0.3436  0.4112
10608TIP3    H153315   1.086   1.504  35.977 -0.0287  0.2493  1.6968
10608TIP3    H253316   1.197   1.421  36.038  1.5771  0.2961 -0.9971
10609TIP3   OH253317   4.323   4.314  35.368  0.6246 -0.1888  0.1345
10609TIP3    H153318   4.408   4.272  35.380  1.4733  0.6956 -2.2507
10609TIP3    H253319   4.273   4.252  35.315 -0.3900 -0.8401  1.7767
10610TIP3   OH253320   2.808   4.160  38.718 -0.6329  0.7866  0.0113
10610TIP3    H153321   2.894   4.142  38.680 -1.1380  0.5007 -1.0415
10610TIP3    H253322   2.795   4.254  38.705 -1.3883  0.4753 -1.8820
10611TIP3   OH253323   0.346   1.517   6.608  0.1580 -0.1471 -0.4260
10611TIP3    H153324   0.291   1.443   6.633  0.0077  0.0320 -0.2163
10611TIP3    H253325   0.386   1.546   6.690 -2.2159  1.9686  0.1256
10612TIP3   OH253326   1.254   3.256   6.175 -0.4098 -0.1638  0.7859
10612TIP3    H153327   1.230   3.191   6.109 -0.4523 -0.5591  1.1832
10612TIP3    H253328   1.170   3.285   6.211 -0.4485  0.7828 -0.0044
10613TIP3   OH253329   2.591   4.205  38.924  0.3319 -0.0939 -0.5071
10613TIP3    H153330   2.656   4.206  38.854  1.0290 -0.7480  0.1109
10613TIP3    H253331   2.582   4.112  38.947  0.2398  0.1253  0.3703
10614TIP3   OH253332   2.050   0.226   8.811 -0.5160 -0.3819  0.1867
10614TIP3    H153333   2.130   0.262   8.849  0.0569  0.2267 -1.5103
10614TIP3    H253334   1.982   0.290   8.831 -0.4983 -0.6764  1.2311
10615TIP3   OH253335   2.169   2.177  32.382 -0.1360  0.2936 -0.1074
10615TIP3    H153336   2.231   2.227  32.434 -3.0654  2.2239  1.8529
10615TIP3    H253337   2.153   2.098  32.432  1.4570 -0.7900 -1.1954
10616TIP3   OH253338   0.752   4.231  26.844  0.4369  0.4089 -0.2180
10616TIP3    H153339   0.798   4.192  26.919  1.4022 -0.2574 -1.1174
10616TIP3    H253340   0.722   4.316  26.875  2.7824  1.1221  0.2772
10617TIP3   OH253341   1.627   3.249  29.643  0.4549 -0.0774 -0.1712
10617TIP3    H153342   1.647   3.245  29.549  3.7529  0.0164  0.4088
10617TIP3    H253343   1.710   3.232  29.686 -0.6262  1.4028  2.7734
10618TIP3   OH253344   3.074   3.429   3.840  0.5994 -0.0913 -0.1564
10618TIP3    H153345   3.114   3.457   3.923  2.4146  2.4747 -1.7357
10618TIP3    H253346   3.143   3.380   3.795  0.3584  0.2983 -0.9766
10619TIP3   OH253347   3.146   3.561   1.579  1.0017 -0.5081 -0.2984
10619TIP3    H153348   3.121   3.628   1.515  1.6113  1.1071  1.0748
10619TIP3    H253349   3.127   3.478   1.536 -0.6851  0.5527 -1.7074
10620TIP3   OH253350   3.425   2.780   1.865 -0.2921 -0.4468 -0.0603
10620TIP3    H153351   3.400   2.694   1.899 -0.8052  0.3909  1.8247
10620TIP3    H253352   3.520   2.784   1.878 -0.6077  0.3040  2.5632
10621TIP3   OH253353   1.702   3.296  40.297 -0.4376 -0.2467 -0.3611
10621TIP3    H153354   1.619   3.252  40.318  0.7594 -2.9600 -0.8444
10621TIP3    H253355   1.711   3.287  40.202  0.0802  0.7211 -0.4190
10622TIP3   OH253356   2.001   0.867  36.104  0.2435  0.1434  0.0606
10622TIP3    H153357   1.909   0.846  36.084  0.0629  1.3721 -0.4639
10622TIP3    H253358   2.035   0.787  36.143 -1.1076 -0.2733  0.4492
10623TIP3   OH253359   0.803   2.852  28.210 -0.8001  0.5621 -0.1412
10623TIP3    H153360   0.805   2.915  28.138 -0.9263  0.9712  0.2098
10623TIP3    H253361   0.891   2.857  28.248 -0.4734 -0.2476 -0.7705
10624TIP3   OH253362   0.915   3.541   2.628 -0.2656 -0.5894  0.0447
10624TIP3    H153363   1.003   3.553   2.592 -0.3279  2.5542  0.6538
10624TIP3    H253364   0.930   3.519   2.720 -0.0600  1.0641  0.4332
10625TIP3   OH253365   2.108   0.914  33.111  0.2311 -0.2283  0.2163
10625TIP3    H153366   2.089   0.879  33.198 -1.3371 -2.1691 -0.8175
10625TIP3    H253367   2.198   0.887  33.093  0.4402 -0.1371  1.0761
10626TIP3   OH253368   0.697   4.250  11.018 -0.5181  0.2991  0.3537
10626TIP3    H153369   0.633   4.244  11.090  0.6182 -1.7425  1.2879
10626TIP3    H253370   0.689   4.166  10.972  0.1867  0.7736 -0.6647
10627TIP3   OH253371   2.832   0.431  10.698  0.3468 -0.1645 -0.5141
10627TIP3    H153372   2.843   0.447  10.791 -0.7999  0.5570 -0.4874
10627TIP3    H253373   2.831   0.519  10.659 -2.5146 -0.2461 -0.7909
10628TIP3   OH253374   3.007   0.327   7.414  0.1264 -0.5914  0.5076
10628TIP3    H153375   3.090   0.365   7.443  0.1986 -1.7826  2.0424
10628TIP3    H253376   3.002   0.243   7.461 -0.9682 -1.5200 -1.1553
10629TIP3   OH253377   2.039   0.003  10.749 -0.1235 -0.3990  0.1788
10629TIP3    H153378   1.957  -0.039  10.723 -0.2806 -0.5399  0.8741
10629TIP3    H253379   2.093  -0.068  10.783  1.0226 -0.6282 -1.9195
10630TIP3   OH253380   2.465   3.993   1.689  0.0099 -0.4055  0.1120
10630TIP3    H153381   2.542   3.999   1.745 -1.6891  1.6413  2.3876
10630TIP3    H253382   2.438   3.901   1.696 -0.9772  0.0041  4.0279
10631TIP3   OH253383   2.439   3.509   1.547  0.1857 -0.4039 -0.4766
10631TIP3    H153384   2.442   3.420   1.582  1.6403 -0.5171 -0.8225
10631TIP3    H253385   2.531   3.537   1.545 -0.3293  1.6569  1.0181
10632TIP3   OH253386   0.718   2.353   3.782  0.2335  0.6783  0.6942
10632TIP3    H153387   0.655   2.287   3.811  0.8635 -0.9926 -1.4196
10632TIP3    H253388   0.797   2.335   3.833 -0.0270  0.7257  1.1207
10633TIP3   OH253389   0.175   2.265  32.345 -0.3390  0.5385 -0.1893
10633TIP3    H153390   0.175   2.284  32.252  1.4385  0.9102 -0.1543
10633TIP3    H253391   0.115   2.328  32.383 -1.7207 -0.1505 -1.1557
10634TIP3   OH253392   0.764   0.494   0.534  0.4824 -0.0896 -0.5964
10634TIP3    H153393   0.676   0.530   0.550 -0.6900 -2.2518 -1.7637
10634TIP3    H253394   0.775   0.427   0.601  2.4317  1.8882  1.2263
10635TIP3   OH253395   3.471   4.133   8.960 -0.1255  0.1253  0.0973
10635TIP3    H153396   3.448   4.053   9.007 -0.0533  0.0551  0.0154
10635TIP3    H253397   3.402   4.144   8.895 -0.3483  0.3488  0.3689
10636TIP3   OH253398   3.749   0.125  35.476  0.1480 -1.0585  0.6014
10636TIP3    H153399   3.732   0.168  35.392 -2.7622 -1.9633  0.5994
10636TIP3    H253400   3.728   0.033  35.460  1.1481 -1.5412  1.9163
10637TIP3   OH253401   3.453   1.907  28.807 -0.5685 -0.6235 -0.4739
10637TIP3    H153402   3.424   1.983  28.756  1.2637  1.3522  1.2741
10637TIP3    H253403   3.458   1.938  28.897  0.7503 -2.6717  0.2299
10638TIP3   OH253404   1.133   0.455  39.125  0.1227 -0.1191  0.4205
10638TIP3    H153405   1.113   0.477  39.034  1.2435  4.2673  0.9809
10638TIP3    H253406   1.229   0.446  39.127  0.4321  2.5391  1.4654
10639TIP3   OH253407   0.272   2.458  30.398 -0.5979  0.0796  0.1265
10639TIP3    H153408   0.182   2.426  30.399 -1.0446  1.3081  0.1148
10639TIP3    H253409   0.311   2.416  30.321 -0.6839 -1.6654  0.9800
10640TIP3   OH253410   1.773   1.410  34.888 -0.1602  1.0824  0.4503
10640TIP3    H153411   1.820   1.366  34.959 -1.6215 -0.4101  0.5763
10640TIP3    H253412   1.829   1.483  34.863  1.6531  0.0702  1.3376
10641TIP3   OH253413   4.284   0.563  25.157  0.2258 -0.3139  0.2420
10641TIP3    H153414   4.214   0.553  25.092 -0.0192  3.4456 -0.2469
10641TIP3    H253415   4.364   0.573  25.105  0.7861 -1.8410  0.7373
10642TIP3   OH253416   2.638   0.516   2.439  0.3311  0.0412  0.1747
10642TIP3    H153417   2.608   0.425   2.444 -2.4655  0.8917  1.0838
10642TIP3    H253418   2.600   0.548   2.357  0.2899  0.6844  0.4396
10643TIP3   OH253419   1.434   0.152  34.980  0.7128  0.6936  0.3321
10643TIP3    H153420   1.519   0.167  35.021  1.5262 -0.2265 -0.9167
10643TIP3    H253421   1.398   0.077  35.028  1.9307 -0.7762 -0.8961
10644TIP3   OH253422   0.238   2.298  23.240  0.6966 -0.4352 -0.1998
10644TIP3    H153423   0.199   2.211  23.243 -2.2351  0.7540 -0.7308
10644TIP3    H253424   0.241   2.327  23.331  0.6854 -0.6924 -0.1164
10645TIP3   OH253425   0.628   3.471  38.078  0.5527 -0.1583  0.3169
10645TIP3    H153426   0.615   3.458  38.172 -0.6587 -0.3605  0.1475
10645TIP3    H253427   0.606   3.386  38.040  0.3267  0.1325 -0.2010
10646TIP3   OH253428   2.205   0.090  38.768  0.2176 -0.1016 -0.1300
10646TIP3    H153429   2.274   0.077  38.833  0.7376  1.1571 -0.4043
10646TIP3    H253430   2.126   0.058  38.812  0.7504 -0.3515  0.6837
10647TIP3   OH253431   0.953   0.539  14.411 -0.2011  0.2594 -0.2971
10647TIP3    H153432   0.928   0.591  14.487  1.2071 -2.6813  2.4625
10647TIP3    H253433   1.001   0.599  14.355 -1.5194  2.6317  0.9654
10648TIP3   OH253434   0.340   1.153   5.547  0.2083 -0.1472  0.0183
10648TIP3    H153435   0.323   1.095   5.621  0.3332 -1.2597 -0.7914
10648TIP3    H253436   0.268   1.217   5.549  1.4220  1.2617  2.3877
10649TIP3   OH253437   3.614   0.450   9.457 -1.1047 -0.2624 -0.2276
10649TIP3    H153438   3.691   0.507   9.467 -1.6578  0.3011  1.0535
10649TIP3    H253439   3.547   0.506   9.419 -1.1499 -0.5235 -0.5397
10650TIP3   OH253440   2.710   0.715  38.469 -0.5534 -0.1840 -0.6132
10650TIP3    H153441   2.776   0.646  38.474 -0.2000  0.1744 -0.1981
10650TIP3    H253442   2.756   0.790  38.432 -0.8152 -0.0332 -0.6378
10651TIP3   OH253443   3.735   1.498  33.478  0.1457  0.7030 -0.2634
10651TIP3    H153444   3.667   1.527  33.539  0.7943  1.1358  0.2721
10651TIP3    H253445   3.809   1.474  33.534  0.0540 -0.8571 -0.7760
10652TIP3   OH253446   3.808   0.855  31.932  0.8433 -0.3092  0.1913
10652TIP3    H153447   3.870   0.816  31.995  1.7911 -1.3538 -1.3204
10652TIP3    H253448   3.787   0.783  31.872  0.3142  0.7738 -0.9526
10653TIP3   OH253449   0.537   0.402  37.744  0.1882  0.0445 -0.5576
10653TIP3    H153450   0.601   0.383  37.812  0.1917 -0.5955 -0.7246
10653TIP3    H253451   0.471   0.457  37.786  0.7939  0.6300 -0.3631
10654TIP3   OH253452   1.745   3.896  31.179 -0.1404 -0.1994  0.1850
10654TIP3    H153453   1.698   3.853  31.107  0.9941 -0.6320 -0.3195
10654TIP3    H253454   1.676   3.918  31.242 -1.1529  0.1147 -0.9830
10655TIP3   OH253455   0.626   3.422  17.122  0.1076  0.2053  0.1695
10655TIP3    H153456   0.623   3.405  17.216  1.0652  0.6150  0.2952
10655TIP3    H253457   0.661   3.341  17.084 -0.7256 -0.1301  0.1063
10656TIP3   OH253458   1.618   0.575  13.097  0.2706  0.0937  0.2680
10656TIP3    H153459   1.675   0.599  13.023  2.9319 -0.5553  1.9659
10656TIP3    H253460   1.569   0.655  13.116  0.1225  0.5007 -1.6606
10657TIP3   OH253461   4.216   3.979  29.582 -0.2497  0.4886 -0.0333
10657TIP3    H153462   4.192   4.071  29.594 -1.1999  0.2764 -0.2551
10657TIP3    H253463   4.149   3.944  29.523  2.2992  0.6561 -3.2743
10658TIP3   OH253464   1.069   4.003  18.499  0.4608  0.3929  0.3153
10658TIP3    H153465   1.144   4.053  18.531  0.9304 -0.6333  0.8603
10658TIP3    H253466   1.092   3.912  18.516 -0.9589  0.0691  0.5825
10659TIP3   OH253467   1.690   1.941   3.594  0.4476 -0.0781 -0.5508
10659TIP3    H153468   1.607   1.920   3.550  0.0446 -1.1646  0.6607
10659TIP3    H253469   1.748   1.868   3.572  0.5380 -0.1629 -0.0551
10660TIP3   OH253470   3.976   0.238  41.408 -0.0927 -0.2921 -0.0952
10660TIP3    H153471   4.017   0.201  41.330  1.3745 -0.1187  0.5531
10660TIP3    H253472   3.988   0.171  41.475  0.9028  0.5517  0.6030
10661TIP3   OH253473   1.793   1.999  30.570  0.4423 -0.0975 -0.3689
10661TIP3    H153474   1.849   1.925  30.592 -1.6397 -1.2361  1.3997
10661TIP3    H253475   1.741   1.969  30.496  1.2644  0.5377 -1.2379
10662TIP3   OH253476   0.269   1.917  39.328 -0.2060 -0.0680  0.3614
10662TIP3    H153477   0.340   1.866  39.288  0.0963 -0.2318  1.0931
10662TIP3    H253478   0.267   1.998  39.278 -0.5655 -0.7160 -0.6962
10663TIP3   OH253479   4.261   2.255  35.715  0.1992 -0.3522  0.5918
10663TIP3    H153480   4.277   2.289  35.627  0.8513  0.1116  0.8833
10663TIP3    H253481   4.251   2.160  35.703 -1.1179 -0.1396 -0.1656
10664TIP3   OH253482   1.564   2.446  31.118 -0.3867 -0.3083  0.4126
10664TIP3    H153483   1.643   2.404  31.084 -0.5092  1.4028 -2.3030
10664TIP3    H253484   1.595   2.504  31.188  1.0037  1.0304 -1.2193
10665TIP3   OH253485   0.699   2.566   4.315  0.1425  0.1499 -0.0258
10665TIP3    H153486   0.742   2.508   4.377 -1.3424  0.5886  1.4900
10665TIP3    H253487   0.768   2.591   4.254  1.5374 -0.7233  1.1277
10666TIP3   OH253488   0.323   2.130  39.146 -0.0230  0.4371 -0.2218
10666TIP3    H153489   0.326   2.165  39.057 -0.6036  0.5300 -0.2068
10666TIP3    H253490   0.332   2.208  39.202 -0.3256  0.4583 -0.1988
10667TIP3   OH253491   2.420   0.965   7.037  0.3616  0.0829 -0.2811
10667TIP3    H153492   2.502   1.014   7.044  0.3672 -0.0459  0.8069
10667TIP3    H253493   2.394   0.949   7.128 -0.0704 -1.2059 -0.6030
10668TIP3   OH253494   0.708   2.719  10.416  0.2519 -0.4301 -0.0355
10668TIP3    H153495   0.732   2.728  10.323  0.1624  2.8074  0.1381
10668TIP3    H253496   0.787   2.745  10.463 -0.1055 -0.8261  0.7920
10669TIP3   OH253497   2.950   2.054  26.444  0.1402  0.6708  0.3043
10669TIP3    H153498   2.885   2.082  26.508  0.4188  1.0593  0.4220
10669TIP3    H253499   2.981   1.969  26.476  1.7219  1.7379  1.8029
10670TIP3   OH253500   1.621   3.631  29.689 -0.0613  0.3203  0.6523
10670TIP3    H153501   1.616   3.678  29.606 -0.2809 -1.5475 -0.4410
10670TIP3    H253502   1.712   3.602  29.695 -0.5649 -1.5336 -0.1258
10671TIP3   OH253503   2.090   0.802  29.577  0.2828  0.0715 -0.2185
10671TIP3    H153504   2.048   0.730  29.531 -0.8384  0.5032  0.0922
10671TIP3    H253505   2.183   0.783  29.571  0.0836 -0.6668 -1.3460
10672TIP3   OH253506   1.058   0.990  15.110  0.2369  0.2782  0.1372
10672TIP3    H153507   1.106   0.947  15.180  0.6196 -0.1434 -0.3703
10672TIP3    H253508   1.064   0.929  15.036 -1.1528  0.1707  0.0777
10673TIP3   OH253509   3.423   2.170  10.322 -0.0495  0.1051 -0.4026
10673TIP3    H153510   3.473   2.097  10.359  1.0596  0.9091 -0.2713
10673TIP3    H253511   3.331   2.147  10.339  0.2734 -1.2036 -0.2797
10674TIP3   OH253512   1.368   3.464  40.177  0.0037  0.6866 -0.4178
10674TIP3    H153513   1.430   3.441  40.108 -0.6807  1.5975 -1.3659
10674TIP3    H253514   1.395   3.552  40.205  0.7912  0.0042  1.0900
10675TIP3   OH253515   0.268   1.356  39.534  0.3242 -0.3275 -0.1725
10675TIP3    H153516   0.267   1.319  39.446 -0.4727 -0.1694 -0.2334
10675TIP3    H253517   0.337   1.422  39.532  1.3018 -1.3175 -0.2558
10676TIP3   OH253518   0.708   3.352  36.446  0.2306 -0.0149 -0.0294
10676TIP3    H153519   0.662   3.419  36.395 -0.7638 -0.0367  0.7983
10676TIP3    H253520   0.687   3.270  36.401  2.1499  0.2596 -1.5452
10677TIP3   OH253521   2.395   2.758  34.971  0.1200 -0.1489  0.4555
10677TIP3    H153522   2.376   2.700  34.898  0.4496  0.6148 -0.2481
10677TIP3    H253523   2.478   2.800  34.949  0.8178 -0.7585  1.8110
10678TIP3   OH253524   2.961   1.538  12.282  0.1789  0.1326 -0.3493
10678TIP3    H153525   3.019   1.467  12.253  0.5075  0.3939 -0.3468
10678TIP3    H253526   3.008   1.577  12.356 -2.1768 -2.7215  2.9462
10679TIP3   OH253527   2.576   0.783  32.869 -0.3122  0.4440 -0.6039
10679TIP3    H153528   2.665   0.762  32.895  0.2697  2.1472 -1.0875
10679TIP3    H253529   2.582   0.802  32.775 -1.0676  1.0546 -0.5385
10680TIP3   OH253530   0.529   2.739   0.872 -0.9251 -0.0737 -0.5010
10680TIP3    H153531   0.530   2.798   0.796  0.4708  1.1655  0.4280
10680TIP3    H253532   0.620   2.713   0.884 -0.6078  1.8263  2.2169
10681TIP3   OH253533   3.287   3.408   7.864 -0.0802  0.0038  0.3430
10681TIP3    H153534   3.364   3.397   7.919 -0.8488  2.3314  2.0452
10681TIP3    H253535   3.316   3.464   7.792  0.0159  0.1686  0.5109
10682TIP3   OH253536   2.959   0.269   1.675  0.2752  0.4358 -0.3704
10682TIP3    H153537   3.007   0.248   1.595 -0.4223 -2.5087 -0.1409
10682TIP3    H253538   2.925   0.357   1.659  1.0401  0.3800 -2.8689
10683TIP3   OH253539   0.132   0.328  32.909  0.1130  0.5103 -0.2163
10683TIP3    H153540   0.141   0.419  32.937  1.5523  0.2024  0.4130
10683TIP3    H253541   0.146   0.277  32.989 -1.7493 -0.2795 -0.3333
10684TIP3   OH253542   1.927   2.519  36.000 -0.4652  0.5490  0.3736
10684TIP3    H153543   1.988   2.476  36.060  0.6757  1.1559 -0.3333
10684TIP3    H253544   1.842   2.479  36.021  0.4237 -1.5444  0.2221
10685TIP3   OH253545   1.484   0.686  32.975  0.5603 -0.1653  0.1647
10685TIP3    H153546   1.470   0.774  33.009  1.8437 -0.1017  0.5789
10685TIP3    H253547   1.396   0.650  32.963  0.0056  1.3370 -0.4910
10686TIP3   OH253548   3.002   3.523  37.661  0.6423  0.0410  0.0938
10686TIP3    H153549   2.958   3.541  37.743  0.3659 -0.8005  0.1435
10686TIP3    H253550   2.955   3.447  37.625  1.7901 -0.6347 -0.0331
10687TIP3   OH253551   2.135   2.294  12.035  0.3077 -0.3676 -0.6632
10687TIP3    H153552   2.098   2.280  12.122  0.0310 -2.0540 -1.0255
10687TIP3    H253553   2.101   2.379  12.007 -1.0577 -0.6305  0.1422
10688TIP3   OH253554   1.764   3.080  34.115  0.2882 -0.2923 -0.1856
10688TIP3    H153555   1.806   3.087  34.201  1.2690  1.6089 -0.7807
10688TIP3    H253556   1.685   3.134  34.123  0.0263 -0.6485 -0.3064
10689TIP3   OH253557   2.858   1.119  13.399 -0.3141 -0.2047  0.7662
10689TIP3    H153558   2.949   1.142  13.419 -0.1395 -1.5418  1.5947
10689TIP3    H253559   2.863   1.067  13.319 -0.2838 -0.8516  1.1910
10690TIP3   OH253560   4.136   2.419  35.474 -0.1203 -0.0106 -0.5046
10690TIP3    H153561   4.217   2.373  35.450  0.0436 -0.1856  0.3403
10690TIP3    H253562   4.118   2.477  35.400  0.7839  0.0363 -0.6970
10691TIP3   OH253563   3.097   4.185   2.982  0.2770 -0.5772 -0.2798
10691TIP3    H153564   3.143   4.196   2.899  1.2636  1.3704  0.4457
10691TIP3    H253565   3.056   4.271   2.998 -1.1863 -1.3861  0.5140
10692TIP3   OH253566   2.977   1.403   6.517 -0.1942  0.3883 -0.4447
10692TIP3    H153567   2.904   1.373   6.462 -1.8590  3.2852 -0.0073
10692TIP3    H253568   3.035   1.449   6.456 -0.7874  1.4784 -0.2097
10693TIP3   OH253569   0.401   4.396  20.778 -0.0134 -0.7576 -0.0211
10693TIP3    H153570   0.334   4.458  20.808 -0.7203 -0.8602 -1.3176
10693TIP3    H253571   0.481   4.425  20.822 -0.0768  1.7602 -1.3689
10694TIP3   OH253572   4.092   1.983  25.513  0.1269 -0.3977 -0.1909
10694TIP3    H153573   4.020   2.044  25.530 -2.2160 -2.7939 -0.8387
10694TIP3    H253574   4.106   1.989  25.418  1.3460  0.5243  0.0055
10695TIP3   OH253575   3.023   3.529   5.890  0.0616  0.2920  0.2028
10695TIP3    H153576   3.015   3.612   5.844 -1.1536  0.4949  0.7449
10695TIP3    H253577   3.071   3.550   5.969  0.0763  0.4053  0.1636
10696TIP3   OH253578   1.012   1.714  35.488  0.2454  0.0900  0.7443
10696TIP3    H153579   1.038   1.806  35.485 -0.2884  0.2240  0.0234
10696TIP3    H253580   1.035   1.686  35.577 -0.0619  1.0539  1.1423
10697TIP3   OH253581   0.200   0.037  37.519  0.4075  0.2893  0.0696
10697TIP3    H153582   0.201   0.058  37.426  1.8982  1.7247  0.3550
10697TIP3    H253583   0.293   0.027  37.542  0.0528 -0.2534  1.3604
10698TIP3   OH253584   2.797   1.294  27.430  0.1711  0.6259  0.3194
10698TIP3    H153585   2.744   1.357  27.477  0.6691  0.0851  1.6541
10698TIP3    H253586   2.802   1.218  27.488 -1.0966 -1.0145 -1.5785
10699TIP3   OH253587   0.551   0.961  28.176 -0.0186 -0.6148  0.4655
10699TIP3    H153588   0.614   0.964  28.105 -1.5858  0.5672 -0.9542
10699TIP3    H253589   0.575   0.882  28.225  0.1658 -2.4371 -2.3019
10700TIP3   OH253590   2.921   1.188  28.736  0.0752 -0.7623  0.4822
10700TIP3    H153591   2.853   1.256  28.743  2.1920  1.6615 -0.5917
10700TIP3    H253592   2.904   1.146  28.652 -0.1612 -0.2142  0.2459
10701TIP3   OH253593   2.178   0.958   6.334  0.3772  0.3140 -0.4749
10701TIP3    H153594   2.088   0.968   6.366  0.5248  0.6761 -0.1506
10701TIP3    H253595   2.178   1.003   6.250 -0.4088 -1.9789 -1.7837
10702TIP3   OH253596   1.698   3.939   4.023 -0.0301  0.1210 -0.6397
10702TIP3    H153597   1.745   3.980   3.950  0.6050 -2.1372 -1.5574
10702TIP3    H253598   1.719   3.846   4.016  1.4131 -0.0627  3.3532
10703TIP3   OH253599   0.384   4.284  36.156  0.2414  0.2968 -0.3718
10703TIP3    H153600   0.448   4.213  36.157  0.2084  0.2397 -1.2736
10703TIP3    H253601   0.375   4.309  36.248  1.3714  0.1431 -0.2016
10704TIP3   OH253602   1.501   2.551  15.946  0.3259 -0.3474  0.3172
10704TIP3    H153603   1.414   2.517  15.923  0.1621  0.5805 -0.5200
10704TIP3    H253604   1.494   2.646  15.933  1.3789 -0.2269  0.5321
10705TIP3   OH253605   2.390   0.324   4.162 -0.0817 -0.6644  0.8584
10705TIP3    H153606   2.486   0.315   4.155 -0.1822 -1.4251  0.3629
10705TIP3    H253607   2.356   0.271   4.090 -0.8696 -0.0324  0.7549
10706TIP3   OH253608   2.659   2.605  17.915 -0.1802 -0.0480  0.4696
10706TIP3    H153609   2.751   2.615  17.939 -0.0008 -2.9565  1.2577
10706TIP3    H253610   2.632   2.522  17.954 -2.5651 -0.3211 -1.5321
10707TIP3   OH253611   0.118   3.302  14.236 -0.1705  0.0802  0.0895
10707TIP3    H153612   0.130   3.396  14.244  0.1232  0.3497 -2.5086
10707TIP3    H253613   0.137   3.267  14.323 -1.6300  2.5020  1.4776
10708TIP3   OH253614   4.285   1.415   0.873  0.6945 -0.1642  0.0272
10708TIP3    H153615   4.284   1.321   0.856 -0.3227 -0.3061  0.8085
10708TIP3    H253616   4.233   1.427   0.952  0.2319  1.1274 -0.4290
10709TIP3   OH253617   4.060   3.338  40.802 -0.4506 -0.9569 -0.2677
10709TIP3    H153618   4.066   3.432  40.787 -1.5682 -1.0475 -1.3702
10709TIP3    H253619   4.119   3.300  40.737  1.2312 -0.9909  1.1908
10710TIP3   OH253620   1.669   2.617   7.380 -0.2752 -0.3410  0.3089
10710TIP3    H153621   1.695   2.529   7.352 -0.5290 -0.0637 -0.8244
10710TIP3    H253622   1.662   2.668   7.299 -0.7573  0.5568  0.8935
10711TIP3   OH253623   0.199   2.371  34.627  0.1917  0.2024 -0.3807
10711TIP3    H153624   0.252   2.355  34.704  0.3414 -0.5779 -0.6394
10711TIP3    H253625   0.161   2.286  34.605 -0.7133  0.6355 -0.5329
10712TIP3   OH253626   0.516   3.143  40.114  0.1452 -0.0111  0.0488
10712TIP3    H153627   0.421   3.143  40.098 -0.1452 -0.6422  1.5848
10712TIP3    H253628   0.547   3.223  40.071 -1.2271  0.6625  0.2354
10713TIP3   OH253629   1.475   1.037  33.834  0.1362 -0.3508  0.0112
10713TIP3    H153630   1.456   1.000  33.921  0.3585 -2.2929 -0.7231
10713TIP3    H253631   1.558   1.083  33.846 -0.6854  0.9260  1.2074
10714TIP3   OH253632   1.789   0.050   6.569  0.2327 -0.3465 -0.3949
10714TIP3    H153633   1.865   0.090   6.526  0.9404 -2.3298 -1.1216
10714TIP3    H253634   1.821   0.028   6.657  0.8187 -1.9621 -0.9844
10715TIP3   OH253635   1.981   0.323  30.646 -0.0294  0.4349 -0.4411
10715TIP3    H153636   2.018   0.251  30.595 -3.5005 -1.7766 -0.1390
10715TIP3    H253637   2.004   0.304  30.736 -1.6267 -0.8800 -0.2661
10716TIP3   OH253638   3.270   1.199  35.798 -0.3891 -0.1113  0.2170
10716TIP3    H153639   3.215   1.181  35.722  0.9503 -0.4199 -0.7076
10716TIP3    H253640   3.241   1.135  35.864 -2.8580  1.3686  0.7270
10717TIP3   OH253641   1.867   1.824  39.768  0.2710 -0.1434  0.0825
10717TIP3    H153642   1.932   1.753  39.759 -1.0336 -1.2180 -1.5299
10717TIP3    H253643   1.916   1.896  39.806  2.7227 -0.5474 -1.9928
10718TIP3   OH253644   2.640   4.341  11.511 -0.4096 -0.2458  0.1456
10718TIP3    H153645   2.654   4.261  11.461 -1.4665 -1.2401  1.3694
10718TIP3    H253646   2.574   4.389  11.462  1.0657  0.4833 -1.2146
10719TIP3   OH253647   3.662   1.774  40.285  0.3622  0.1710  0.1934
10719TIP3    H153648   3.581   1.814  40.252  1.0710  1.5194  0.0424
10719TIP3    H253649   3.634   1.688  40.318 -0.8430 -0.1014 -1.4048
10720TIP3   OH253650   0.585   3.411  12.064  0.4932  0.0007 -0.2163
10720TIP3    H153651   0.653   3.472  12.092 -1.5401  1.9384  0.8716
10720TIP3    H253652   0.573   3.352  12.138 -0.2375  0.8308  0.3420
10721TIP3   OH253653   2.791   3.456  30.687 -0.3855  0.3712  0.5621
10721TIP3    H153654   2.791   3.493  30.776 -1.0535 -0.5485  0.9606
10721TIP3    H253655   2.705   3.415  30.678  0.0651 -0.4517 -0.1334
10722TIP3   OH253656   3.274   1.550   0.719 -0.1032 -0.5311 -0.0971
10722TIP3    H153657   3.308   1.631   0.682 -0.6028 -1.3962 -2.6404
10722TIP3    H253658   3.224   1.510   0.648  0.7561 -3.4533  0.8091
10723TIP3   OH253659   1.009   1.150  29.156  0.5589  0.2844  0.1425
10723TIP3    H153660   0.986   1.171  29.247 -3.2512 -0.4871 -0.5015
10723TIP3    H253661   1.030   1.235  29.117 -0.2457  0.9742  1.1399
10724TIP3   OH253662   1.410   2.088   5.749  0.6399 -1.1285  0.1867
10724TIP3    H153663   1.442   2.012   5.798  2.2554 -0.8288 -0.3604
10724TIP3    H253664   1.460   2.086   5.667 -1.0386 -0.8527 -0.9014
10725TIP3   OH253665   0.052   0.498   3.921 -0.1859  0.4287 -0.1582
10725TIP3    H153666   0.145   0.481   3.910 -0.3556 -0.2888 -0.5607
10725TIP3    H253667   0.027   0.448   3.999 -0.5331 -0.6136 -0.9167
10726TIP3   OH253668   3.810   1.333  34.276  0.1308  0.0848 -0.4057
10726TIP3    H153669   3.893   1.373  34.301  0.0440 -0.6889  1.3132
10726TIP3    H253670   3.833   1.245  34.248 -0.1062 -0.2496  0.4012
10727TIP3   OH253671   3.015   2.540   0.478  0.3099  0.1656 -0.6905
10727TIP3    H153672   3.026   2.448   0.454 -1.9779  0.0141 -1.3622
10727TIP3    H253673   2.943   2.571   0.423  0.3078  2.0669  0.2985
10728TIP3   OH253674   1.248   2.159  10.394 -0.0778  0.0034 -0.1882
10728TIP3    H153675   1.330   2.180  10.350 -0.8907  0.4586 -1.5418
10728TIP3    H253676   1.275   2.120  10.478  1.5378 -1.2823 -1.2317
10729TIP3   OH253677   2.044   3.514   7.764  0.0042 -0.5213  0.0882
10729TIP3    H153678   1.975   3.490   7.825  0.2960 -1.2059  0.1602
10729TIP3    H253679   2.125   3.505   7.815  0.1161  0.9129  0.2056
10730TIP3   OH253680   0.638   0.649  30.298 -0.5327 -0.4571  0.3620
10730TIP3    H153681   0.669   0.584  30.361  0.7766  0.8464  1.1445
10730TIP3    H253682   0.615   0.599  30.220  0.3112 -1.8568  0.9799
10731TIP3   OH253683   4.023   3.671  36.438  0.4895  0.0907 -0.3843
10731TIP3    H153684   4.018   3.725  36.358 -0.4123  2.3241  1.0866
10731TIP3    H253685   4.097   3.708  36.486 -0.5600  0.4844  0.9631
10732TIP3   OH253686   2.798   2.970  39.116 -0.1534  0.0551  0.8204
10732TIP3    H153687   2.803   3.046  39.058  0.6692  0.5769  1.5499
10732TIP3    H253688   2.888   2.942  39.127 -0.4066 -0.7111  0.9691
10733TIP3   OH253689   3.223   3.334  13.171  0.7425  0.2639  0.3975
10733TIP3    H153690   3.293   3.276  13.141 -0.8255 -1.2069 -0.5787
10733TIP3    H253691   3.269   3.411  13.206  2.8153 -0.4904 -0.5109
10734TIP3   OH253692   0.189   0.699  10.015 -0.1002 -0.5455  0.1030
10734TIP3    H153693   0.093   0.693  10.019 -0.1529  0.5805  1.8846
10734TIP3    H253694   0.219   0.624  10.065 -0.0995 -0.2524  0.5506
10735TIP3   OH253695   3.324   0.547  38.131  0.0966 -0.2645 -0.1033
10735TIP3    H153696   3.389   0.504  38.186 -0.2218 -1.1917 -0.4231
10735TIP3    H253697   3.241   0.531  38.176 -0.0255  0.0030 -0.2336
10736TIP3   OH253698   2.700   1.696  31.074  0.2791 -0.2877  0.5747
10736TIP3    H153699   2.784   1.663  31.108  0.2746 -0.6502  0.2435
10736TIP3    H253700   2.658   1.736  31.150  1.5075  1.4761  0.3627
10737TIP3   OH253701   1.567   3.492  12.889 -0.0660  0.4316  0.4912
10737TIP3    H153702   1.571   3.406  12.846  0.8676  0.9943 -0.5903
10737TIP3    H253703   1.549   3.471  12.981 -0.2203 -0.9043  0.1828
10738TIP3   OH253704   0.417   3.048  28.263 -0.1692 -0.3203 -0.2518
10738TIP3    H153705   0.396   3.119  28.202  1.4640  0.0271 -0.4465
10738TIP3    H253706   0.433   3.092  28.346 -0.4994 -0.6112 -0.0305
10739TIP3   OH253707   1.698   3.443   0.985  0.3775  0.6325 -0.4752
10739TIP3    H153708   1.623   3.495   1.013 -0.0255  0.3603 -1.0388
10739TIP3    H253709   1.669   3.398   0.906  1.6239  1.6934 -1.5772
10740TIP3   OH253710   2.691   0.051  34.582  0.5642  0.4136  0.5727
10740TIP3    H153711   2.672   0.136  34.542  0.1913  1.6673  3.1693
10740TIP3    H253712   2.775   0.064  34.625 -0.5274  0.2820  2.8842
10741TIP3   OH253713   0.663   0.447  30.028  0.8386  0.1487 -0.5748
10741TIP3    H153714   0.743   0.410  29.992  1.1653  0.3217 -0.0332
10741TIP3    H253715   0.650   0.529  29.980  1.7398  0.8071  0.2801
10742TIP3   OH253716   2.186   3.869  38.159 -0.5851  0.0349 -0.7025
10742TIP3    H153717   2.228   3.782  38.162  1.1442  0.8583  1.2977
10742TIP3    H253718   2.259   3.930  38.150 -1.6048  1.3769 -0.1473
10743TIP3   OH253719   3.230   3.117  10.980 -0.2529  0.1261  0.0415
10743TIP3    H153720   3.162   3.053  11.002  1.5930 -2.9132 -2.2130
10743TIP3    H253721   3.284   3.122  11.059 -1.8470  0.9878  1.1300
10744TIP3   OH253722   2.022   4.216   3.458 -0.3932  0.0690 -0.3872
10744TIP3    H153723   2.040   4.231   3.365  0.0309  3.8643  0.1252
10744TIP3    H253724   2.108   4.217   3.499 -0.6259 -0.9011  0.1355
10745TIP3   OH253725   2.176   1.739  11.136 -0.1640 -0.0238  0.1088
10745TIP3    H153726   2.233   1.678  11.089 -0.6687 -1.0864  0.8166
10745TIP3    H253727   2.233   1.810  11.163  0.0758  0.8591 -2.4420
10746TIP3   OH253728   0.046   2.567  41.123 -0.1826  0.2520 -0.1555
10746TIP3    H153729  -0.024   2.579  41.188  0.1456 -0.1642  0.2780
10746TIP3    H253730  -0.001   2.552  41.041 -0.6118  2.0653 -0.2802
10747TIP3   OH253731   3.629   0.912  29.489  0.5324  0.5629  0.2523
10747TIP3    H153732   3.720   0.885  29.504  0.4294 -0.0002 -0.0805
10747TIP3    H253733   3.579   0.866  29.557  0.1301 -1.5845 -1.3571
10748TIP3   OH253734   0.345   3.597  32.134  0.1910 -0.1927  0.3940
10748TIP3    H153735   0.315   3.663  32.196 -2.4396  0.4252 -1.3769
10748TIP3    H253736   0.368   3.522  32.189  1.2533  1.4334  2.3040
10749TIP3   OH253737   2.088   2.282  16.023  0.3622  0.6579 -0.1162
10749TIP3    H153738   2.121   2.369  16.000 -2.3219  1.2159 -2.4387
10749TIP3    H253739   2.011   2.299  16.077 -0.2195 -0.2466 -0.6304
10750TIP3   OH253740   2.924   3.710   6.699 -0.6361 -0.1226 -0.8234
10750TIP3    H153741   2.913   3.619   6.725 -2.0799 -0.0081 -0.9697
10750TIP3    H253742   2.888   3.715   6.611  2.2154 -0.0192 -2.1205
10751TIP3   OH253743   0.529   1.024   4.475 -0.4481  0.4679 -0.8133
10751TIP3    H153744   0.543   0.929   4.470 -0.9099  0.4083 -1.0764
10751TIP3    H253745   0.547   1.056   4.387  1.2003  0.8527 -0.3700
10752TIP3   OH253746   1.581   1.580   9.082  0.0924 -0.3375 -0.1797
10752TIP3    H153747   1.586   1.570   8.987  1.0119  1.6163 -0.3822
10752TIP3    H253748   1.672   1.573   9.111  0.6389  4.2739 -0.1380
10753TIP3   OH253749   1.025   3.313  40.510 -0.3199 -0.5384  0.6855
10753TIP3    H153750   1.098   3.321  40.448  0.2483  2.6597  1.6091
10753TIP3    H253751   0.949   3.293  40.455  0.4302  0.7033 -0.8781
10754TIP3   OH253752   4.061   1.557  36.075  0.5749  0.3156 -0.3003
10754TIP3    H153753   4.011   1.485  36.115 -0.5289  0.1563 -1.8671
10754TIP3    H253754   4.146   1.519  36.054 -0.7721 -1.4406 -3.3895
10755TIP3   OH253755   3.977   2.427  34.023 -0.1681  0.2825  0.2192
10755TIP3    H153756   3.948   2.501  33.971 -1.2422 -0.5557 -0.4077
10755TIP3    H253757   3.943   2.445  34.111 -2.6443 -0.6396 -0.4761
10756TIP3   OH253758   3.774   0.435  25.028 -0.6563  0.4275  0.1716
10756TIP3    H153759   3.699   0.385  25.061 -1.5470  0.6006 -1.4891
10756TIP3    H253760   3.772   0.421  24.933  3.3424 -2.2175  0.2605
10757TIP3   OH253761   2.635   2.881  34.885  0.7262  0.8190  0.2462
10757TIP3    H153762   2.596   2.946  34.827 -2.9677 -1.8353 -0.6285
10757TIP3    H253763   2.717   2.858  34.842  2.1764  4.6704  0.5963
10758TIP3   OH253764   2.291   3.436  37.815 -0.4376  0.2232 -0.0850
10758TIP3    H153765   2.297   3.356  37.763 -1.1694  0.0913  0.0218
10758TIP3    H253766   2.247   3.499  37.757  3.2380  1.7190 -1.5107
10759TIP3   OH253767   3.908   2.669  38.432  0.3297  0.2650  0.2153
10759TIP3    H153768   3.960   2.593  38.407 -0.2006 -0.6646  1.7674
10759TIP3    H253769   3.834   2.669  38.371 -0.8412 -1.8340  1.4938
10760TIP3   OH253770   1.962   4.103  17.716 -0.2773 -0.3388 -0.4785
10760TIP3    H153771   1.879   4.056  17.721 -0.9596  0.8819  0.4295
10760TIP3    H253772   1.999   4.095  17.804  0.1251 -0.1123 -0.6276
10761TIP3   OH253773   0.658   0.233   3.803 -0.2729 -0.3217  0.2278
10761TIP3    H153774   0.684   0.305   3.861  1.0996 -0.8858  0.3543
10761TIP3    H253775   0.681   0.153   3.852 -1.0557 -0.8387 -0.2284
10762TIP3   OH253776   3.548   2.842  36.300 -0.0616 -0.4714  0.6900
10762TIP3    H153777   3.460   2.878  36.303 -0.2911 -0.7130 -1.5305
10762TIP3    H253778   3.541   2.766  36.243  1.7032 -0.0593 -0.1626
10763TIP3   OH253779   3.456   0.747  40.600  0.1335 -0.3410 -0.1661
10763TIP3    H153780   3.422   0.658  40.608  0.7400 -0.4654  1.6127
10763TIP3    H253781   3.381   0.803  40.621 -0.0475 -0.4562 -0.4994
10764TIP3   OH253782   4.302   0.907  32.922  0.3725 -0.2134 -0.2379
10764TIP3    H153783   4.264   0.855  32.850 -0.5205  0.8594 -0.5725
10764TIP3    H253784   4.396   0.897  32.912  0.2654  0.0822 -1.6947
10765TIP3   OH253785   1.824   2.940  12.508  0.4311  0.4956  0.2095
10765TIP3    H153786   1.846   2.993  12.585  2.1240 -1.1043  0.8958
10765TIP3    H253787   1.874   2.980  12.437  1.2354  0.1826  0.5942
10766TIP3   OH253788   0.698   3.867  14.522  0.3228 -0.4446  0.2567
10766TIP3    H153789   0.724   3.775  14.529  0.8476 -0.7036 -3.3105
10766TIP3    H253790   0.780   3.913  14.504 -0.1835  0.4709  0.2449
10767TIP3   OH253791   0.057   3.366  32.867  0.5790  0.3360  0.6724
10767TIP3    H153792   0.130   3.422  32.892 -1.0631  2.0993  1.7513
10767TIP3    H253793   0.089   3.319  32.790  2.5543  1.6314  0.6168
10768TIP3   OH253794   3.117   3.176  38.059  0.3209  0.8296 -0.6237
10768TIP3    H153795   3.023   3.169  38.074 -0.0020  2.0059 -1.8814
10768TIP3    H253796   3.141   3.262  38.094  1.3374 -0.2232  1.4257
10769TIP3   OH253797   2.284   1.125  17.313 -0.6294  0.6724  0.0988
10769TIP3    H153798   2.226   1.188  17.269 -1.6411 -1.2998 -1.5802
10769TIP3    H253799   2.317   1.070  17.242  0.6216 -0.3894  1.4498
10770TIP3   OH253800   2.781   3.459  12.074 -0.8021 -0.0175 -0.0522
10770TIP3    H153801   2.741   3.459  12.161  0.6365  2.1134  0.7007
10770TIP3    H253802   2.833   3.539  12.072  0.7234 -0.9659 -2.1967
10771TIP3   OH253803   2.498   3.849  28.614 -0.5310  0.4394  0.1605
10771TIP3    H153804   2.436   3.910  28.574 -0.8459 -1.1681 -2.0124
10771TIP3    H253805   2.443   3.782  28.654 -0.1837  1.1927  1.9793
10772TIP3   OH253806   0.171   2.004   4.301 -0.1191  0.8132  1.0609
10772TIP3    H153807   0.189   1.940   4.232  1.8029  0.8076  1.5138
10772TIP3    H253808   0.089   1.975   4.340 -1.3417  0.8892 -1.2744
10773TIP3   OH253809   0.643   1.737  33.252 -0.3103 -0.0797 -0.3434
10773TIP3    H153810   0.716   1.761  33.309 -0.4239  0.2673 -0.3390
10773TIP3    H253811   0.635   1.642  33.261  0.5686 -0.2165 -0.8483
10774TIP3   OH253812   2.565   3.962  32.026  0.4680 -0.1150  0.1063
10774TIP3    H153813   2.496   3.931  31.967 -0.8183  2.0707  0.3232
10774TIP3    H253814   2.526   3.955  32.113  0.9663  0.0316  0.3453
10775TIP3   OH253815   2.239   1.693  29.650  0.7452  0.0355  0.3064
10775TIP3    H153816   2.173   1.757  29.624  1.1235  0.7189  0.9856
10775TIP3    H253817   2.315   1.714  29.596  0.6004 -0.3842 -0.0661
10776TIP3   OH253818   0.401   0.001   0.598  0.0083  0.6649 -0.1389
10776TIP3    H153819   0.431   0.070   0.539 -0.3656  0.5537 -0.4646
10776TIP3    H253820   0.305   0.006   0.593 -0.0294 -0.2503 -0.6156
10777TIP3   OH253821   2.454   1.397  33.990 -0.3884 -0.3484  0.0756
10777TIP3    H153822   2.408   1.314  33.974  1.9657 -1.5644 -0.7716
10777TIP3    H253823   2.546   1.372  34.001  0.1613  1.9990  1.5260
10778TIP3   OH253824   2.759   0.548  34.870 -0.2929  0.2458 -0.8270
10778TIP3    H153825   2.769   0.628  34.921  2.8832  0.7893 -2.0964
10778TIP3    H253826   2.784   0.478  34.930 -1.0137  0.4007 -0.3322
10779TIP3   OH253827   4.346   0.188   8.833  0.1359 -0.1325  0.3261
10779TIP3    H153828   4.363   0.219   8.744 -0.6714 -0.6134 -0.0050
10779TIP3    H253829   4.253   0.165   8.833 -0.7346  2.8410  2.1975
10780TIP3   OH253830   1.737   4.346  28.799 -0.6497 -0.1706 -0.2132
10780TIP3    H153831   1.713   4.358  28.891  0.0193  0.0103 -0.0557
10780TIP3    H253832   1.765   4.433  28.770  1.2915 -0.6374  0.0635
10781TIP3   OH253833   4.141   0.579   8.568 -0.2413 -0.2100  0.0411
10781TIP3    H153834   4.178   0.556   8.653  0.8288 -0.8288 -0.5764
10781TIP3    H253835   4.099   0.499   8.537 -0.5177 -0.0245 -0.0719
10782TIP3   OH253836   3.256   0.521  37.781  0.4821 -0.0070  0.1331
10782TIP3    H153837   3.250   0.520  37.877 -2.7119 -0.8397  0.0208
10782TIP3    H253838   3.260   0.428  37.757 -2.0287  0.0175 -0.5903
10783TIP3   OH253839   0.452   0.223  31.358 -0.4954  0.2880  0.0029
10783TIP3    H153840   0.525   0.250  31.413 -0.3121 -0.4855  0.1552
10783TIP3    H253841   0.491   0.210  31.271 -0.3594 -0.5195  0.1762
10784TIP3   OH253842   2.927   4.074   4.832  0.1757 -0.1000 -0.0457
10784TIP3    H153843   2.847   4.042   4.873  0.8162 -0.7815  0.7152
10784TIP3    H253844   2.899   4.106   4.746 -1.1356  0.9979  0.7466
10785TIP3   OH253845   0.049   0.403   7.609 -0.0411  0.3937 -0.2900
10785TIP3    H153846   0.101   0.477   7.641 -1.7879  1.2207  0.7864
10785TIP3    H253847  -0.035   0.442   7.583 -0.6090 -1.0625 -0.7301
10786TIP3   OH253848   1.252   1.411  37.487 -0.5313  0.6769 -0.9249
10786TIP3    H153849   1.250   1.391  37.581  0.1427  0.4835 -0.9489
10786TIP3    H253850   1.343   1.401  37.462 -0.6121  1.2864 -1.4878
10787TIP3   OH253851   3.019   2.698  36.012  0.1595  0.0329 -0.5175
10787TIP3    H153852   3.036   2.779  36.060 -2.1430  0.2272  0.0841
10787TIP3    H253853   3.061   2.711  35.928 -0.4047  2.0155 -0.5417
10788TIP3   OH253854   2.490   3.866   8.504  0.1025  0.0309 -0.0350
10788TIP3    H153855   2.534   3.824   8.578 -1.4156  0.2473  1.0523
10788TIP3    H253856   2.553   3.931   8.472  1.3506 -1.0689  0.1169
10789TIP3   OH253857   1.672   3.739  33.714 -0.1812 -0.1361 -0.8695
10789TIP3    H153858   1.670   3.789  33.796  1.5986 -0.6223 -0.4771
10789TIP3    H253859   1.580   3.719  33.696 -0.5972 -0.6607  1.4256
10790TIP3   OH253860   0.433   3.614   2.236 -0.7881 -0.0777  0.3556
10790TIP3    H153861   0.486   3.608   2.316  0.2490 -0.9664 -0.3595
10790TIP3    H253862   0.476   3.683   2.185 -0.9303 -0.1003  0.2065
10791TIP3   OH253863   2.485   3.369  39.024 -0.0829 -0.2469 -0.3060
10791TIP3    H153864   2.444   3.359  39.110 -0.5803  0.6578 -0.4277
10791TIP3    H253865   2.481   3.281  38.986 -1.5259 -0.2854 -0.1338
10792TIP3   OH253866   3.767   0.651  27.516 -0.2990  0.2269  0.1413
10792TIP3    H153867   3.711   0.575  27.499 -0.6319  0.1297  1.5386
10792TIP3    H253868   3.707   0.725  27.521 -0.0775  0.4405 -0.2531
10793TIP3   OH253869   2.228   2.139   2.277  0.0295 -0.5005 -0.3973
10793TIP3    H153870   2.310   2.108   2.239  0.0626 -1.0005  0.0768
10793TIP3    H253871   2.163   2.122   2.209  0.4823  0.9858 -1.2569
10794TIP3   OH253872   2.072   0.748  19.177  0.1571  0.2847 -0.9399
10794TIP3    H153873   2.064   0.801  19.097 -0.9612  1.4371 -0.0972
10794TIP3    H253874   2.166   0.733  19.186  0.3454  0.5350 -2.2007
10795TIP3   OH253875   4.109   2.928  23.668  0.4122 -0.3187 -0.1333
10795TIP3    H153876   4.158   2.979  23.604 -0.4069  0.0132 -0.5238
10795TIP3    H253877   4.048   2.876  23.616 -0.9463  0.6829  0.3970
10796TIP3   OH253878   3.841   2.576   9.443  0.4197  0.1798  0.2777
10796TIP3    H153879   3.757   2.619   9.432 -0.2011 -1.3078 -1.2200
10796TIP3    H253880   3.903   2.632   9.397 -0.1333  0.2345 -0.4242
10797TIP3   OH253881   2.929   0.981   3.932 -0.4409  0.3575  0.1562
10797TIP3    H153882   2.890   1.043   3.870 -1.6989  1.7486  2.2025
10797TIP3    H253883   3.019   0.971   3.904 -1.0438  0.6403 -2.0660
10798TIP3   OH253884   1.184   2.547  40.971  0.4604 -0.0733 -0.3016
10798TIP3    H153885   1.092   2.550  40.997  0.8563  1.2261  1.0983
10798TIP3    H253886   1.220   2.471  41.016  0.0997 -0.5754 -0.8398
10799TIP3   OH253887   2.125   3.144  28.226 -0.1775 -0.3156  0.1352
10799TIP3    H153888   2.032   3.122  28.230 -0.3841 -0.1329 -2.4860
10799TIP3    H253889   2.128   3.231  28.187  1.0554  0.7875  2.4314
10800TIP3   OH253890   3.840   0.371  34.144 -0.0016  0.1204  0.2352
10800TIP3    H153891   3.868   0.310  34.212  0.2988 -1.9801 -1.6791
10800TIP3    H253892   3.751   0.345  34.123  0.2414  0.1269 -0.8349
10801TIP3   OH253893   0.167   3.589  32.965 -0.1848  0.1946 -0.2717
10801TIP3    H153894   0.182   3.618  32.875  0.7447 -0.0409 -0.2002
10801TIP3    H253895   0.080   3.624  32.987  0.6193  2.4667 -0.3745
10802TIP3   OH253896   1.108   3.067  31.241 -0.8801 -0.0279  0.6506
10802TIP3    H153897   1.090   3.092  31.151 -1.1980 -0.9551  0.4442
10802TIP3    H253898   1.180   3.005  31.235 -0.3944  0.4837  1.1073
10803TIP3   OH253899   0.885   1.245  30.814  0.7627  0.1321  0.1367
10803TIP3    H153900   0.961   1.253  30.757  0.4983 -0.8846 -0.3891
10803TIP3    H253901   0.864   1.335  30.840  1.3907  0.5339 -0.7046
10804TIP3   OH253902   3.530   1.544  11.156  0.0283  0.0416 -0.4488
10804TIP3    H153903   3.458   1.483  11.137 -0.3274  0.0635  0.7493
10804TIP3    H253904   3.515   1.571  11.246  1.0592  0.7288 -0.4685
10805TIP3   OH253905   3.606   2.221   6.846  0.6520  0.8483  0.1915
10805TIP3    H153906   3.511   2.207   6.850  0.5163  1.5506 -0.2854
10805TIP3    H253907   3.616   2.298   6.789  1.6747 -1.4092 -3.0141
10806TIP3   OH253908   1.844   1.440  32.031 -0.3788  0.3666  0.3757
10806TIP3    H153909   1.870   1.365  31.978  0.5232  0.3921  0.7722
10806TIP3    H253910   1.752   1.423  32.053 -0.1432 -0.6914  0.5848
10807TIP3   OH253911   2.351   2.058  30.242 -0.0876 -0.5672  0.1055
10807TIP3    H153912   2.378   1.982  30.293  1.6972  0.5245  0.8887
10807TIP3    H253913   2.329   2.022  30.156  0.7693 -1.9660  0.4283
10808TIP3   OH253914   1.293   2.484   3.597  0.2355 -0.1887  0.0071
10808TIP3    H153915   1.305   2.479   3.692  1.8856 -1.4940 -0.2261
10808TIP3    H253916   1.228   2.415   3.578  0.1328 -0.1307  0.1421
10809TIP3   OH253917   3.143   4.332   5.575  0.1135 -0.2151  0.2081
10809TIP3    H153918   3.140   4.389   5.651  2.7689  0.2893  0.0177
10809TIP3    H253919   3.062   4.351   5.528 -1.5143 -0.4117  2.7333
10810TIP3   OH253920   3.299   2.495  26.333  0.6074  0.1572  0.4814
10810TIP3    H153921   3.242   2.418  26.321  0.4705  0.1421  1.2047
10810TIP3    H253922   3.340   2.507  26.247  0.6991 -0.7755  0.3824
10811TIP3   OH253923   1.543   4.091   3.102 -0.2354  0.8472 -0.2424
10811TIP3    H153924   1.524   4.185   3.105  1.1754  1.1840  3.7506
10811TIP3    H253925   1.459   4.049   3.119 -0.4120  1.5018  0.5284
10812TIP3   OH253926   3.303   2.211   8.466  0.2196 -0.0040 -0.5864
10812TIP3    H153927   3.325   2.161   8.544  0.3570 -0.0089 -0.6274
10812TIP3    H253928   3.259   2.289   8.499 -2.5609 -1.4363 -0.6345
10813TIP3   OH253929   0.550   3.906  22.802 -0.7733 -0.0809  0.2279
10813TIP3    H153930   0.471   3.884  22.852  0.4946 -2.4758  1.3667
10813TIP3    H253931   0.605   3.954  22.865  0.1228 -1.6033  0.6527
10814TIP3   OH253932   3.589   1.866  37.710  0.3445  0.3991  0.0531
10814TIP3    H153933   3.550   1.791  37.665  0.5989  0.6818 -0.6609
10814TIP3    H253934   3.516   1.928  37.720  0.4847  0.7243 -0.8371
10815TIP3   OH253935   3.007   0.574   8.172  0.2869  0.1046  0.4624
10815TIP3    H153936   3.100   0.576   8.196  0.1419 -0.3192  1.0815
10815TIP3    H253937   2.967   0.641   8.228 -0.1866 -1.4324  2.0625
10816TIP3   OH253938   3.209   2.353   0.972  0.2450 -0.1947 -0.6247
10816TIP3    H153939   3.172   2.441   0.969  0.7813 -0.0082 -2.5671
10816TIP3    H253940   3.290   2.359   0.922  0.1716 -1.8407 -0.9941
10817TIP3   OH253941   3.934   3.023  40.795  0.2878 -0.6760 -0.2508
10817TIP3    H153942   3.848   3.053  40.824 -0.4494 -1.5194 -1.4903
10817TIP3    H253943   3.977   3.101  40.761 -0.4757 -0.4685 -0.7590
10818TIP3   OH253944   0.557   2.058   1.298 -0.5978  0.2014  0.2228
10818TIP3    H153945   0.484   2.014   1.255 -0.7625  1.6394 -1.0280
10818TIP3    H253946   0.546   2.150   1.277  0.3234  0.7430  1.9125
10819TIP3   OH253947   2.234   1.010   2.229 -0.4349 -0.1762 -0.8963
10819TIP3    H153948   2.238   1.019   2.324  0.0210 -2.0334 -0.7065
10819TIP3    H253949   2.291   1.080   2.196 -1.2309  1.0031  0.1365
10820TIP3   OH253950   0.016   3.997  38.572 -0.3397  0.0891  0.0474
10820TIP3    H153951  -0.001   4.031  38.660  0.7980  0.9244 -0.0417
10820TIP3    H253952   0.086   3.932  38.584 -1.6182 -1.3690  0.0322
10821TIP3   OH253953   4.314   3.722  27.685  0.6326 -0.0713 -0.0980
10821TIP3    H153954   4.232   3.701  27.641  0.8584 -2.0044  0.2943
10821TIP3    H253955   4.382   3.693  27.624  1.1167  2.5961 -0.9417
10822TIP3   OH253956   1.791   1.342  19.081 -0.3064 -0.0416 -0.3727
10822TIP3    H153957   1.863   1.402  19.059 -0.3357  0.2068  0.1819
10822TIP3    H253958   1.831   1.255  19.077  0.3301  0.1550  1.0058
10823TIP3   OH253959   2.549   2.683  27.436 -0.7850 -0.1257 -0.0837
10823TIP3    H153960   2.540   2.606  27.492  0.2961  1.2225  2.0566
10823TIP3    H253961   2.482   2.744  27.467  0.7202  1.1754  0.7618
10824TIP3   OH253962   3.547   2.443   6.560 -0.1818  0.0133 -0.2621
10824TIP3    H153963   3.533   2.439   6.465 -1.5878 -0.3412 -0.0625
10824TIP3    H253964   3.522   2.356   6.591  1.6503 -0.3668  0.2989
10825TIP3   OH253965   3.018   3.338   2.921 -0.2433  0.3733  0.0216
10825TIP3    H153966   3.005   3.251   2.884  0.3448 -0.3864  1.5363
10825TIP3    H253967   3.112   3.356   2.912 -0.0209  0.0315  1.3685
10826TIP3   OH253968   0.022   2.744  28.454 -0.1313  0.2132 -0.5902
10826TIP3    H153969   0.086   2.800  28.411  2.2235 -2.1682 -0.5235
10826TIP3    H253970   0.054   2.738  28.545 -0.1787 -1.3182 -0.6511
10827TIP3   OH253971   3.408   3.993  34.767  0.3357  0.0640  0.2336
10827TIP3    H153972   3.391   3.933  34.839 -0.2269 -0.8076 -0.5883
10827TIP3    H253973   3.321   4.021  34.738  0.6014  2.2195  1.3295
10828TIP3   OH253974   1.154   2.085  34.431  0.7951 -0.3488 -0.2900
10828TIP3    H153975   1.151   2.176  34.402 -0.9627 -0.7287 -1.4572
10828TIP3    H253976   1.157   2.034  34.350 -0.4155 -1.3675  0.2754
10829TIP3   OH253977   0.795   2.310   0.511 -0.5046  0.0602 -0.4864
10829TIP3    H153978   0.769   2.220   0.528 -1.1122  0.3726  0.3291
10829TIP3    H253979   0.888   2.313   0.533 -0.5721 -0.2778 -0.1450
10830TIP3   OH253980   1.515   3.646  40.823 -0.4387  1.1489  0.1963
10830TIP3    H153981   1.501   3.702  40.900 -0.5986  0.4356  0.7001
10830TIP3    H253982   1.455   3.572  40.836  0.7595  0.1593  0.2593
10831TIP3   OH253983   0.760   3.721  33.353 -0.0605 -0.1807 -0.7628
10831TIP3    H153984   0.724   3.789  33.409  0.7270  0.5785 -1.1690
10831TIP3    H253985   0.689   3.657  33.344 -0.5821  0.2585  0.1415
10832TIP3   OH253986   2.376   3.074  34.838  0.7885 -0.0541 -0.0629
10832TIP3    H153987   2.360   3.052  34.746  0.2772  0.7712 -0.1754
10832TIP3    H253988   2.349   2.996  34.886 -2.6976  0.8250 -0.3198
10833TIP3   OH253989   3.513   2.356   4.122 -0.5665  0.2324  0.4795
10833TIP3    H153990   3.528   2.446   4.151  0.3736 -0.2326  1.5232
10833TIP3    H253991   3.472   2.314   4.198 -0.8719 -0.2532  0.0488
10834TIP3   OH253992   4.402   2.951  22.963  0.2812  0.1865 -0.1071
10834TIP3    H153993   4.390   2.945  22.868 -0.4409  0.0213 -0.0111
10834TIP3    H253994   4.313   2.958  22.998  0.5352  0.1013  0.5701
10835TIP3   OH253995   0.129   4.177  25.893 -0.8327 -0.1324  0.0092
10835TIP3    H153996   0.069   4.214  25.827 -0.5280 -1.1015 -0.8448
10835TIP3    H253997   0.082   4.100  25.926  0.1381 -1.2435 -1.0897
10836TIP3   OH253998   1.098   0.006   6.316  0.0633  0.1644  0.3692
10836TIP3    H153999   1.061   0.012   6.228  1.8839 -1.3654 -0.5779
10836TIP3    H254000   1.171  -0.055   6.307 -0.0195 -0.4532  3.0704
10837TIP3   OH254001   1.172   2.706  26.894  0.0562 -0.5990 -0.1408
10837TIP3    H154002   1.191   2.762  26.969  0.3352  0.7960 -1.2009
10837TIP3    H254003   1.259   2.682  26.860 -0.0646 -0.9859 -0.1713
10838TIP3   OH254004   2.227   0.466  37.825  0.1447 -0.1564 -0.2322
10838TIP3    H154005   2.322   0.474  37.811 -0.0211  0.5236 -1.0465
10838TIP3    H254006   2.216   0.377  37.860  1.1573  0.0472  0.6598
10839TIP3   OH254007   3.237   0.555  38.915  0.2883  0.0163  0.0789
10839TIP3    H154008   3.211   0.645  38.935  0.5535 -0.3234  2.1557
10839TIP3    H254009   3.239   0.510  39.000  0.6795 -1.8215 -0.8310
10840TIP3   OH254010   1.768   1.407  39.282 -0.1884 -0.0426  0.1713
10840TIP3    H154011   1.722   1.490  39.273 -3.1958 -1.6802 -1.1303
10840TIP3    H254012   1.830   1.406  39.209 -0.9929  0.5626 -0.5395
10841TIP3   OH254013   2.554   2.886   5.108  0.0476  0.5019  0.4533
10841TIP3    H154014   2.513   2.946   5.046  0.3325  0.8923  0.6394
10841TIP3    H254015   2.486   2.823   5.129  0.2808 -0.3208 -1.1256
10842TIP3   OH254016   3.507   1.830  33.104 -0.1285 -0.1961  0.3916
10842TIP3    H154017   3.452   1.753  33.087 -0.3153 -0.2766  1.2948
10842TIP3    H254018   3.549   1.811  33.188 -0.0449  0.6158  0.5448
10843TIP3   OH254019   4.155   3.175  26.020  0.2151 -0.2954 -0.2921
10843TIP3    H154020   4.145   3.249  25.961  1.8669  1.0065  0.9634
10843TIP3    H254021   4.125   3.208  26.105 -0.3792 -1.5459  0.0087
10844TIP3   OH254022   2.499   3.312  33.917 -0.1674  0.3284  0.3484
10844TIP3    H154023   2.493   3.378  33.847 -1.0016 -1.2754 -1.1732
10844TIP3    H254024   2.410   3.277  33.924  0.4855 -1.4058  0.3155
10845TIP3   OH254025   3.413   4.201   4.850  0.1929 -0.4381  0.1810
10845TIP3    H154026   3.371   4.140   4.911 -2.9287  1.7224  0.4341
10845TIP3    H254027   3.386   4.170   4.764 -1.7555  0.6929  0.3253
10846TIP3   OH254028   1.819   3.962   1.544  0.0986  1.0673  0.4503
10846TIP3    H154029   1.739   3.995   1.504 -1.2596 -2.2682  0.0733
10846TIP3    H254030   1.873   3.935   1.470 -0.7214 -1.4522  0.6969
10847TIP3   OH254031   0.246   4.100  21.495  0.7120 -0.3977  0.4566
10847TIP3    H154032   0.163   4.146  21.489  1.3971  0.9257  0.7486
10847TIP3    H254033   0.276   4.116  21.585  1.8670  0.2073 -0.0113
10848TIP3   OH254034   0.949   2.170  11.708 -0.3803  0.3703 -0.0415
10848TIP3    H154035   1.007   2.129  11.773 -2.0308 -0.5276  0.9323
10848TIP3    H254036   0.946   2.262  11.734  0.0597  0.2941  0.3032
10849TIP3   OH254037   0.641   1.402  12.473 -0.1753  0.6332  0.1050
10849TIP3    H154038   0.620   1.478  12.528  0.2783  0.0827  1.0643
10849TIP3    H254039   0.641   1.437  12.384 -0.3429  1.6827  0.4941
10850TIP3   OH254040   2.278   1.462  32.646  0.1052  0.8593  0.3799
10850TIP3    H154041   2.296   1.519  32.571  2.0166 -1.7987 -1.3854
10850TIP3    H254042   2.223   1.392  32.610  2.1159 -1.1720  1.0285
10851TIP3   OH254043   3.869   2.315   7.387  0.1537  0.2554 -0.1457
10851TIP3    H154044   3.819   2.297   7.306 -0.2562 -1.3266  0.4263
10851TIP3    H254045   3.802   2.340   7.451  0.3054 -0.0151  0.1193
10852TIP3   OH254046   0.431   0.891   0.484 -0.5322 -0.3403  0.3839
10852TIP3    H154047   0.384   0.870   0.404 -1.8535 -0.3693  1.1420
10852TIP3    H254048   0.489   0.963   0.459 -0.8319 -0.4276 -0.6216
10853TIP3   OH254049   1.638   0.722   6.932 -0.2692 -0.4425  0.1239
10853TIP3    H154050   1.655   0.634   6.900 -0.2346 -0.2904 -0.2810
10853TIP3    H254051   1.549   0.741   6.905 -0.2629 -0.3361  0.1749
10854TIP3   OH254052   2.424   2.340  32.699 -0.0858  0.0456  0.4193
10854TIP3    H154053   2.398   2.335  32.791 -0.5284 -1.2554  0.2501
10854TIP3    H254054   2.438   2.433  32.682 -2.3998  0.5701  1.1505
10855TIP3   OH254055   1.813   4.402  36.787 -0.0837  0.2123 -0.6136
10855TIP3    H154056   1.850   4.323  36.749 -3.3795 -1.9617  0.2896
10855TIP3    H254057   1.754   4.437  36.720 -1.4186 -0.2546  0.2782
10856TIP3   OH254058   1.769   3.442  32.915 -0.1210 -0.6342 -0.4055
10856TIP3    H154059   1.776   3.360  32.963 -2.3104 -0.1833  0.8216
10856TIP3    H254060   1.692   3.484  32.951 -0.6427  0.7328 -2.8942
10857TIP3   OH254061   1.673   0.588  39.870 -0.1270  0.1978  0.4262
10857TIP3    H154062   1.715   0.597  39.784  0.0243  1.3074  0.6037
10857TIP3    H254063   1.613   0.515  39.859  0.3982 -0.1249 -0.4223
10858TIP3   OH254064   3.366   1.240   8.227  0.2441 -0.0476  0.2949
10858TIP3    H154065   3.284   1.212   8.266  0.2204  0.9652  1.0303
10858TIP3    H254066   3.367   1.200   8.140 -1.5259  0.7724 -0.1440
10859TIP3   OH254067   1.260   4.234  41.566 -0.2719 -0.8159  0.1500
10859TIP3    H154068   1.331   4.222  41.629 -0.0034 -1.4862 -0.2785
10859TIP3    H254069   1.268   4.161  41.505 -2.6425 -2.1765  1.3209
10860TIP3   OH254070   3.467   3.085  27.157  0.4159  0.6428  0.4448
10860TIP3    H154071   3.391   3.116  27.206 -0.6428 -0.4751 -0.4277
10860TIP3    H254072   3.433   3.066  27.070  1.5347 -0.5856  0.2435
10861TIP3   OH254073   4.083   0.585  35.960  0.4710 -0.4874 -0.4507
10861TIP3    H154074   4.038   0.559  36.040  3.2502  0.7798  1.6757
10861TIP3    H254075   4.085   0.680  35.963  0.1195 -0.3646 -2.4024
10862TIP3   OH254076   3.593   0.230  36.000 -0.3479  0.1281  0.0914
10862TIP3    H154077   3.660   0.198  36.060 -0.1048  0.4181 -0.0241
10862TIP3    H254078   3.633   0.225  35.913 -0.8972 -0.8147 -0.1130
10863TIP3   OH254079   1.310   3.758  11.697  0.3686 -0.5792 -0.2923
10863TIP3    H154080   1.384   3.732  11.752 -1.7492 -1.8430  2.1790
10863TIP3    H254081   1.283   3.677  11.653 -0.8151 -0.6607  0.5268
10864TIP3   OH254082   2.855   1.347  29.910  0.2336  0.0902 -0.0028
10864TIP3    H154083   2.858   1.441  29.892  1.1850  0.1800  0.6001
10864TIP3    H254084   2.815   1.341  29.997 -0.6352 -0.1194 -0.4075
10865TIP3   OH254085   2.752   0.082   3.061 -0.2869 -0.3625  0.8438
10865TIP3    H154086   2.786   0.004   3.016  3.6269  1.8953 -0.6624
10865TIP3    H254087   2.796   0.080   3.147 -0.5891 -0.1029  1.0038
10866TIP3   OH254088   3.961   3.873  27.401 -0.6001  0.0199 -0.1918
10866TIP3    H154089   3.983   3.966  27.394  1.3691 -0.4893 -1.8170
10866TIP3    H254090   3.902   3.856  27.327 -2.3307  0.2549  1.0606
10867TIP3   OH254091   3.386   1.416   4.609 -0.0721 -0.2345 -0.1065
10867TIP3    H154092   3.312   1.462   4.569 -1.6289 -1.4251  1.2802
10867TIP3    H254093   3.355   1.327   4.623  1.5973 -0.7426  0.6374
10868TIP3   OH254094   4.101   0.646  36.544 -0.0036 -0.6432 -0.1494
10868TIP3    H154095   4.118   0.614  36.632 -0.5869  0.2874  0.3135
10868TIP3    H254096   4.038   0.583  36.507 -1.2070 -0.0294  0.7833
10869TIP3   OH254097   2.340   1.988  10.899  0.1761  0.6430  0.5532
10869TIP3    H154098   2.317   1.902  10.863  1.6747  0.3628  0.2198
10869TIP3    H254099   2.320   2.049  10.829  1.5728  0.2636 -0.2142
10870TIP3   OH254100   1.388   3.782  32.474 -0.0323 -0.0308  0.3206
10870TIP3    H154101   1.314   3.838  32.497 -1.1288 -1.4633  0.4009
10870TIP3    H254102   1.393   3.787  32.378  0.6096  1.0627  0.3899
10871TIP3   OH254103   4.204   4.389  33.007 -0.4846  0.1234  0.3563
10871TIP3    H154104   4.266   4.341  33.062  1.2029  0.7297 -0.9116
10871TIP3    H254105   4.118   4.370  33.045  0.5728  0.5337  3.1936
10872TIP3   OH254106   1.526   2.171  41.521 -0.2746  0.8091 -0.1624
10872TIP3    H154107   1.566   2.098  41.475  0.4733  2.3600 -2.1269
10872TIP3    H254108   1.432   2.159  41.511 -0.2786 -0.9786  1.4330
10873TIP3   OH254109   1.107   0.062  36.808 -0.3330 -0.1703  0.6840
10873TIP3    H154110   1.170   0.123  36.845  0.6750 -1.6069  1.4150
10873TIP3    H254111   1.058   0.114  36.743  0.5760  1.3447  1.1707
10874TIP3   OH254112   3.460   1.227   4.167 -0.3531  0.5706  0.3069
10874TIP3    H154113   3.476   1.318   4.191 -1.9276 -0.0954  4.6979
10874TIP3    H254114   3.536   1.180   4.200 -0.4475  0.0515 -0.2000
10875TIP3   OH254115   1.253   1.749   2.588 -0.4137  0.5887 -0.0890
10875TIP3    H154116   1.232   1.752   2.494  1.9644 -0.0311 -0.7059
10875TIP3    H254117   1.347   1.732   2.591 -0.4049  0.7266  2.4382
10876TIP3   OH254118   2.773   0.733   0.698  0.2240 -0.0965  0.0961
10876TIP3    H154119   2.752   0.644   0.726 -0.5060  0.2007  0.5528
10876TIP3    H254120   2.749   0.787   0.774 -2.5774  0.8363 -1.2978
10877TIP3   OH254121   4.170   3.720  32.337 -0.0613 -0.2083 -0.4133
10877TIP3    H154122   4.212   3.637  32.362  0.3889 -0.5614 -2.2069
10877TIP3    H254123   4.208   3.784  32.397  2.3045 -0.7086 -1.2542
10878TIP3   OH254124   3.624   3.038  27.377  0.2593  0.4040 -0.6392
10878TIP3    H154125   3.619   3.075  27.465  2.1229 -0.9044  0.0774
10878TIP3    H254126   3.561   3.089  27.326 -1.6541  0.5071  1.6653
10879TIP3   OH254127   0.046   2.760  41.368 -0.3040 -0.0291 -0.3792
10879TIP3    H154128   0.049   2.844  41.322  0.1319 -0.5568 -1.3467
10879TIP3    H254129  -0.048   2.742  41.380 -0.4447 -0.0816 -1.4646
10880TIP3   OH254130   0.228   3.571  24.071 -0.3050  0.1824 -0.3951
10880TIP3    H154131   0.267   3.522  24.143  0.8661  2.9079  0.9408
10880TIP3    H254132   0.266   3.532  23.992  1.3438 -0.4253  0.6522
10881TIP3   OH254133   3.521   2.625  32.419  0.9489  0.0098 -0.0479
10881TIP3    H154134   3.444   2.573  32.444  0.5772  0.0249 -1.1190
10881TIP3    H254135   3.549   2.587  32.336 -0.1679  2.3896 -1.6085
10882TIP3   OH254136   2.184   3.276  39.861 -0.1356 -0.2052  0.3779
10882TIP3    H154137   2.126   3.347  39.888  0.5168  0.4243  0.1548
10882TIP3    H254138   2.180   3.213  39.933  0.7283  0.9317  1.4717
10883TIP3   OH254139   4.404   2.034   9.724  0.3060  0.3269  0.0355
10883TIP3    H154140   4.445   1.997   9.646  2.7021  1.0030  0.8940
10883TIP3    H254141   4.438   1.981   9.796  1.5350  2.3254  0.9973
10884TIP3   OH254142   0.325   2.283   0.757  0.8731  0.0223  0.1131
10884TIP3    H154143   0.311   2.207   0.815 -2.0144  0.4592  0.0957
10884TIP3    H254144   0.365   2.349   0.814 -1.9230  0.4553  1.7637
10885TIP3   OH254145   2.065   1.591   7.952 -0.2230 -0.4249  0.1917
10885TIP3    H154146   1.997   1.549   8.005  1.2319 -0.9908  1.7108
10885TIP3    H254147   2.134   1.525   7.943  0.1683  0.1347 -1.2841
10886TIP3   OH254148   4.156   2.126  10.478  0.0241 -0.8241 -0.0640
10886TIP3    H154149   4.157   2.100  10.386  0.6056 -1.3176  0.0709
10886TIP3    H254150   4.247   2.116  10.507  0.0337  0.2279  0.3210
10887TIP3   OH254151   2.797   0.942   4.956  0.3954 -0.0045  0.4068
10887TIP3    H154152   2.716   0.986   4.979  0.9647  0.7319  1.0720
10887TIP3    H254153   2.823   0.897   5.037  0.8896  0.1585  0.3427
10888TIP3   OH254154   4.112   0.844   0.913  0.0326 -0.3064  0.4085
10888TIP3    H154155   4.186   0.878   0.963  1.6880 -1.8395 -0.8376
10888TIP3    H254156   4.079   0.919   0.864  0.6110  0.4608  1.1880
10889TIP3   OH254157   2.499   1.842  11.886 -0.6157 -0.0462 -0.1933
10889TIP3    H154158   2.479   1.922  11.935 -0.9135 -0.4494  0.3547
10889TIP3    H254159   2.587   1.856  11.852 -0.5734  0.4172  0.0945
10890TIP3   OH254160   0.855   0.010  13.248  0.3562  0.0872  0.4668
10890TIP3    H154161   0.863  -0.077  13.288  0.4077 -0.5824 -0.9172
10890TIP3    H254162   0.897   0.069  13.310  1.8924 -1.1254  0.6594
10891TIP3   OH254163   0.357   1.066  10.049  0.5151 -0.3227 -0.7725
10891TIP3    H154164   0.397   1.019  10.122 -1.1530 -0.8767 -0.1618
10891TIP3    H254165   0.279   1.014  10.027 -0.6414  1.4280 -0.9809
10892TIP3   OH254166   3.800   1.435  32.425 -0.0214  0.6812  0.2279
10892TIP3    H154167   3.725   1.407  32.373  0.0354 -0.9532  0.9699
10892TIP3    H254168   3.761   1.475  32.503 -0.1142  0.7423  0.1508
10893TIP3   OH254169   0.661   3.050  29.453  0.3485 -0.2079  0.2632
10893TIP3    H154170   0.594   3.016  29.393 -0.6160  3.4804 -0.9909
10893TIP3    H254171   0.613   3.083  29.528  0.9397  0.7527  0.2361
10894TIP3   OH254172   1.395   3.602  29.081  0.3909  0.0511 -0.1501
10894TIP3    H154173   1.394   3.585  28.986 -1.3020 -0.3338 -0.0856
10894TIP3    H254174   1.344   3.531  29.118  1.2713  0.0489  1.1078
10895TIP3   OH254175   3.703   3.922   6.282  0.2318  0.0322  0.1548
10895TIP3    H154176   3.683   3.921   6.188  0.2732  1.1930  0.1248
10895TIP3    H254177   3.618   3.911   6.325  0.0992  0.3722 -0.0164
10896TIP3   OH254178   3.167   0.090   5.774 -0.9211 -0.5087 -0.1577
10896TIP3    H154179   3.093   0.072   5.832 -0.8037 -2.2240 -0.4732
10896TIP3    H254180   3.239   0.112   5.833 -1.5757  0.8661  0.1642
10897TIP3   OH254181   0.494   3.512   7.374  0.1910 -0.0919  0.7463
10897TIP3    H154182   0.522   3.497   7.464 -0.7810 -0.2576  1.0311
10897TIP3    H254183   0.455   3.599   7.375 -0.9019 -0.5592  0.7727
10898TIP3   OH254184   0.695   0.495   1.260  0.2604  0.3209 -0.1770
10898TIP3    H154185   0.615   0.452   1.229 -1.0203  1.9018  0.7821
10898TIP3    H254186   0.738   0.428   1.313 -2.0083  0.3030  1.8168
10899TIP3   OH254187   3.938   1.337   3.499 -0.5750 -0.3491  0.4299
10899TIP3    H154188   3.904   1.299   3.580 -0.7766  0.4610  0.7296
10899TIP3    H254189   3.895   1.422   3.492  0.8306  0.3892  0.4280
10900TIP3   OH254190   2.619   3.819   1.027  0.1129  0.1615  0.4462
10900TIP3    H154191   2.627   3.841   1.120 -1.0320  1.1674  0.3219
10900TIP3    H254192   2.552   3.751   1.023 -0.7363  1.0041  0.2420
10901TIP3   OH254193   3.690   1.319  25.771  1.1674 -0.6999  0.1769
10901TIP3    H154194   3.645   1.284  25.847  0.4490  0.0990  0.1412
10901TIP3    H254195   3.731   1.400  25.802  0.7463 -0.2912 -0.3139
10902TIP3   OH254196   0.501   2.310  27.907  0.2120 -0.1220 -0.1068
10902TIP3    H154197   0.428   2.315  27.969 -1.9094 -0.2855 -2.4297
10902TIP3    H254198   0.537   2.399  27.905 -2.4011  1.0157 -1.5845
10903TIP3   OH254199   0.765   1.175   4.980 -1.0208  0.4146 -0.1209
10903TIP3    H154200   0.672   1.197   4.980 -0.4780  3.1702  1.7898
10903TIP3    H254201   0.809   1.256   5.004  1.7583 -1.2669  0.9195
10904TIP3   OH254202   1.135   2.740  15.584  0.0794 -0.4015 -0.3511
10904TIP3    H154203   1.077   2.664  15.578 -0.1079 -0.2598 -0.3258
10904TIP3    H254204   1.116   2.778  15.669 -0.0401 -0.1533 -0.4866
10905TIP3   OH254205   0.588   0.330   9.847 -0.0961 -0.2644 -0.1163
10905TIP3    H154206   0.531   0.263   9.884  0.4115  0.1693  1.5676
10905TIP3    H254207   0.531   0.407   9.837  0.0291  0.0015  1.0366
10906TIP3   OH254208   3.325   2.217  39.096 -0.0992 -0.1575 -0.4373
10906TIP3    H154209   3.376   2.210  39.015 -0.2545 -0.9885 -0.4675
10906TIP3    H254210   3.387   2.192  39.165 -0.7110 -2.1883 -0.5643
10907TIP3   OH254211   3.965   3.769  41.466 -0.4816 -0.3985  0.0279
10907TIP3    H154212   3.974   3.676  41.446 -0.1057 -0.8660  2.1911
10907TIP3    H254213   4.050   3.794  41.502 -0.4590  0.9073 -0.8581
10908TIP3   OH254214   3.142   1.075   9.336  0.1185  0.6655  0.3053
10908TIP3    H154215   3.195   1.106   9.262  0.3124  1.6558  0.8399
10908TIP3    H254216   3.104   1.155   9.373 -1.7288 -0.0128 -0.0239
10909TIP3   OH254217   2.878   3.102   9.737 -0.3216  0.8846 -0.3452
10909TIP3    H154218   2.804   3.135   9.686 -0.0918  1.9313 -0.0419
10909TIP3    H254219   2.934   3.058   9.673 -2.7530 -2.9903 -0.1227
10910TIP3   OH254220   4.306   0.211  10.327  0.2751  0.7688  0.3085
10910TIP3    H154221   4.211   0.195  10.322  0.6340 -1.6965  0.0159
10910TIP3    H254222   4.323   0.273  10.256 -0.9190  0.0011 -0.6898
10911TIP3   OH254223   1.571   4.369  12.061 -0.4636 -0.3353  0.3631
10911TIP3    H154224   1.614   4.455  12.065 -0.5450 -0.0444 -2.6452
10911TIP3    H254225   1.487   4.382  12.105 -0.2150  0.9460  0.4938
10912TIP3   OH254226   1.636   0.952   9.024 -0.1069 -0.0044  0.0101
10912TIP3    H154227   1.665   1.032   9.068 -0.5413  0.1476  0.0263
10912TIP3    H254228   1.580   0.982   8.953  0.0999 -0.2769 -0.2733
10913TIP3   OH254229   4.190   2.719  29.274  0.3624 -0.1992 -0.1793
10913TIP3    H154230   4.248   2.787  29.310 -0.4432  1.0603 -1.1679
10913TIP3    H254231   4.236   2.637  29.291  1.2451  0.5637  1.2885
10914TIP3   OH254232   3.840   0.013  27.959 -0.3197  0.2479  0.7780
10914TIP3    H154233   3.757  -0.024  27.930 -0.1041  0.5736 -0.3120
10914TIP3    H254234   3.904  -0.056  27.945 -0.1122  0.6081 -0.1619
10915TIP3   OH254235   2.024   1.666   4.682  0.0795  0.8743  0.2856
10915TIP3    H154236   1.966   1.693   4.754 -0.4876  0.0645  0.1419
10915TIP3    H254237   2.082   1.741   4.669  0.9940  0.5921  2.3808
10916TIP3   OH254238   3.532   3.268   5.703 -0.0964  0.3678  0.2083
10916TIP3    H154239   3.575   3.348   5.735  0.4823 -0.2137  0.9057
10916TIP3    H254240   3.573   3.197   5.752  0.5425 -0.5387 -1.5212
10917TIP3   OH254241   1.222   3.087  28.708 -0.8089 -0.8851  0.1887
10917TIP3    H154242   1.269   3.114  28.629  0.5221  1.3509  1.6301
10917TIP3    H254243   1.231   3.161  28.768 -2.5035 -2.1546  2.1486
10918TIP3   OH254244   2.747   0.096  12.894 -0.4960  0.5841 -0.0713
10918TIP3    H154245   2.813   0.165  12.885 -0.1254  0.8216  3.0998
10918TIP3    H254246   2.796   0.014  12.891 -0.2399  0.6965  0.7548
10919TIP3   OH254247   0.349   0.664  11.639 -0.4150  0.2536  0.5176
10919TIP3    H154248   0.385   0.575  11.644  0.2738  0.4341 -0.9053
10919TIP3    H254249   0.425   0.719  11.621 -1.2315  0.7600 -1.6294
10920TIP3   OH254250   2.188   2.481  33.714 -0.6173  0.3895 -0.2051
10920TIP3    H154251   2.152   2.392  33.722 -1.4984  0.8365  1.1048
10920TIP3    H254252   2.190   2.514  33.803  1.6438  0.9752 -0.4027
10921TIP3   OH254253   0.122   2.651  38.553  0.0803 -0.0026  0.0422
10921TIP3    H154254   0.029   2.653  38.575 -0.4400  2.9758 -1.9290
10921TIP3    H254255   0.125   2.615  38.464  0.7422  0.4101 -0.1116
10922TIP3   OH254256   2.267   3.329   6.630 -0.0143 -0.0040 -0.4608
10922TIP3    H154257   2.247   3.410   6.676  0.8457 -0.9783  1.7599
10922TIP3    H254258   2.185   3.279   6.632 -0.1536  0.2191 -0.5738
10923TIP3   OH254259   0.052   2.509  33.645 -0.0815 -0.2083 -0.1248
10923TIP3    H154260   0.063   2.506  33.740 -2.1745  0.4252  0.1903
10923TIP3    H254261  -0.036   2.474  33.630  0.2449 -0.3810 -1.8515
10924TIP3   OH254262   1.187   4.186  38.533 -0.6134  0.0177 -0.3904
10924TIP3    H154263   1.100   4.201  38.570 -0.6954  1.2614 -1.0438
10924TIP3    H254264   1.232   4.135  38.600 -1.0410  1.4609  1.0602
10925TIP3   OH254265   0.201   0.825  30.132  0.5271 -0.2784 -0.1562
10925TIP3    H154266   0.288   0.858  30.156  0.3420  0.7550 -0.8266
10925TIP3    H254267   0.217   0.744  30.084  1.0767 -0.4314  0.2776
10926TIP3   OH254268   1.532   2.552  31.585  0.3049 -0.2626  0.0284
10926TIP3    H154269   1.602   2.516  31.640  0.4760  0.4050  0.2585
10926TIP3    H254270   1.529   2.645  31.608  0.2224 -0.0178 -0.9338
10927TIP3   OH254271   1.412   0.669  28.237  0.1588  0.0756 -0.4154
10927TIP3    H154272   1.447   0.742  28.186  1.4053 -0.1023  0.1633
10927TIP3    H254273   1.364   0.709  28.309 -0.0921  0.3144 -0.7123
10928TIP3   OH254274   1.119   3.610  31.347  0.0575 -0.1909 -0.6268
10928TIP3    H154275   1.100   3.581  31.437  0.8693 -1.4091 -0.8165
10928TIP3    H254276   1.179   3.684  31.358  0.7957 -0.8342 -0.1513
10929TIP3   OH254277   0.790   3.995  28.081 -0.3084  0.2876 -0.3642
10929TIP3    H154278   0.790   4.087  28.105 -1.0737  0.9071 -2.4993
10929TIP3    H254279   0.699   3.968  28.090 -0.1890 -0.1003 -0.3022
10930TIP3   OH254280   2.316   0.841  35.294 -0.5934  0.1459 -0.3814
10930TIP3    H154281   2.253   0.861  35.224 -1.1038 -0.2798 -0.0603
10930TIP3    H254282   2.274   0.770  35.343  0.6812 -1.0164 -0.8917
10931TIP3   OH254283   1.211   4.143  39.543 -0.4605  0.1084 -0.0175
10931TIP3    H154284   1.274   4.157  39.613 -1.3520  1.8495  0.4981
10931TIP3    H254285   1.254   4.177  39.465 -0.4510  0.5796  0.1887
10932TIP3   OH254286   2.588   3.367  36.998 -0.0180 -0.1018  0.1386
10932TIP3    H154287   2.499   3.379  36.964  0.3864 -0.3883 -1.0313
10932TIP3    H254288   2.604   3.273  36.990  1.2299  0.2256 -1.8424
10933TIP3   OH254289   2.093   0.408  28.769  0.4602  0.5062 -0.0825
10933TIP3    H154290   2.076   0.353  28.692  0.0420 -1.3645  1.2842
10933TIP3    H254291   2.178   0.449  28.750  0.1488  0.4572 -1.7267
10934TIP3   OH254292   0.840   3.200   6.386  0.0479  0.2097  0.0752
10934TIP3    H154293   0.892   3.277   6.362  2.0360 -0.0291  3.0860
10934TIP3    H254294   0.894   3.125   6.362  0.0841 -0.1073  1.1011
10935TIP3   OH254295   3.030   0.316   3.080 -0.1698 -0.2998  0.3310
10935TIP3    H154296   3.009   0.236   3.032 -1.0191 -0.3105  0.7076
10935TIP3    H254297   3.005   0.387   3.020  0.5040 -0.3065  0.0311
10936TIP3   OH254298   2.400   0.958  38.257 -0.0974 -0.3703  0.2615
10936TIP3    H154299   2.391   0.864  38.242  0.8691 -0.4999  0.4223
10936TIP3    H254300   2.358   0.999  38.181 -1.4027 -0.9048  0.6681
10937TIP3   OH254301   0.997   4.115  37.397 -0.6779 -0.2215 -0.7212
10937TIP3    H154302   0.980   4.112  37.303  0.7428 -0.1121 -0.9953
10937TIP3    H254303   1.017   4.024  37.421  0.1625 -0.0571 -0.7707
10938TIP3   OH254304   1.576   2.015   1.226  0.1707  0.1429 -0.0492
10938TIP3    H154305   1.636   2.036   1.298 -0.1546  0.6261  0.0819
10938TIP3    H254306   1.609   1.931   1.192 -1.0218 -1.3428  2.1559
10939TIP3   OH254307   0.083   3.485  32.064 -0.2370 -0.9735 -0.1610
10939TIP3    H154308   0.002   3.532  32.040 -0.0018 -0.3701  0.2133
10939TIP3    H254309   0.153   3.543  32.036  0.0821  0.2718  2.8085
10940TIP3   OH254310   0.094   3.328  27.963 -0.3927 -0.1976 -0.5240
10940TIP3    H154311   0.081   3.260  28.029 -0.0632 -0.5620 -0.8322
10940TIP3    H254312   0.032   3.308  27.894  0.1876 -0.6017 -0.9405
10941TIP3   OH254313   0.772   3.543  33.675 -0.2467 -0.2627 -0.0356
10941TIP3    H154314   0.838   3.609  33.652 -2.6242  1.9548 -0.9949
10941TIP3    H254315   0.817   3.460  33.661  2.1899  1.1008 -1.1361
10942TIP3   OH254316   1.930   3.104   8.031  0.1099  0.1337 -0.1044
10942TIP3    H154317   1.969   3.059   8.106  1.9606  2.9200  0.7600
10942TIP3    H254318   1.992   3.174   8.010 -1.4665  0.8649 -2.8153
10943TIP3   OH254319   2.401   3.500   9.290 -0.3701 -0.1049  0.1262
10943TIP3    H154320   2.328   3.442   9.271  0.6970 -0.9430 -1.7301
10943TIP3    H254321   2.364   3.588   9.289 -1.2294 -0.4637 -1.4930
10944TIP3   OH254322   2.674   3.486   5.465 -0.0859 -0.3186  0.2514
10944TIP3    H154323   2.618   3.532   5.528  0.0470 -0.7017  0.6565
10944TIP3    H254324   2.646   3.519   5.380  0.9819  1.6312  0.5796
10945TIP3   OH254325   2.463   3.345  39.958 -0.5304  0.4928 -0.5172
10945TIP3    H154326   2.456   3.389  40.042  0.1691 -0.3851  0.0146
10945TIP3    H254327   2.375   3.349  39.921 -0.8940  0.6811  0.3475
10946TIP3   OH254328   2.451   0.290   1.748  0.3856  1.3203  0.0412
10946TIP3    H154329   2.518   0.297   1.680  0.0310  0.9877 -0.3439
10946TIP3    H254330   2.385   0.355   1.724  0.3531  1.3365  0.1723
10947TIP3   OH254331   0.877   2.583  11.009  0.3730 -0.6349  0.0928
10947TIP3    H154332   0.842   2.583  11.098 -0.0667 -0.3350 -0.0779
10947TIP3    H254333   0.801   2.599  10.953  0.0693 -3.6371 -0.5670
10948TIP3   OH254334   2.673   1.775   9.814  0.0638 -0.5587  0.7057
10948TIP3    H154335   2.665   1.840   9.884 -1.5828 -1.5801  1.5122
10948TIP3    H254336   2.590   1.782   9.766  0.0680 -1.7335  0.5136
10949TIP3   OH254337   0.565   2.199  37.991  0.1992  0.4075 -0.2896
10949TIP3    H154338   0.638   2.215  37.930  0.8932  0.2152  0.4726
10949TIP3    H254339   0.489   2.191  37.935  0.5087  2.0789 -1.0328
10950TIP3   OH254340   1.562   1.532  18.006 -0.4615  0.1071 -0.2348
10950TIP3    H154341   1.495   1.478  17.963 -0.1939  0.0091 -0.5354
10950TIP3    H254342   1.512   1.602  18.048 -0.7527  0.0567 -0.4842
10951TIP3   OH254343   2.054   3.200  10.842  0.2473 -0.4284  0.0043
10951TIP3    H154344   2.020   3.212  10.931  1.7793 -0.2754  0.6140
10951TIP3    H254345   1.980   3.220  10.785 -0.1685  1.8157  1.2001
10952TIP3   OH254346   1.720   0.548  39.592  0.0298  0.1031 -0.3155
10952TIP3    H154347   1.737   0.456  39.573  0.7116  0.2876 -0.6276
10952TIP3    H254348   1.749   0.595  39.514 -2.5739  0.4031 -1.2134
10953TIP3   OH254349   0.478   3.105  10.927 -0.0342 -0.5163 -0.0814
10953TIP3    H154350   0.451   3.195  10.945  0.2667 -0.2043 -1.0902
10953TIP3    H254351   0.554   3.092  10.983 -0.1960 -0.2057  0.2174
10954TIP3   OH254352   2.369   3.102   8.207 -0.2835  0.7587  0.1911
10954TIP3    H154353   2.341   3.136   8.293  0.6152 -0.3884  0.9721
10954TIP3    H254354   2.314   3.148   8.144 -0.2033  2.4638  1.3032
10955TIP3   OH254355   2.865   0.310   6.226  0.1166  0.2637 -0.3097
10955TIP3    H154356   2.828   0.390   6.187 -1.1521 -0.9673 -1.7450
10955TIP3    H254357   2.790   0.263   6.262  0.8182 -0.4046  0.3093
10956TIP3   OH254358   0.283   3.408  13.504 -0.3571 -0.0062  0.3511
10956TIP3    H154359   0.264   3.406  13.410  1.3466  1.2042 -0.0704
10956TIP3    H254360   0.331   3.490  13.517  0.8843 -0.9167  1.9808
10957TIP3   OH254361   0.735   1.208  40.188 -0.0223  0.0614 -0.3558
10957TIP3    H154362   0.776   1.152  40.254  0.3841  2.3906  1.4822
10957TIP3    H254363   0.647   1.172  40.178  0.9542 -2.3854 -1.1793
10958TIP3   OH254364   1.115   4.175   3.160 -0.4761 -0.2098  0.5279
10958TIP3    H154365   1.066   4.180   3.078  1.9462  1.2978 -0.9505
10958TIP3    H254366   1.112   4.264   3.195  1.2178 -0.0410  0.3228
10959TIP3   OH254367   0.290   0.907   8.485 -0.8335 -0.0549 -0.6826
10959TIP3    H154368   0.301   0.812   8.477 -2.1568 -0.4269  1.4123
10959TIP3    H254369   0.301   0.939   8.395 -0.4973 -2.1828 -1.4680
10960TIP3   OH254370   2.732   2.575  35.596 -0.3392  0.4651  0.4248
10960TIP3    H154371   2.639   2.555  35.581  0.3468 -1.1835 -2.4463
10960TIP3    H254372   2.744   2.663  35.559 -0.1937 -0.6423 -2.4083
10961TIP3   OH254373   2.847   2.741   5.130  0.0981  0.9547 -0.2966
10961TIP3    H154374   2.779   2.766   5.192 -0.4678 -1.1277  0.0051
10961TIP3    H254375   2.921   2.713   5.184 -0.8356 -2.0669 -0.4049
10962TIP3   OH254376   0.316   1.753  40.278  0.7037 -0.3264 -0.1005
10962TIP3    H154377   0.365   1.834  40.261  0.9231 -0.1011  1.4084
10962TIP3    H254378   0.266   1.773  40.358 -1.9619 -0.5117 -1.6128
10963TIP3   OH254379   1.945   3.460  31.838 -0.2892 -0.1137 -0.3352
10963TIP3    H154380   1.942   3.416  31.923 -1.6031  0.3265 -0.1270
10963TIP3    H254381   1.974   3.392  31.777  1.1419 -0.3042  0.5223
10964TIP3   OH254382   1.835   0.608  13.781 -0.0475 -0.4851  0.1962
10964TIP3    H154383   1.899   0.544  13.810  1.0922 -0.5447 -2.1418
10964TIP3    H254384   1.872   0.644  13.700 -2.9051 -0.4118 -1.2216
10965TIP3   OH254385   4.319   1.046  39.568  0.0439 -0.1383 -0.3022
10965TIP3    H154386   4.246   0.988  39.548 -1.4783  1.2990  0.8387
10965TIP3    H254387   4.305   1.073  39.659  2.3593 -0.2883  0.1693
10966TIP3   OH254388   2.946   2.662   9.511  0.2769 -0.7852  0.3396
10966TIP3    H154389   3.015   2.597   9.494  1.2596  0.5004 -0.8161
10966TIP3    H254390   2.895   2.624   9.583  2.3996 -1.6210  1.4950
10967TIP3   OH254391   3.909   3.649  25.097 -0.1246 -0.2994 -0.0517
10967TIP3    H154392   3.879   3.564  25.127  0.1849 -0.6836 -0.7862
10967TIP3    H254393   4.004   3.640  25.091 -0.0498  0.2357  0.2697
10968TIP3   OH254394   2.167   1.505   4.924 -0.2212 -0.0808 -0.5955
10968TIP3    H154395   2.125   1.565   4.862 -3.5372  0.0062  1.5070
10968TIP3    H254396   2.216   1.562   4.982 -0.5720  0.2636 -0.6310
10969TIP3   OH254397   3.600   0.537  28.165 -0.2232 -0.2939  0.0506
10969TIP3    H154398   3.673   0.594  28.142  0.0345 -0.0388  1.4234
10969TIP3    H254399   3.641   0.457  28.197 -0.5734 -0.7657 -0.6512
10970TIP3   OH254400   1.260   3.461   5.293  0.1674  0.0497  0.1007
10970TIP3    H154401   1.191   3.504   5.343  0.0423 -0.3289  0.2610
10970TIP3    H254402   1.237   3.476   5.201 -0.2960 -0.3403  0.1543
10971TIP3   OH254403   3.476   0.684   5.683  0.0514  0.0653  0.2548
10971TIP3    H154404   3.512   0.697   5.771 -0.5810  1.0530  0.3894
10971TIP3    H254405   3.402   0.745   5.679  1.3078  1.5764 -1.6790
10972TIP3   OH254406   4.137   3.455   0.001  0.4456 -0.4435 -0.2565
10972TIP3    H154407   4.109   3.472  -0.089  0.3677  1.5879  0.1107
10972TIP3    H254408   4.061   3.475   0.055  1.3159  1.1764  0.4452
10973TIP3   OH254409   1.792   3.112  39.121 -0.0221  0.1425  0.3187
10973TIP3    H154410   1.758   3.102  39.210 -2.2654 -1.9576 -0.6660
10973TIP3    H254411   1.727   3.069  39.065  1.8335  0.4371 -2.2611
10974TIP3   OH254412   2.081   2.287  37.223 -0.2653 -0.1615  0.4744
10974TIP3    H154413   2.081   2.211  37.282  0.7188 -1.0732 -0.6475
10974TIP3    H254414   2.169   2.288  37.185 -0.8794  0.3595 -1.0100
10975TIP3   OH254415   1.493   3.144  12.574 -0.2678  0.1455 -0.2175
10975TIP3    H154416   1.542   3.196  12.637  0.6118  2.2427 -2.4985
10975TIP3    H254417   1.417   3.197  12.552 -0.9729 -0.8969 -0.4118
10976TIP3   OH254418   2.061   4.186  32.538 -0.1495 -0.1774  0.6217
10976TIP3    H154419   2.047   4.271  32.579  1.6727  0.2318  0.5005
10976TIP3    H254420   2.036   4.123  32.605 -1.2667  0.4438  0.8069
10977TIP3   OH254421   0.556   3.096   8.581 -0.1052 -0.5650  0.5598
10977TIP3    H154422   0.528   3.038   8.510 -1.9266 -0.3469  1.0639
10977TIP3    H254423   0.614   3.160   8.538 -1.0270 -0.5482 -0.7057
10978TIP3   OH254424   4.386   0.434  34.433  0.2960  0.4399 -0.3553
10978TIP3    H154425   4.327   0.454  34.359 -0.2204  0.4927  0.0658
10978TIP3    H254426   4.340   0.468  34.510  1.6026  1.9737 -0.1826
10979TIP3   OH254427   0.183   1.890  33.629 -0.1816 -0.6518  0.3174
10979TIP3    H154428   0.148   1.978  33.648 -2.6152 -1.6843  0.9970
10979TIP3    H254429   0.260   1.906  33.575 -0.4886  1.9050  0.5134
10980TIP3   OH254430   2.047   2.310  16.781  0.0846  0.2239  0.0325
10980TIP3    H154431   1.952   2.313  16.795  0.0747  1.0197 -0.1266
10980TIP3    H254432   2.065   2.220  16.755 -0.2758 -0.5824  2.4217
10981TIP3   OH254433   2.043   2.318  37.714 -0.8397 -0.0585  0.1678
10981TIP3    H154434   1.976   2.383  37.693  0.4528  0.2017 -4.0233
10981TIP3    H254435   2.105   2.365  37.770 -1.9674  1.0001  0.5918
10982TIP3   OH254436   3.905   3.585  36.733  0.2068 -0.0223  0.3427
10982TIP3    H154437   3.983   3.530  36.736  0.3510  0.1997  0.6249
10982TIP3    H254438   3.912   3.633  36.650 -0.0241 -0.5795 -0.0096
10983TIP3   OH254439   1.571   0.393  16.756 -0.1116  0.0982 -0.5402
10983TIP3    H154440   1.591   0.299  16.762 -2.8128 -0.5828 -0.8824
10983TIP3    H254441   1.476   0.397  16.764  0.0405  2.9760  0.9862
10984TIP3   OH254442   0.864   0.934  16.221 -0.4655 -0.0380  0.0130
10984TIP3    H154443   0.917   0.932  16.142 -2.2353 -1.1869 -1.1969
10984TIP3    H254444   0.862   0.843  16.251  0.8826  0.4752  1.9518
10985TIP3   OH254445   1.948   3.259   8.849 -0.5240  0.2741 -0.3665
10985TIP3    H154446   2.011   3.317   8.893  0.1070 -0.7775  0.1457
10985TIP3    H254447   1.865   3.274   8.895  0.1926 -1.0582  1.4780
10986TIP3   OH254448   3.157   4.152   0.065  0.0506 -0.3314  0.5380
10986TIP3    H154449   3.159   4.150  -0.030  0.2493 -0.8268  0.5538
10986TIP3    H254450   3.248   4.145   0.092 -0.0898 -1.4415  0.7838
10987TIP3   OH254451   1.258   2.584   5.945  0.4198  0.4546  0.0665
10987TIP3    H154452   1.297   2.551   6.027  1.2033  2.6101  0.6240
10987TIP3    H254453   1.317   2.653   5.917 -1.2325  1.5115 -0.9526
10988TIP3   OH254454   2.013   1.057  16.726 -0.0238  0.0860  0.8613
10988TIP3    H154455   2.060   1.139  16.739 -0.7115  0.9131 -1.3885
10988TIP3    H254456   2.053   1.018  16.648  0.2169 -1.7011  1.8219
10989TIP3   OH254457   2.063   3.911  10.741 -0.0263 -0.2694 -0.7156
10989TIP3    H154458   1.985   3.864  10.771 -1.2203  1.7679 -0.4048
10989TIP3    H254459   2.058   3.907  10.646  1.1412 -2.6197 -0.7540
10990TIP3   OH254460   1.003   4.137  29.281  0.1617 -0.6855 -0.4954
10990TIP3    H154461   1.000   4.230  29.258  0.5360 -0.6736 -0.4899
10990TIP3    H254462   1.077   4.130  29.341  0.4342 -1.0769 -0.8755
10991TIP3   OH254463   0.031   2.060  13.107  0.1461 -0.2844 -0.1391
10991TIP3    H154464   0.084   2.005  13.049  2.4505  0.8768  0.7095
10991TIP3    H254465   0.072   2.050  13.193  0.4865  2.4497  0.1086
10992TIP3   OH254466   0.136   1.853  28.698  0.3625  0.3207 -0.0371
10992TIP3    H154467   0.080   1.814  28.630  1.5651  0.7807 -1.3424
10992TIP3    H254468   0.094   1.829  28.780 -1.6384  0.4776 -0.9559
10993TIP3   OH254469   4.386   2.103  29.486  0.3110  0.5735  0.0152
10993TIP3    H154470   4.334   2.134  29.412 -0.1016 -2.2342 -0.9870
10993TIP3    H254471   4.451   2.045  29.447 -0.2310 -1.3783  1.8106
10994TIP3   OH254472   0.104   3.683   3.351 -0.2547  0.3072 -0.5904
10994TIP3    H154473   0.185   3.730   3.335 -0.3486  0.6236 -0.1316
10994TIP3    H254474   0.070   3.663   3.263  1.5412 -1.9870 -0.8537
10995TIP3   OH254475   2.236   2.505  30.178 -0.3868 -0.4877  0.3377
10995TIP3    H154476   2.211   2.555  30.100  2.4561  1.0646  0.2975
10995TIP3    H254477   2.236   2.414  30.148 -1.4683 -0.1307 -0.8362
10996TIP3   OH254478   3.355   2.275  27.756 -0.4360 -0.7516  0.9749
10996TIP3    H154479   3.265   2.292  27.784 -1.3103  0.2779 -1.9953
10996TIP3    H254480   3.345   2.239  27.668  2.0780  0.6195  0.0464
10997TIP3   OH254481   4.241   0.885  25.390  0.0325  0.3315  0.1163
10997TIP3    H154482   4.194   0.949  25.337 -0.8912 -1.0414 -0.8061
10997TIP3    H254483   4.333   0.897  25.367 -0.0737  1.6158  0.3136
10998TIP3   OH254484   0.275   0.705  13.725  0.1729  0.0718  0.3575
10998TIP3    H154485   0.302   0.633  13.667  1.2997  0.8727 -0.1578
10998TIP3    H254486   0.221   0.663  13.792  0.1318 -1.1236 -0.3878
10999TIP3   OH254487   0.397   2.142   6.985 -0.6070  0.1140  0.2700
10999TIP3    H154488   0.490   2.156   7.005  0.0530 -0.6061 -1.9150
10999TIP3    H254489   0.357   2.228   6.995  1.0288  1.2564 -1.9684
11000TIP3   OH254490   2.059   2.537  35.772 -0.7657 -0.0215  0.2857
11000TIP3    H154491   2.030   2.524  35.863 -1.2914  0.9929  0.2728
11000TIP3    H254492   2.151   2.562  35.780 -1.3170  2.0659  0.7100
11001TIP3   OH254493   0.823   4.124  37.816 -0.0592  0.3489 -0.0844
11001TIP3    H154494   0.820   4.119  37.720  2.0175 -1.1967 -0.1305
11001TIP3    H254495   0.819   4.033  37.845 -1.3579  0.8261  1.3813
11002TIP3   OH254496   1.862   3.985  41.064  0.3260  0.6513 -0.2051
11002TIP3    H154497   1.891   3.896  41.084  0.4996  0.4564 -1.2452
11002TIP3    H254498   1.799   3.974  40.992  0.5465  1.3862 -0.5209
11003TIP3   OH254499   1.035   1.243  15.170  0.3318 -0.2640 -0.4449
11003TIP3    H154500   1.120   1.282  15.151  0.3513  0.4977  1.0754
11003TIP3    H254501   1.050   1.149  15.162  1.2471 -0.1256 -0.4352
11004TIP3   OH254502   3.845   2.764   6.444 -0.1979  0.1268  0.5210
11004TIP3    H154503   3.923   2.806   6.408 -0.4758  0.6374  0.5075
11004TIP3    H254504   3.812   2.710   6.373  0.1162 -0.0537  0.5115
11005TIP3   OH254505   2.559   3.167  10.858  0.2926 -0.3747 -0.3127
11005TIP3    H154506   2.620   3.160  10.784  0.6884 -1.3490  0.0910
11005TIP3    H254507   2.477   3.196  10.819  0.6977 -0.1762 -1.0314
11006TIP3   OH254508   1.030   1.454  11.242 -0.2520 -0.4988  0.2358
11006TIP3    H154509   1.110   1.410  11.269 -0.3452 -1.0703 -0.4034
11006TIP3    H254510   1.045   1.546  11.263 -0.6571 -1.0021  3.0119
11007TIP3   OH254511   4.029   2.086  30.860  0.1162 -0.2916 -0.0151
11007TIP3    H154512   4.074   2.116  30.939  2.9335  1.3511 -2.0966
11007TIP3    H254513   4.046   1.992  30.858  0.4841 -0.2649  0.9881
11008TIP3   OH254514   2.124   0.623  36.922 -0.0970  0.0802 -0.1641
11008TIP3    H154515   2.067   0.629  36.846 -1.0479 -0.2669  0.4950
11008TIP3    H254516   2.155   0.712  36.936  0.4695  0.0661 -1.2237
11009TIP3   OH254517   2.619   2.112   8.741  0.6580  0.2624  0.2295
11009TIP3    H154518   2.665   2.047   8.687  0.1219 -0.7674  0.9675
11009TIP3    H254519   2.644   2.196   8.704 -0.2859 -0.3984 -2.1435
11010TIP3   OH254520   1.331   3.122  39.125 -0.2875 -0.2433 -0.8393
11010TIP3    H154521   1.285   3.060  39.181 -0.2879 -0.1267 -0.7084
11010TIP3    H254522   1.293   3.109  39.038  1.1626 -1.8708 -1.2551
11011TIP3   OH254523   2.308   3.152  37.597 -0.0537 -0.1348  0.2863
11011TIP3    H154524   2.386   3.198  37.628  1.0647 -0.8571 -1.3284
11011TIP3    H254525   2.331   3.059  37.602 -0.4933 -0.3284 -0.9816
11012TIP3   OH254526   2.180   1.139  29.653  0.1530 -0.8248 -0.2746
11012TIP3    H154527   2.126   1.083  29.597  1.7704 -0.5946 -2.1634
11012TIP3    H254528   2.137   1.224  29.650 -0.9766 -1.3293  0.6676
11013TIP3   OH254529   0.642   2.385   6.341  0.0727 -0.7069 -0.2036
11013TIP3    H154530   0.659   2.332   6.419 -2.0641 -1.5528 -0.2516
11013TIP3    H254531   0.547   2.391   6.335  0.1541  2.8087 -0.4734
11014TIP3   OH254532   2.591   0.280  13.819 -0.3044  0.3280 -0.5131
11014TIP3    H154533   2.583   0.344  13.748 -1.6391 -0.5596 -1.1916
11014TIP3    H254534   2.501   0.250  13.835 -0.1068  0.7796  1.8334
11015TIP3   OH254535   2.107   3.782  28.290  0.1560 -0.3280  0.3419
11015TIP3    H154536   2.055   3.740  28.221 -3.3104 -0.0101  2.5337
11015TIP3    H254537   2.113   3.874  28.263  0.7466 -0.6124 -0.5421
11016TIP3   OH254538   0.478   0.790   5.690  0.7544  0.1503  0.0032
11016TIP3    H154539   0.414   0.779   5.759 -2.1892  0.7289 -2.4089
11016TIP3    H254540   0.561   0.763   5.729 -1.1513 -2.1474  2.8682
11017TIP3   OH254541   0.924   3.556   0.239 -0.8791 -0.5722  0.1796
11017TIP3    H154542   0.875   3.542   0.158 -1.5520 -0.9070  0.6355
11017TIP3    H254543   0.856   3.567   0.307 -0.3858  1.8187  0.3771
11018TIP3   OH254544   0.008   1.639  34.111 -0.6754 -0.1153  0.1291
11018TIP3    H154545   0.034   1.664  34.200 -0.0762  0.1049 -0.1039
11018TIP3    H254546   0.085   1.595  34.074  0.3601  2.7356 -1.4425
11019TIP3   OH254547   3.891   1.709   3.771  0.8283 -0.5966  0.2560
11019TIP3    H154548   3.931   1.691   3.856  2.5403  0.4066 -0.2893
11019TIP3    H254549   3.798   1.723   3.790  0.9624 -1.5824  1.7776
11020TIP3   OH254550   2.402   3.769  27.654 -0.0280  0.1098  0.3390
11020TIP3    H154551   2.483   3.726  27.678  1.2763  1.9050 -0.5645
11020TIP3    H254552   2.345   3.759  27.731  1.2528 -0.6815  1.2153
11021TIP3   OH254553   2.174   3.621   0.587 -0.1600 -0.0911 -0.3697
11021TIP3    H154554   2.237   3.552   0.608  0.7571  0.3439 -1.5740
11021TIP3    H254555   2.121   3.585   0.516  0.9012  0.7408 -1.6144
11022TIP3   OH254556   0.900   0.032  10.897  0.0324  0.0582 -0.3096
11022TIP3    H154557   0.951  -0.029  10.844 -1.3001  1.0388 -2.8646
11022TIP3    H254558   0.829  -0.021  10.933  0.4481 -0.4297 -0.1844
11023TIP3   OH254559   1.208   4.302   7.894 -0.3020 -0.2435 -0.0514
11023TIP3    H154560   1.234   4.377   7.948 -2.5619 -0.8792  2.1254
11023TIP3    H254561   1.114   4.294   7.909 -0.5306 -2.1240 -2.0723
11024TIP3   OH254562   2.802   2.518  39.282  0.3293  0.5771  0.0128
11024TIP3    H154563   2.744   2.568  39.224 -0.5843 -2.8139 -2.2975
11024TIP3    H254564   2.750   2.502  39.361 -1.7299 -1.5322 -1.6053
11025TIP3   OH254565   2.208   2.995   1.963  0.0244 -0.2623  0.6159
11025TIP3    H154566   2.274   3.035   1.907  0.2911 -0.9392  0.4256
11025TIP3    H254567   2.124   3.024   1.927  0.2018 -0.3232  0.1458
11026TIP3   OH254568   0.923   4.389  16.084 -0.4119  0.4620 -0.2465
11026TIP3    H154569   0.890   4.471  16.120 -0.9305  0.0987  0.1205
11026TIP3    H254570   0.942   4.335  16.160 -1.4210 -0.2783 -0.4875
11027TIP3   OH254571   1.713   3.672   4.064  0.0539 -0.3655  0.2849
11027TIP3    H154572   1.708   3.589   4.113 -0.4277 -1.2627 -1.2184
11027TIP3    H254573   1.806   3.686   4.051  0.1046 -1.9892 -1.5234
11028TIP3   OH254574   1.718   1.918   5.103 -0.5543 -0.0462 -0.1979
11028TIP3    H154575   1.798   1.881   5.140  1.3750  1.9997 -2.0117
11028TIP3    H254576   1.719   2.010   5.131 -1.0276  0.5904 -2.0800
11029TIP3   OH254577   0.258   3.868  12.285 -0.1738 -0.0638  0.1094
11029TIP3    H154578   0.271   3.961  12.304 -0.3160  0.0624 -0.4035
11029TIP3    H254579   0.200   3.837  12.355 -2.0521  0.7866 -0.9796
11030TIP3   OH254580   1.561   3.469  17.421 -0.0957 -0.1320 -0.6987
11030TIP3    H154581   1.594   3.553  17.452  0.7163 -0.5091 -0.4968
11030TIP3    H254582   1.616   3.447  17.346 -1.4870  0.3570 -1.8970
11031TIP3   OH254583   4.207   1.632   5.012 -0.0138  0.4526 -0.6115
11031TIP3    H154584   4.280   1.575   4.987  0.0345  0.9688 -1.7274
11031TIP3    H254585   4.249   1.715   5.037 -0.0778  0.0192  1.0597
11032TIP3   OH254586   1.702   2.176  38.511  0.0225 -0.1595  0.3236
11032TIP3    H154587   1.712   2.147  38.602  2.0535 -1.1269 -0.1502
11032TIP3    H254588   1.611   2.155  38.490 -0.4806  0.0388  2.1057
11033TIP3   OH254589   2.033   0.378   0.704 -0.5917  0.2586  0.1192
11033TIP3    H154590   2.058   0.398   0.614  1.3600 -0.0788  0.5326
11033TIP3    H254591   2.074   0.293   0.722  0.3504  1.0134  1.7683
11034TIP3   OH254592   2.851   0.138   5.245 -0.6193  0.7638  0.4187
11034TIP3    H154593   2.891   0.176   5.167  1.6055  3.0782  2.5248
11034TIP3    H254594   2.768   0.185   5.254 -2.0084 -1.0547 -1.5953
11035TIP3   OH254595   2.300   0.427  32.339 -0.3513 -0.0178  0.4672
11035TIP3    H154596   2.368   0.370  32.301 -1.3628 -0.3406 -0.9686
11035TIP3    H254597   2.341   0.513  32.343  0.5504 -0.4452  0.8067
11036TIP3   OH254598   3.034   1.361   2.614 -0.2666  0.4797  0.6795
11036TIP3    H154599   3.064   1.349   2.704  1.3750  0.8668  0.2353
11036TIP3    H254600   3.006   1.452   2.610  1.3676  1.0129  0.3992
11037TIP3   OH254601   1.815   2.921  28.008  0.5497  0.0259 -1.0705
11037TIP3    H154602   1.820   2.857  27.936 -0.7936 -1.8473  0.4181
11037TIP3    H254603   1.869   2.884  28.077  2.9335  2.4554 -1.4398
11038TIP3   OH254604   1.392   0.953  28.433  0.0217  0.2797 -0.4475
11038TIP3    H154605   1.451   0.983  28.364  0.8283 -1.0715 -0.3958
11038TIP3    H254606   1.450   0.934  28.507 -0.8180  1.6589  0.6124
11039TIP3   OH254607   0.375   3.763  14.083  0.0356 -0.0382  0.4926
11039TIP3    H154608   0.389   3.858  14.082 -0.0374 -0.0281 -0.6676
11039TIP3    H254609   0.345   3.744  14.172  0.1312  1.0107  0.7605
11040TIP3   OH254610   1.119   0.341  37.150  0.5156 -0.2283 -0.5107
11040TIP3    H154611   1.196   0.364  37.098 -0.5789 -0.1399 -2.1422
11040TIP3    H254612   1.062   0.417  37.144  0.9034  0.3385  1.9704
11041TIP3   OH254613   3.071   1.112  40.603  0.3926 -0.1437  0.0037
11041TIP3    H154614   3.015   1.108  40.525  0.7297  0.5330 -0.2811
11041TIP3    H254615   3.088   1.205  40.615  2.5686 -0.4045 -0.7058
11042TIP3   OH254616   2.782   0.850   4.681  0.2795 -0.5054  0.1840
11042TIP3    H154617   2.779   0.852   4.777 -1.0839 -0.9253  0.1721
11042TIP3    H254618   2.723   0.779   4.657 -0.6800  0.6381 -1.0000
11043TIP3   OH254619   2.544   2.784  37.433 -0.1084  0.5897  0.8257
11043TIP3    H154620   2.577   2.831  37.356  0.4798 -0.7878  0.1969
11043TIP3    H254621   2.450   2.800  37.433 -0.2106  0.1391 -0.5565
11044TIP3   OH254622   3.656   1.237  10.684 -0.8002  0.7910  0.5119
11044TIP3    H154623   3.698   1.280  10.758 -1.1760 -0.8152  1.7157
11044TIP3    H254624   3.641   1.307  10.621  2.2835  1.6939  0.6313
11045TIP3   OH254625   2.381   0.505  29.473 -0.5027  0.1178  0.2799
11045TIP3    H154626   2.287   0.487  29.482 -0.2857 -0.7899  0.7864
11045TIP3    H254627   2.386   0.568  29.400 -1.6040  1.2379  1.1211
11046TIP3   OH254628   2.387   1.537  11.701 -0.2381  0.1883 -0.2380
11046TIP3    H154629   2.446   1.540  11.776 -1.5106 -0.1491  0.8312
11046TIP3    H254630   2.444   1.530  11.625  1.1726  2.4132  0.5264
11047TIP3   OH254631   1.962   3.367  30.471  0.1453 -0.1773  0.1946
11047TIP3    H154632   2.032   3.391  30.411  0.0859 -0.5080 -0.0064
11047TIP3    H254633   1.971   3.428  30.544  1.2281 -0.8145  0.6088
11048TIP3   OH254634   0.127   3.856  11.530  0.5328 -0.4196  0.0295
11048TIP3    H154635   0.093   3.836  11.443 -0.2584 -1.1519  0.4847
11048TIP3    H254636   0.170   3.941  11.521 -3.0498  1.5531 -0.1889
11049TIP3   OH254637   4.341   3.318  35.567 -0.6517  0.0886  0.2688
11049TIP3    H154638   4.293   3.260  35.626 -0.6181 -0.1811  0.0339
11049TIP3    H254639   4.433   3.298  35.584 -0.6533 -0.8831 -0.7505
11050TIP3   OH254640   1.146   2.746   1.239  0.1063  0.7046 -0.1975
11050TIP3    H154641   1.173   2.719   1.151  0.4381  2.3676 -0.6418
11050TIP3    H254642   1.066   2.696   1.256 -0.5080  1.0652 -1.8373
11051TIP3   OH254643   3.966   1.014  22.136 -0.0872  0.2042 -0.1422
11051TIP3    H154644   4.013   0.946  22.087  0.0258 -0.9747  1.5148
11051TIP3    H254645   3.985   0.995  22.228 -0.1225  2.4702  0.3914
11052TIP3   OH254646   1.901   4.341  12.391  0.2731  0.4028 -0.1270
11052TIP3    H154647   1.898   4.427  12.349 -0.8843  1.2560  1.6460
11052TIP3    H254648   1.994   4.326  12.408  0.4788  1.3105 -0.4256
11053TIP3   OH254649   1.506   1.625   3.423 -0.4222  0.3041 -0.0042
11053TIP3    H154650   1.548   1.584   3.347 -0.7775  0.2926 -0.1961
11053TIP3    H254651   1.437   1.680   3.385 -1.2851 -0.5059  0.3643
11054TIP3   OH254652   0.553   1.186  34.495  0.2504 -0.0602  0.2849
11054TIP3    H154653   0.501   1.145  34.564 -0.2697  1.2571  0.7284
11054TIP3    H254654   0.492   1.197  34.422  0.7694 -1.3452 -0.3731
11055TIP3   OH254655   1.227   2.526  15.804  0.6329 -0.3067  0.7252
11055TIP3    H154656   1.263   2.438  15.790  1.8834  0.0849  1.2940
11055TIP3    H254657   1.169   2.541  15.729  2.6270 -0.5031 -0.9533
11056TIP3   OH254658   1.286   1.441  27.806  0.1783  0.2699 -0.2649
11056TIP3    H154659   1.342   1.400  27.871 -1.8803 -1.3927  0.5732
11056TIP3    H254660   1.276   1.532  27.835 -0.9198 -0.4993  1.9773
11057TIP3   OH254661   2.053   0.093  17.931 -0.2271 -0.8184  0.3512
11057TIP3    H154662   2.141   0.062  17.954  0.2873  0.2227 -0.1557
11057TIP3    H254663   1.994   0.031  17.975  0.7430 -1.0272  1.4291
11058TIP3   OH254664   3.887   0.128  27.045 -0.1167  0.2684  0.0101
11058TIP3    H154665   3.922   0.198  27.100 -1.2299 -1.2570  2.9221
11058TIP3    H254666   3.917   0.048  27.088  0.7841 -1.1221 -2.9705
11059TIP3   OH254667   4.126   3.899  34.265 -0.1767  0.5019  0.2407
11059TIP3    H154668   4.069   3.910  34.189 -0.4890  2.6452  0.7216
11059TIP3    H254669   4.211   3.872  34.228 -0.4070  1.2136 -0.8481
11060TIP3   OH254670   2.211   4.354   0.507  0.4114 -0.2894 -0.4397
11060TIP3    H154671   2.261   4.287   0.552 -0.1444 -1.2080 -1.1532
11060TIP3    H254672   2.254   4.436   0.530  0.4561 -0.7702  1.3188
11061TIP3   OH254673   2.444   1.861   9.296 -0.2528 -0.2701 -0.4590
11061TIP3    H154674   2.529   1.818   9.310 -0.5701 -0.7392  0.0565
11061TIP3    H254675   2.380   1.797   9.326 -0.7419  0.6032  0.4146
11062TIP3   OH254676   1.935   2.724  15.551  0.1528  0.3446  0.0567
11062TIP3    H154677   2.001   2.664  15.586 -1.6098 -1.1257  1.0039
11062TIP3    H254678   1.923   2.697  15.460  0.6742  0.4779 -0.0568
11063TIP3   OH254679   3.258   0.555  34.822  0.4756  0.0553  0.3759
11063TIP3    H154680   3.178   0.567  34.772 -0.3324 -1.8435  1.1394
11063TIP3    H254681   3.302   0.640  34.817 -1.5264  1.1215 -0.1074
11064TIP3   OH254682   3.701   0.495  37.386  0.4007  0.0024 -0.1377
11064TIP3    H154683   3.657   0.536  37.461  0.7097 -0.6149  0.3885
11064TIP3    H254684   3.630   0.477  37.324 -0.1566 -1.1709  0.7953
11065TIP3   OH254685   2.344   2.942   6.686 -0.2067 -0.3451 -0.2647
11065TIP3    H154686   2.387   2.865   6.723 -0.7815 -0.3570  0.3886
11065TIP3    H254687   2.406   3.013   6.699 -0.3108 -0.3929  0.5223
11066TIP3   OH254688   2.240   4.259  31.952  0.1462  0.1772  0.3168
11066TIP3    H154689   2.174   4.196  31.982 -0.2356  0.6910  0.5838
11066TIP3    H254690   2.202   4.344  31.973  1.2538  0.4741  1.2453
11067TIP3   OH254691   2.274   3.024  40.283  0.2599  0.3810 -0.5988
11067TIP3    H154692   2.292   3.105  40.330  0.6667  0.2260 -0.4876
11067TIP3    H254693   2.307   2.955  40.340  0.0281  0.1398 -0.7517
11068TIP3   OH254694   4.365   0.422   4.801  0.9818 -0.0900  0.0167
11068TIP3    H154695   4.295   0.480   4.830 -0.4989 -0.9211 -1.6863
11068TIP3    H254696   4.384   0.367   4.876  2.8278  2.8536  1.8918
11069TIP3   OH254697   4.193   2.262  41.160 -0.4216  0.5415  0.0581
11069TIP3    H154698   4.261   2.297  41.102 -0.9791 -0.2505 -1.1130
11069TIP3    H254699   4.166   2.337  41.213 -0.6207  1.5684 -1.4380
11070TIP3   OH254700   0.555   3.788  34.083  0.9569  0.0504  0.0245
11070TIP3    H154701   0.634   3.809  34.132  1.5923 -0.6777 -0.6612
11070TIP3    H254702   0.500   3.740  34.144  0.7675  1.0804  0.6903
11071TIP3   OH254703   3.787   3.781  34.450 -0.2138  0.1461  0.2338
11071TIP3    H154704   3.826   3.835  34.519  0.3175  1.6079 -1.1259
11071TIP3    H254705   3.856   3.775  34.383 -1.5664  1.0090 -1.3081
11072TIP3   OH254706   3.057   1.345   9.036  0.1293  0.3281  0.0737
11072TIP3    H154707   3.078   1.436   9.058  3.3799 -0.7472  2.3715
11072TIP3    H254708   3.115   1.324   8.964  0.1277 -0.1762  0.2160
11073TIP3   OH254709   3.443   2.818  32.610  0.9054  0.3100 -0.4761
11073TIP3    H154710   3.474   2.755  32.544  0.8642  0.1922 -0.3837
11073TIP3    H254711   3.482   2.901  32.584  1.1301  0.2038 -0.4778
11074TIP3   OH254712   3.529   3.132   8.031  0.5009 -0.3581 -0.1619
11074TIP3    H154713   3.560   3.140   8.121  2.3690 -0.3536 -0.7688
11074TIP3    H254714   3.528   3.221   7.997 -0.8756 -0.2757  0.0352
11075TIP3   OH254715   1.393   0.956  37.203 -0.0026  0.7172  0.4853
11075TIP3    H154716   1.438   0.931  37.284  0.9446 -0.8506 -0.4689
11075TIP3    H254717   1.360   1.045  37.220  0.3867  0.5237  2.4767
11076TIP3   OH254718   3.780   2.317  10.799 -0.0727 -0.7407 -0.5090
11076TIP3    H154719   3.728   2.285  10.725 -0.3498  0.0958 -0.6896
11076TIP3    H254720   3.869   2.287  10.780 -0.2512 -1.0645 -0.8648
11077TIP3   OH254721   3.923   2.432  10.073 -0.0883  0.0118  0.3624
11077TIP3    H154722   3.876   2.403  10.151 -1.0721  0.2050 -0.1402
11077TIP3    H254723   3.868   2.405  10.000  0.2155  0.9011 -0.2176
11078TIP3   OH254724   3.115   1.280   0.065 -0.2748  0.3423 -0.1552
11078TIP3    H154725   3.157   1.339   0.128  0.6918 -0.2378 -0.2323
11078TIP3    H254726   3.097   1.200   0.115  4.1395 -1.7388 -1.3518
11079TIP3   OH254727   1.377   4.232  30.682  0.6229 -0.2619 -0.2888
11079TIP3    H154728   1.367   4.183  30.601  1.7314  0.1323 -0.6740
11079TIP3    H254729   1.405   4.319  30.654 -0.6445  0.4016  0.4223
11080TIP3   OH254730   3.925   4.087  34.313 -0.4154 -0.3910  0.2448
11080TIP3    H154731   4.000   4.029  34.320 -0.3129 -0.2929 -0.0116
11080TIP3    H254732   3.963   4.175  34.310 -0.5966 -0.2708  1.1526
11081TIP3   OH254733   1.458   1.068  27.595 -0.3146  0.1825 -0.1267
11081TIP3    H154734   1.377   1.067  27.646  0.4956  1.4363  1.2544
11081TIP3    H254735   1.439   1.122  27.519 -1.0841 -0.4278 -0.3737
11082TIP3   OH254736   1.250   4.149  10.693 -0.6992 -0.8923  0.2992
11082TIP3    H154737   1.331   4.201  10.697 -1.2353 -0.0848  1.3243
11082TIP3    H254738   1.267   4.083  10.626  0.2272  0.2385 -0.6177
11083TIP3   OH254739   3.822   1.426  40.395 -0.2881  0.4149 -0.6642
11083TIP3    H154740   3.903   1.401  40.351  1.5799  1.3372  1.9735
11083TIP3    H254741   3.815   1.365  40.469 -1.5197  0.9221 -0.3347
11084TIP3   OH254742   3.995   1.958  39.054 -0.5999 -0.1712 -0.5291
11084TIP3    H154743   3.922   1.906  39.020 -0.3357 -1.0022  0.1443
11084TIP3    H254744   3.967   1.987  39.140 -0.2252 -0.2863 -0.3672
11085TIP3   OH254745   3.634   1.524   3.169 -0.3625 -0.3110  0.9203
11085TIP3    H154746   3.559   1.561   3.216 -0.0071  0.3352  0.9786
11085TIP3    H254747   3.707   1.583   3.188 -0.1590 -0.1439 -0.2744
11086TIP3   OH254748   0.654   0.004  34.781  1.1491 -0.1515  0.5534
11086TIP3    H154749   0.741  -0.011  34.745  0.9106 -1.4564  0.4427
11086TIP3    H254750   0.658   0.091  34.821  2.1628  0.2563 -0.4093
11087TIP3   OH254751   3.638   1.129  31.579  0.3509 -0.0324  0.4297
11087TIP3    H154752   3.572   1.170  31.524  2.6414  1.6233 -1.2809
11087TIP3    H254753   3.637   1.037  31.553  0.0936  0.3617 -1.0599
11088TIP3   OH254754   0.573   2.735  29.179 -0.1484  0.4075 -0.4799
11088TIP3    H154755   0.572   2.741  29.084 -0.9075  0.3209 -0.4855
11088TIP3    H254756   0.655   2.690  29.199 -0.1490  0.1055 -1.1161
11089TIP3   OH254757   1.607   1.374   4.813 -0.1558  0.4598  0.0019
11089TIP3    H154758   1.610   1.453   4.758 -0.5599  0.4331 -0.0594
11089TIP3    H254759   1.691   1.374   4.859  0.3636  0.2544 -0.9307
11090TIP3   OH254760   2.219   2.016  41.652 -0.4807  0.4739  0.5454
11090TIP3    H154761   2.184   1.960  41.721  1.1887  0.0414  1.1078
11090TIP3    H254762   2.143   2.063  41.617 -2.0267 -2.2915 -0.1262
11091TIP3   OH254763   0.358   1.471   2.966 -0.3169  0.4468 -0.1793
11091TIP3    H154764   0.266   1.497   2.959 -0.8662 -0.9046  1.5234
11091TIP3    H254765   0.389   1.471   2.875 -2.1858  0.2574 -0.8657
11092TIP3   OH254766   1.976   2.204  28.492  0.1677  0.0044 -0.4505
11092TIP3    H154767   1.898   2.150  28.479  1.1171 -1.1851 -1.4789
11092TIP3    H254768   1.981   2.216  28.587  0.0264 -1.8819 -0.1701
11093TIP3   OH254769   1.755   3.260   4.929  0.1545  0.6478 -0.0520
11093TIP3    H154770   1.836   3.310   4.938 -0.6535  1.8388  0.9639
11093TIP3    H254771   1.764   3.188   4.991  0.4346  0.8019  0.0881
11094TIP3   OH254772   1.573   0.687  12.088  0.3430  0.2264 -0.4794
11094TIP3    H154773   1.505   0.628  12.123  0.4353  0.3168 -0.1432
11094TIP3    H254774   1.595   0.649  12.003  1.0080 -0.7276  0.0907
11095TIP3   OH254775   1.963   0.016  31.105  0.0645 -0.3608 -0.0554
11095TIP3    H154776   1.890   0.007  31.043  0.5500 -0.4581 -0.6250
11095TIP3    H254777   1.988  -0.074  31.125 -0.0447 -0.3284  0.2254
11096TIP3   OH254778   1.321   2.717  38.378  0.1561 -0.3214  0.4600
11096TIP3    H154779   1.226   2.724  38.386  0.2668 -0.4224  2.1501
11096TIP3    H254780   1.340   2.624  38.392  0.6091 -0.0655  1.6338
11097TIP3   OH254781   4.375   0.981   3.804  0.0281  0.0017 -0.3790
11097TIP3    H154782   4.402   0.904   3.755  0.1014 -0.1529 -0.1031
11097TIP3    H254783   4.297   1.013   3.759  0.4824  0.2645 -0.9929
11098TIP3   OH254784   0.695   2.977  32.811 -0.1823  0.2869  0.4367
11098TIP3    H154785   0.704   2.909  32.877  0.4382  0.1994  0.2779
11098TIP3    H254786   0.781   2.980  32.768 -0.3379  0.8622  0.1454
11099TIP3   OH254787   0.430   3.490  39.787  0.1397  0.4839  0.5128
11099TIP3    H154788   0.456   3.443  39.708 -0.6373 -1.4877  1.3569
11099TIP3    H254789   0.375   3.561  39.756 -1.0018 -0.8562 -0.7118
11100TIP3   OH254790   3.664   2.438  11.007 -0.4924  0.1552 -0.8128
11100TIP3    H154791   3.719   2.409  10.935 -1.9326 -0.8244 -1.5572
11100TIP3    H254792   3.591   2.377  11.008 -0.1591 -0.3300  1.9703
11101TIP3   OH254793   3.428   0.084  36.854 -0.3857 -0.2988  0.2641
11101TIP3    H154794   3.437   0.172  36.819  2.4782 -1.2953 -1.8487
11101TIP3    H254795   3.334   0.072  36.865 -0.9237  2.5966 -0.4261
11102TIP3   OH254796   3.447   0.896  34.268  0.0643  0.5530  0.1394
11102TIP3    H154797   3.369   0.943  34.298 -0.5368 -0.4002  0.1527
11102TIP3    H254798   3.419   0.851  34.189  0.3925 -0.3402  0.5102
11103TIP3   OH254799   0.996   4.229  12.357 -0.6691 -0.1884 -0.5420
11103TIP3    H154800   0.965   4.144  12.328 -0.3443 -0.2351 -0.7635
11103TIP3    H254801   0.958   4.291  12.296 -2.0047 -0.0294  0.4221
11104TIP3   OH254802   0.950   1.710   8.574 -0.0829 -0.0881  0.1128
11104TIP3    H154803   0.874   1.675   8.619  0.8668 -0.6633  1.3422
11104TIP3    H254804   0.994   1.633   8.537 -0.1046  0.2350 -0.5993
11105TIP3   OH254805   0.276   2.101  29.621  0.0448  0.3457 -0.0631
11105TIP3    H154806   0.361   2.086  29.663 -0.3577  0.9418  1.0083
11105TIP3    H254807   0.272   2.196  29.608 -1.0388  0.4995  1.2087
11106TIP3   OH254808   3.819   3.084  27.078  0.3223 -0.1543  0.0867
11106TIP3    H154809   3.773   3.152  27.127  1.9829  0.1156  1.3409
11106TIP3    H254810   3.755   3.014  27.069 -0.5804  0.5041  1.1155
11107TIP3   OH254811   0.240   1.866   4.794  0.0457 -0.1765  0.5739
11107TIP3    H154812   0.269   1.902   4.710 -1.7752 -0.2318 -0.1246
11107TIP3    H254813   0.316   1.819   4.827  1.5244  1.6911  0.0492
11108TIP3   OH254814   2.223   3.556   6.788 -0.0546  0.2044 -0.7358
11108TIP3    H154815   2.134   3.547   6.823 -0.9445  1.1473 -2.6116
11108TIP3    H254816   2.280   3.546   6.864 -1.8224  1.1672  0.8013
11109TIP3   OH254817   4.371   0.875  29.420  0.4286  0.1436 -0.5040
11109TIP3    H154818   4.405   0.821  29.490  1.2340 -0.8037 -1.5811
11109TIP3    H254819   4.279   0.849  29.411  0.5432 -0.3174 -0.3463
11110TIP3   OH254820   0.616   0.667   4.056 -0.5052 -0.3435 -0.0814
11110TIP3    H154821   0.664   0.681   4.138  0.1261 -2.1886 -0.0898
11110TIP3    H254822   0.621   0.750   4.011 -0.3012  0.5285  1.4659
11111TIP3   OH254823   1.096   0.267  39.875 -0.2819  0.3306  0.1697
11111TIP3    H154824   1.089   0.202  39.805 -0.5706 -0.2658  0.7474
11111TIP3    H254825   1.104   0.350  39.829  0.8847 -0.1726 -0.5927
11112TIP3   OH254826   2.572   1.064  32.415 -0.4460  0.4918  0.0884
11112TIP3    H154827   2.563   1.143  32.468  2.0786  0.5154  0.6204
11112TIP3    H254828   2.488   1.019  32.425 -0.9235  1.6835  2.1330
11113TIP3   OH254829   4.018   4.112  29.937  1.0637 -0.1189  0.3835
11113TIP3    H154830   4.056   4.197  29.961  0.4434  0.2828 -0.0353
11113TIP3    H254831   3.932   4.111  29.978 -0.9637  1.4865 -3.3255
11114TIP3   OH254832   2.910   2.708  38.193 -0.4681 -0.1745 -0.2286
11114TIP3    H154833   2.826   2.672  38.165 -0.3951 -0.1461 -0.4908
11114TIP3    H254834   2.946   2.643  38.253  0.0878 -0.9832 -1.4047
11115TIP3   OH254835   2.012   4.020  36.183  0.4338  0.3573  0.7942
11115TIP3    H154836   1.976   3.977  36.260  0.3886 -0.4881  0.3178
11115TIP3    H254837   2.100   3.982  36.173  0.0409 -0.3500 -0.1712
11116TIP3   OH254838   2.321   3.264   5.272 -0.7540  0.5462 -0.4929
11116TIP3    H154839   2.282   3.346   5.241  0.5609  2.1187  1.6741
11116TIP3    H254840   2.405   3.258   5.227 -1.0730  0.0874 -1.0388
11117TIP3   OH254841   2.346   2.871   8.416  0.1670  0.4539 -0.3025
11117TIP3    H154842   2.362   2.873   8.510 -0.7441  2.3814 -0.1331
11117TIP3    H254843   2.432   2.851   8.377  0.6397  0.0718  0.9030
11118TIP3   OH254844   1.735   0.720  31.746  0.5435 -0.3276  0.8695
11118TIP3    H154845   1.769   0.631  31.755 -1.1331 -0.9544  1.4009
11118TIP3    H254846   1.706   0.744  31.834  0.6802  0.6269  0.6672
11119TIP3   OH254847   1.094   1.706  12.221  0.1983 -0.3554 -0.1127
11119TIP3    H154848   1.160   1.706  12.290  0.1019 -0.2738 -0.0200
11119TIP3    H254849   1.144   1.708  12.139  0.3862  3.5383 -0.1105
11120TIP3   OH254850   2.531   0.211   8.349  0.2684 -0.2842  0.3607
11120TIP3    H154851   2.579   0.244   8.273 -0.7908 -1.2353 -0.7659
11120TIP3    H254852   2.440   0.235   8.332 -0.0588 -0.9923  1.0561
11121TIP3   OH254853   1.929   3.138   9.838  0.1852 -0.3075  0.2745
11121TIP3    H154854   1.893   3.226   9.846  1.4315  0.3260 -0.6332
11121TIP3    H254855   1.871   3.083   9.891 -0.6401  1.0412  0.8274
11122TIP3   OH254856   2.165   1.046  12.127  0.5217 -0.8131  0.3523
11122TIP3    H154857   2.216   0.972  12.159 -0.3498 -1.6007 -0.0274
11122TIP3    H254858   2.192   1.056  12.036  0.6733 -0.6223  0.4162
11123TIP3   OH254859   0.192   1.636   9.160  0.4431 -0.2957 -0.1850
11123TIP3    H154860   0.201   1.684   9.077  1.9954 -0.9606 -0.4340
11123TIP3    H254861   0.161   1.549   9.134  1.0671 -0.5503 -0.1041
11124TIP3   OH254862   2.965   1.934  39.105  0.0449 -0.1066 -0.1788
11124TIP3    H154863   2.970   1.980  39.022  0.1997 -0.4275 -0.3462
11124TIP3    H254864   2.878   1.955  39.139  0.7137  1.6863  0.5469
11125TIP3   OH254865   3.738   2.299  41.601  0.1598 -0.2099 -0.2575
11125TIP3    H154866   3.819   2.344  41.625  0.1618 -0.9428  1.2661
11125TIP3    H254867   3.670   2.346  41.649 -0.0922 -0.6058 -0.2268
11126TIP3   OH254868   2.025   3.239   6.698 -0.6218 -0.2542 -0.3062
11126TIP3    H154869   1.948   3.182   6.701 -1.8610  1.3230 -0.7326
11126TIP3    H254870   2.033   3.273   6.787  0.8086 -1.8968  0.2480
11127TIP3   OH254871   3.965   1.799  25.717  0.8303  0.1834  0.2921
11127TIP3    H154872   3.978   1.852  25.796  1.4089  0.6850 -0.1300
11127TIP3    H254873   4.010   1.848  25.648  2.6361 -1.5767  0.1432
11128TIP3   OH254874   0.792   2.521  39.233 -0.3270  0.3045  0.1908
11128TIP3    H154875   0.741   2.504  39.154  1.0064 -0.2398 -0.5735
11128TIP3    H254876   0.881   2.537  39.202  0.4627 -0.9900  1.6570
11129TIP3   OH254877   1.812   1.846  11.400  0.2472  0.0462 -0.2334
11129TIP3    H154878   1.802   1.896  11.319 -1.0195 -0.0113 -0.1421
11129TIP3    H254879   1.806   1.755  11.372 -0.9445  0.0376 -0.0155
11130TIP3   OH254880   4.070   0.512  23.306  0.4776  0.0045 -0.0771
11130TIP3    H154881   4.101   0.542  23.391 -0.2300 -1.2450  0.6444
11130TIP3    H254882   4.029   0.590  23.267 -0.5933  0.2091  1.4000
11131TIP3   OH254883   1.881   1.809   7.305 -0.0758 -0.7525  0.5961
11131TIP3    H154884   1.807   1.765   7.348 -1.0205  0.6259  0.4493
11131TIP3    H254885   1.857   1.810   7.212 -1.2969  2.1692  0.8420
11132TIP3   OH254886   0.501   0.277  35.494  0.8112 -0.0245  0.3063
11132TIP3    H154887   0.438   0.247  35.428 -0.4529  0.0887  1.4082
11132TIP3    H254888   0.561   0.334  35.447  0.1933 -0.2909 -0.8249
11133TIP3   OH254889   1.918   3.606  35.537  0.1816 -0.6256  0.4803
11133TIP3    H154890   1.943   3.665  35.607  0.5691 -3.1036  2.5892
11133TIP3    H254891   1.826   3.628  35.519  0.3393  0.6403  1.1095
11134TIP3   OH254892   2.354   0.395  28.549 -0.1542 -0.6435  0.8289
11134TIP3    H154893   2.394   0.392  28.636  0.5135 -1.0970  0.5151
11134TIP3    H254894   2.428   0.389  28.488 -0.6693 -1.1352  0.2309
11135TIP3   OH254895   1.228   0.558   9.101 -0.4234 -0.1235  0.1790
11135TIP3    H154896   1.152   0.583   9.153 -0.2876  1.2854 -0.2538
11135TIP3    H254897   1.302   0.602   9.144 -0.0768 -0.2526 -0.2757
11136TIP3   OH254898   1.145   2.149  27.049  0.3917  0.8175 -0.0105
11136TIP3    H154899   1.127   2.227  26.996  1.2183  0.9834 -0.0615
11136TIP3    H254900   1.134   2.076  26.989  0.5074  0.9520 -0.1959
11137TIP3   OH254901   1.943   3.950  12.592 -0.4670 -0.0705  0.3667
11137TIP3    H154902   1.872   4.013  12.580 -0.5366  0.4438  2.9080
11137TIP3    H254903   1.906   3.880  12.645 -0.1554 -1.9511 -1.7383
11138TIP3   OH254904   2.938   2.030  37.419 -0.0252  0.0819  0.4422
11138TIP3    H154905   2.996   1.988  37.483 -1.0003  0.3490  1.5426
11138TIP3    H254906   2.852   1.990  37.435 -0.2656  0.0601 -0.8083
11139TIP3   OH254907   2.871   1.378   9.988  0.1753  0.3819  0.8815
11139TIP3    H154908   2.791   1.356  10.037  1.1059 -0.3291  2.1283
11139TIP3    H254909   2.842   1.441   9.923 -1.7764 -1.2214  0.0887
11140TIP3   OH254910   0.694   4.111  14.757  0.3908 -0.3210  0.0417
11140TIP3    H154911   0.770   4.064  14.723 -0.5526 -1.6409 -0.3325
11140TIP3    H254912   0.705   4.108  14.852  1.5812  0.8854 -0.0232
11141TIP3   OH254913   2.858   3.779  13.444 -0.4061 -0.1737 -0.2744
11141TIP3    H154914   2.778   3.808  13.399  0.0717  1.2657 -0.2543
11141TIP3    H254915   2.880   3.852  13.502  1.1236 -0.3862 -0.5465
11142TIP3   OH254916   3.277   3.121  12.274 -0.1225 -0.2507  0.1312
11142TIP3    H154917   3.256   3.028  12.289  0.8862 -0.1082  2.9296
11142TIP3    H254918   3.366   3.120  12.239  0.1369 -0.3473  0.7733
11143TIP3   OH254919   0.258   1.746  41.125 -0.3163 -0.2684  0.4151
11143TIP3    H154920   0.253   1.812  41.193  0.6258 -1.0577  1.2831
11143TIP3    H254921   0.173   1.702  41.128 -1.1887  1.2762 -0.6024
11144TIP3   OH254922   1.377   3.821  30.753 -0.0820  0.0541 -0.3077
11144TIP3    H154923   1.445   3.880  30.785  0.4777  0.2780 -1.7918
11144TIP3    H254924   1.388   3.822  30.657 -2.5910  0.5837 -0.6615
11145TIP3   OH254925   0.159   2.024   9.153 -0.6184 -0.7378 -0.1720
11145TIP3    H154926   0.111   2.065   9.225  0.5407  0.9853 -0.3116
11145TIP3    H254927   0.224   1.969   9.196 -0.5900 -0.5033  0.0956
11146TIP3   OH254928   3.471   2.889  41.267 -0.2063  0.1890 -0.1228
11146TIP3    H154929   3.437   2.953  41.205 -0.1357  0.1662 -0.1820
11146TIP3    H254930   3.564   2.909  41.275  0.0370 -0.5448 -0.9201
11147TIP3   OH254931   1.917   1.434  13.122 -0.4473 -0.6432 -0.0155
11147TIP3    H154932   1.883   1.345  13.123 -2.9032  0.0945 -2.8618
11147TIP3    H254933   1.993   1.429  13.063  1.8261 -1.4082  2.7443
11148TIP3   OH254934   0.274   0.263  26.827 -0.0792  0.3412 -0.7398
11148TIP3    H154935   0.210   0.315  26.777  0.0303  0.4563 -0.7602
11148TIP3    H254936   0.276   0.179  26.781  1.6019  1.1315 -2.2369
11149TIP3   OH254937   2.251   2.338  35.159 -0.3028 -0.3777  0.2093
11149TIP3    H154938   2.188   2.402  35.193 -0.8249 -0.8012  0.0694
11149TIP3    H254939   2.283   2.292  35.236 -2.6054 -2.3659  0.1184
11150TIP3   OH254940   1.002   0.055   5.206  0.2042  0.2046  0.6216
11150TIP3    H154941   1.087   0.084   5.173  0.8011 -1.2184  0.8713
11150TIP3    H254942   0.970   0.129   5.257  1.5962  0.5191  1.0739
11151TIP3   OH254943   4.169   0.197   7.756 -0.4541 -0.2239 -0.0632
11151TIP3    H154944   4.179   0.288   7.783  1.2943 -0.0310 -1.1951
11151TIP3    H254945   4.258   0.164   7.748 -1.0238 -1.7286 -0.6859
11152TIP3   OH254946   1.086   0.598  11.069 -0.0340 -0.1005 -0.2275
11152TIP3    H154947   1.107   0.522  11.123 -1.7999 -0.0042  0.6626
11152TIP3    H254948   1.071   0.669  11.131 -1.8109  0.0805 -0.8010
11153TIP3   OH254949   2.801   0.979  38.363  0.5400 -0.2180 -0.5933
11153TIP3    H154950   2.885   1.000  38.322  0.7151  0.9742  0.3295
11153TIP3    H254951   2.739   1.041  38.326 -0.5862 -2.6291 -3.1618
11154TIP3   OH254952   2.465   3.928   5.457  0.2508 -0.5320 -0.3983
11154TIP3    H154953   2.439   3.838   5.471 -0.8755 -0.1073  0.3511
11154TIP3    H254954   2.399   3.980   5.503 -0.6791  0.7659 -2.9613
11155TIP3   OH254955   3.573   0.186  27.717 -0.3021  0.2154 -0.2337
11155TIP3    H154956   3.654   0.234  27.698  0.0228 -0.3651 -0.3259
11155TIP3    H254957   3.519   0.249  27.765 -0.1104  0.8622 -0.8495
11156TIP3   OH254958   1.578   1.274  33.144  0.1778 -0.3584 -0.1052
11156TIP3    H154959   1.577   1.244  33.053  0.4966 -1.6912  0.2998
11156TIP3    H254960   1.654   1.331  33.150  0.3097 -0.4796 -0.6117
11157TIP3   OH254961   1.492   3.234  37.762  0.1830 -0.2103  0.0864
11157TIP3    H154962   1.412   3.273  37.724  1.1193 -0.5148 -2.3782
11157TIP3    H254963   1.482   3.140  37.748  1.5034 -0.1659 -1.5212
11158TIP3   OH254964   1.765   4.252  17.234 -0.7548 -0.4684 -0.1114
11158TIP3    H154965   1.771   4.198  17.155  1.6158  2.1818 -1.9339
11158TIP3    H254966   1.818   4.204  17.298 -1.6773 -2.0444 -0.4587
11159TIP3   OH254967   0.588   0.838  27.110 -0.0969 -0.2867 -0.8260
11159TIP3    H154968   0.533   0.912  27.087 -0.1645  0.4534  1.4723
11159TIP3    H254969   0.605   0.793  27.027  0.1911  2.4332 -2.3344
11160TIP3   OH254970   0.871   3.342  12.066  0.0160 -0.2174 -0.6676
11160TIP3    H154971   0.878   3.436  12.078 -0.4400 -0.1405 -0.9685
11160TIP3    H254972   0.884   3.306  12.153  0.6146  0.0945 -0.6216
11161TIP3   OH254973   2.053   1.162  12.879  0.0597 -0.3502 -0.4830
11161TIP3    H154974   2.000   1.108  12.820  0.8646 -1.2582 -0.3871
11161TIP3    H254975   2.022   1.251  12.864 -1.2471 -0.8154 -0.6940
11162TIP3   OH254976   1.730   1.821  28.741 -0.2179  0.0611 -0.4351
11162TIP3    H154977   1.675   1.750  28.707  0.6583 -0.5753 -0.5676
11162TIP3    H254978   1.807   1.776  28.776 -0.0642  0.8894  0.3050
11163TIP3   OH254979   4.325   0.311  38.936  0.2269 -0.2133  0.1648
11163TIP3    H154980   4.238   0.277  38.915  0.3635  0.2564 -1.2564
11163TIP3    H254981   4.374   0.235  38.967 -0.7844 -0.4080  1.3374
11164TIP3   OH254982   0.712   1.622  35.958  0.2543 -0.2236  0.2900
11164TIP3    H154983   0.745   1.711  35.944 -0.6661  0.1442  0.4221
11164TIP3    H254984   0.680   1.621  36.048 -0.1770 -0.5513  0.1383
11165TIP3   OH254985   3.563   3.898  28.333  0.2671  0.0457  0.0534
11165TIP3    H154986   3.615   3.882  28.412 -1.4965  0.6004  1.3839
11165TIP3    H254987   3.628   3.920  28.266  1.7306  1.2030  1.7540
11166TIP3   OH254988   0.575   3.252   3.808 -0.2290 -0.8687 -0.2605
11166TIP3    H154989   0.657   3.285   3.843 -1.4762  1.7474  0.4177
11166TIP3    H254990   0.595   3.163   3.779  3.1746  0.1691 -1.4938
11167TIP3   OH254991   1.041   2.016   5.504 -0.0351 -0.0083 -0.1021
11167TIP3    H154992   1.016   1.961   5.429 -0.2340  0.0742 -0.0967
11167TIP3    H254993   1.133   2.038   5.489 -0.0451 -0.0810 -0.2670
11168TIP3   OH254994   0.541   3.594   0.539 -0.2250  0.4633  0.2306
11168TIP3    H154995   0.531   3.596   0.634 -0.4999 -0.5304  0.2255
11168TIP3    H254996   0.457   3.564   0.506  0.1958 -0.1918 -0.2667
11169TIP3   OH254997   1.595   1.864   7.694 -0.1502  0.1238  0.0846
11169TIP3    H154998   1.585   1.872   7.789  0.6146 -1.3948  0.3310
11169TIP3    H254999   1.642   1.781   7.682 -1.5710 -0.4907 -1.7005
11170TIP3   OH255000   0.213   4.000  13.933  0.4953 -0.3013 -0.1875
11170TIP3    H155001   0.240   4.076  13.882  1.8715 -0.9799 -0.5455
11170TIP3    H255002   0.185   3.936  13.867 -2.8666  0.6122  0.1969
11171TIP3   OH255003   0.581   2.237  33.041 -0.0403 -0.3741  0.0348
11171TIP3    H155004   0.603   2.166  32.982  0.0540 -0.6500  0.3945
11171TIP3    H255005   0.665   2.282  33.057  0.4591 -1.7921  1.8877
11172TIP3   OH255006   4.260   4.238  41.098 -0.4400  0.0912  0.3129
11172TIP3    H155007   4.279   4.237  41.004 -0.9310 -1.5797  0.1909
11172TIP3    H255008   4.164   4.235  41.103 -0.5070  2.2207  0.8912
11173TIP3   OH255009   1.807   0.097  10.357  0.1422  0.1656 -0.3292
11173TIP3    H155010   1.722   0.140  10.360  0.4634  0.7765  1.5034
11173TIP3    H255011   1.871   0.168  10.349  0.5854 -0.0618  0.9124
11174TIP3   OH255012   2.156   4.076  10.450 -0.7225  0.1392  0.4050
11174TIP3    H155013   2.222   4.104  10.513  1.8414  0.2658 -2.1472
11174TIP3    H255014   2.145   3.982  10.466 -0.1959  0.1909  1.0889
11175TIP3   OH255015   2.024   3.885  13.320 -0.3990  0.1583 -0.1744
11175TIP3    H155016   2.062   3.972  13.337  0.1008  0.1169 -1.0321
11175TIP3    H255017   1.974   3.866  13.399  3.4499 -0.9396  2.2726
11176TIP3   OH255018   4.277   0.680  11.450  0.0895  0.1021  0.4776
11176TIP3    H155019   4.356   0.627  11.462  0.8905  0.6982 -1.6233
11176TIP3    H255020   4.234   0.678  11.535  2.1291 -0.6155  1.5806
11177TIP3   OH255021   3.718   1.195  30.633 -0.2833 -0.5130  0.4259
11177TIP3    H155022   3.776   1.128  30.671 -0.4178 -0.2529  1.1003
11177TIP3    H255023   3.630   1.162  30.649 -0.3437 -0.3355  0.4637
11178TIP3   OH255024   3.919   3.193   2.962 -0.2806 -0.1281 -0.0467
11178TIP3    H155025   3.867   3.129   3.011  0.3966  0.4935  1.5367
11178TIP3    H255026   3.966   3.242   3.029  0.9139  0.5636 -1.3479
11179TIP3   OH255027   3.759   4.022   5.276  0.2363  0.0983 -0.0389
11179TIP3    H155028   3.805   4.006   5.359  0.4854 -1.2163 -0.4091
11179TIP3    H255029   3.668   3.997   5.295  0.0263  1.0307  0.1992
11180TIP3   OH255030   0.130   0.023  30.521  0.4751  0.7763 -0.6375
11180TIP3    H155031   0.221   0.039  30.547  0.9516 -0.5876 -1.3840
11180TIP3    H255032   0.117   0.076  30.443  0.4832  1.3002 -0.2886
11181TIP3   OH255033   0.820   3.957   6.832 -0.3787 -0.3950 -0.5748
11181TIP3    H155034   0.829   3.971   6.927  1.6388 -0.6349 -0.7031
11181TIP3    H255035   0.830   4.045   6.794  0.3980 -0.5156 -0.6554
11182TIP3   OH255036   1.120   3.763  12.759 -0.8494  0.6346  0.3582
11182TIP3    H155037   1.206   3.720  12.758  1.2044  4.2443 -2.0189
11182TIP3    H255038   1.109   3.793  12.849 -0.5757 -1.4376  1.1369
11183TIP3   OH255039   1.005   0.233  12.121 -0.0854  0.0229  0.3534
11183TIP3    H155040   1.053   0.237  12.039  1.5929  1.5618  1.3219
11183TIP3    H255041   1.030   0.313  12.167 -3.0140  0.5216  1.2932
11184TIP3   OH255042   1.600   2.808   1.026 -0.2546 -0.0010 -0.3170
11184TIP3    H155043   1.544   2.793   1.102  0.2304 -1.1442 -0.1773
11184TIP3    H255044   1.686   2.829   1.062 -0.2342  0.3217 -0.5451
11185TIP3   OH255045   3.225   2.357  34.585  0.2403  0.2562 -0.1910
11185TIP3    H155046   3.143   2.327  34.548  0.8757 -0.8333 -0.7826
11185TIP3    H255047   3.270   2.276  34.612  0.6588  0.8973  1.1120
11186TIP3   OH255048   3.408   1.346  30.937 -0.0592  0.1559 -0.6105
11186TIP3    H155049   3.378   1.436  30.953 -1.3156 -0.2517 -0.5921
11186TIP3    H255050   3.499   1.356  30.909 -0.0016  1.3915 -0.0449
11187TIP3   OH255051   1.581   4.054   1.422  0.1367  0.2046 -0.8126
11187TIP3    H155052   1.523   3.978   1.417 -0.7244  0.6030  1.6279
11187TIP3    H255053   1.545   4.116   1.360 -3.2520  1.0971  1.7444
11188TIP3   OH255054   2.177   1.250  30.789  0.3808  0.5068 -0.6120
11188TIP3    H155055   2.136   1.164  30.797 -1.3922  1.2439 -1.4137
11188TIP3    H255056   2.229   1.259  30.869 -1.4434 -0.2559  0.7044
11189TIP3   OH255057   3.449   0.217   3.239 -0.0625  0.0022  0.0421
11189TIP3    H155058   3.530   0.227   3.189  0.0224  1.6952  0.4635
11189TIP3    H255059   3.407   0.303   3.233 -1.7240 -0.7781  0.0209
11190TIP3   OH255060   1.969   1.488   6.820  0.2578 -0.2823 -0.1385
11190TIP3    H155061   2.028   1.522   6.753  0.0743  2.0781  0.8208
11190TIP3    H255062   2.004   1.521   6.903 -1.5859  0.0118  0.5866
11191TIP3   OH255063   0.306   2.957  22.020  0.0320  0.2416  0.0349
11191TIP3    H155064   0.401   2.968  22.021 -0.0694  1.3490  1.1344
11191TIP3    H255065   0.285   2.935  21.930  1.2861  0.4582 -0.3275
11192TIP3   OH255066   3.822   1.494  13.413 -0.0815 -0.0897  0.5082
11192TIP3    H155067   3.817   1.486  13.318 -0.1724  0.5101  0.4575
11192TIP3    H255068   3.867   1.577  13.427 -0.5020  0.0618  0.9864
11193TIP3   OH255069   0.930   2.372   7.314 -0.0315 -0.1718 -0.3453
11193TIP3    H155070   0.922   2.423   7.234 -1.6935  1.3357  0.6988
11193TIP3    H255071   0.963   2.434   7.379  0.1382 -1.0453  0.4329
11194TIP3   OH255072   1.806   2.063   8.144 -0.0757 -0.2318  0.5037
11194TIP3    H155073   1.833   2.077   8.235 -0.0112 -0.5211  0.5308
11194TIP3    H255074   1.713   2.043   8.150 -0.5616  1.7539  0.3236
11195TIP3   OH255075   2.806   1.367  13.283 -0.0480 -0.1621  0.3416
11195TIP3    H155076   2.840   1.301  13.342  0.0702 -0.4969 -0.0972
11195TIP3    H255077   2.884   1.412  13.249 -0.1373  2.6137  3.2739
11196TIP3   OH255078   2.003   3.223  35.287 -0.0364 -0.2937  0.4648
11196TIP3    H155079   2.007   3.252  35.378  0.4334  1.0957  0.0341
11196TIP3    H255080   1.924   3.169  35.281  0.6644 -1.5580  1.9905
11197TIP3   OH255081   3.933   1.010   9.651 -0.2100 -0.2602 -0.0748
11197TIP3    H155082   3.917   1.005   9.745 -2.1267 -0.4411 -0.3612
11197TIP3    H255083   4.023   1.041   9.643  1.7517 -4.7199  1.7881
11198TIP3   OH255084   3.693   1.814  23.769  0.0949 -0.5589 -0.0043
11198TIP3    H155085   3.768   1.756  23.783 -0.0382 -1.1969 -1.6701
11198TIP3    H255086   3.655   1.784  23.687 -0.4279  1.4227 -0.5518
11199TIP3   OH255087   1.965   1.549  18.999  0.9080 -0.1367 -0.4282
11199TIP3    H155088   1.885   1.594  18.971  0.2065 -0.7711  0.5218
11199TIP3    H255089   2.036   1.604  18.964  0.0785  1.1238 -0.2236
11200TIP3   OH255090   0.145   0.248  11.034 -0.2717 -0.4567 -0.1450
11200TIP3    H155091   0.154   0.211  11.121  1.9377  0.1334 -0.0680
11200TIP3    H255092   0.217   0.210  10.984 -1.0796 -0.2372 -1.5199
11201TIP3   OH255093   0.771   2.819  31.699 -0.0151 -0.2726 -0.4152
11201TIP3    H155094   0.807   2.734  31.676  0.4754 -0.1534 -0.1112
11201TIP3    H255095   0.847   2.871  31.723 -0.3932 -0.0189  0.2605
11202TIP3   OH255096   1.635   0.888   6.609 -0.1358  0.6691  0.6323
11202TIP3    H155097   1.694   0.914   6.679  0.1456  2.8667 -0.3331
11202TIP3    H255098   1.568   0.957   6.607 -1.3741 -0.4862  0.1171
11203TIP3   OH255099   1.708   2.622   2.152  0.2705 -0.7468 -0.6175
11203TIP3    H155100   1.634   2.682   2.157  1.0033  0.0394  2.4529
11203TIP3    H255101   1.783   2.677   2.132  0.4735 -1.1324 -0.9400
11204TIP3   OH255102   0.625   2.451  31.825 -0.2747  0.1525  0.3953
11204TIP3    H155103   0.699   2.409  31.780 -0.8420 -0.6655  0.1975
11204TIP3    H255104   0.621   2.407  31.910 -0.9982 -0.3494  0.1108
11205TIP3   OH255105   2.298   1.951   0.869  0.6124  0.5629  0.0066
11205TIP3    H155106   2.229   1.991   0.923 -0.6834  1.0744 -1.8956
11205TIP3    H255107   2.338   1.886   0.926 -2.2964 -0.6556  0.8863
11206TIP3   OH255108   0.223   4.303   5.317  0.4571  0.0797  0.1437
11206TIP3    H155109   0.170   4.234   5.278 -0.6123  0.8041  0.2694
11206TIP3    H255110   0.277   4.336   5.246  0.7066 -0.6255 -0.0003
11207TIP3   OH255111   3.640   3.129   5.936 -0.4339  0.5344 -0.2658
11207TIP3    H155112   3.682   3.198   5.988 -0.6030  0.9283 -0.6466
11207TIP3    H255113   3.618   3.061   6.000 -0.1782  0.7918  0.1002
11208TIP3   OH255114   2.047   1.914   3.518  0.8998  0.1284 -0.0964
11208TIP3    H155115   1.972   1.855   3.508  0.6084 -0.1377  2.7166
11208TIP3    H255116   2.011   2.001   3.502 -0.1020  0.0224  1.3526
11209TIP3   OH255117   0.031   0.239  37.905  0.1939  0.0939  0.1953
11209TIP3    H155118   0.121   0.212  37.924  0.4842 -0.1124 -1.3928
11209TIP3    H255119   0.032   0.334  37.916  1.0181  0.2914 -1.2777
11210TIP3   OH255120   2.994   0.249  11.130  0.0728  0.0721  0.1927
11210TIP3    H155121   3.034   0.192  11.196 -0.6381  0.9771  1.4403
11210TIP3    H255122   2.927   0.298  11.178 -0.2472  0.9873 -1.1451
11211TIP3   OH255123   4.240   3.897   9.973  0.0688  0.6661  0.1793
11211TIP3    H155124   4.212   3.987   9.956 -2.0376  0.0991  0.3703
11211TIP3    H255125   4.159   3.847   9.973  1.0719 -1.0363  1.4081
11212TIP3   OH255126   1.774   3.469  36.261 -0.8397  0.1425 -0.0966
11212TIP3    H155127   1.731   3.552  36.239 -0.8900 -0.1740 -1.2989
11212TIP3    H255128   1.858   3.494  36.298  0.2637  0.7697 -2.7916
11213TIP3   OH255129   1.493   1.542  37.809  0.5614  0.2724 -0.3412
11213TIP3    H155130   1.561   1.590  37.762 -0.1018  0.9518 -0.6196
11213TIP3    H255131   1.474   1.466  37.754  0.6923  0.3873 -0.5421
11214TIP3   OH255132   0.214   0.073  25.124  0.2817  0.2115 -0.5331
11214TIP3    H155133   0.155   0.001  25.144  1.1145 -1.0122 -2.1752
11214TIP3    H255134   0.236   0.061  25.031  1.1493  2.0727 -0.6194
11215TIP3   OH255135   1.318   0.268   8.239  0.2831  0.6599  0.4392
11215TIP3    H155136   1.312   0.190   8.295  0.0297  0.6241  0.3629
11215TIP3    H255137   1.410   0.294   8.245  0.1086  1.0851  1.4605
11216TIP3   OH255138   1.713   3.367  33.212  0.1126  0.0046  0.2175
11216TIP3    H155139   1.783   3.386  33.274  1.0154  2.3740 -1.4195
11216TIP3    H255140   1.634   3.401  33.254  0.2052 -1.0283  1.2723
11217TIP3   OH255141   1.984   2.816   9.240  0.6728  0.1732  0.2012
11217TIP3    H155142   1.957   2.725   9.244  0.0919  0.3260 -0.2143
11217TIP3    H255143   2.069   2.814   9.195  0.2853 -0.0851 -0.5245
11218TIP3   OH255144   1.410   0.551   4.357 -0.2306 -0.3922  0.0968
11218TIP3    H155145   1.453   0.636   4.362 -2.0149  0.5274  0.6049
11218TIP3    H255146   1.448   0.510   4.279  2.6017 -0.3015  1.2997
11219TIP3   OH255147   2.784   1.548  40.614 -0.7213  0.3623 -0.0441
11219TIP3    H155148   2.728   1.491  40.562 -0.4641 -0.8963  1.0027
11219TIP3    H255149   2.850   1.580  40.553 -0.1569 -1.4322 -0.4264
11220TIP3   OH255150   1.568   3.040   0.640 -0.1018 -0.3155  0.1164
11220TIP3    H155151   1.612   3.115   0.601 -0.5237  0.6410  1.3967
11220TIP3    H255152   1.520   3.000   0.568  2.6216 -1.2853 -1.2852
11221TIP3   OH255153   1.194   3.455  34.392 -0.1413 -0.0499 -0.0262
11221TIP3    H155154   1.226   3.423  34.476 -0.3419  1.0461  0.4815
11221TIP3    H255155   1.101   3.474  34.408  0.2305  1.8908  0.0473
11222TIP3   OH255156   1.104   1.622  30.918 -0.9378 -0.1094  0.3410
11222TIP3    H155157   1.081   1.674  30.995  0.6814  0.4507  0.4883
11222TIP3    H255158   1.165   1.555  30.952  0.2301  0.4829 -0.5044
11223TIP3   OH255159   3.073   2.216  35.404  0.1431  0.1054 -0.1089
11223TIP3    H155160   3.070   2.312  35.400  0.9104  0.2751  1.8986
11223TIP3    H255161   2.986   2.188  35.377  0.0727  1.3287 -1.2421
11224TIP3   OH255162   1.322   0.371   8.925  0.2306  0.2698 -0.2042
11224TIP3    H155163   1.282   0.426   8.992  0.3236 -0.4541  0.4622
11224TIP3    H255164   1.415   0.391   8.929  0.1064  1.0413 -0.8978
11225TIP3   OH255165   2.065   3.555  33.365  0.0046 -0.3667 -0.4184
11225TIP3    H155166   2.006   3.629  33.349  0.8767  0.4689  0.0922
11225TIP3    H255167   2.107   3.540  33.281 -1.6769 -1.6717 -1.0704
11226TIP3   OH255168   1.864   4.248   1.104 -0.1188  0.1886  0.3194
11226TIP3    H155169   1.954   4.215   1.095  0.0717 -0.0817  2.6574
11226TIP3    H255170   1.809   4.172   1.083  0.1909  0.2480 -0.7531
11227TIP3   OH255171   2.200   0.048   5.451  0.3346  0.2934  0.2795
11227TIP3    H155172   2.190   0.102   5.373 -0.1881  0.0578  0.1854
11227TIP3    H255173   2.249   0.104   5.512  0.1984  0.7053  0.0152
11228TIP3   OH255174   3.179   0.645  36.184  0.4764 -0.1373  0.4044
11228TIP3    H155175   3.124   0.715  36.218  0.9213  0.4204  0.0007
11228TIP3    H255176   3.212   0.679  36.101  0.6963 -0.8281  0.2023
11229TIP3   OH255177   3.297   3.765   5.087 -0.6226  0.1559 -0.3870
11229TIP3    H155178   3.245   3.722   5.019 -1.4232  0.8935 -0.2454
11229TIP3    H255179   3.291   3.706   5.162 -0.5469 -0.1751 -0.6359
11230TIP3   OH255180   0.696   0.869  34.734  0.1496  0.2484 -0.3253
11230TIP3    H155181   0.682   0.931  34.804 -0.5998 -1.1587  0.8276
11230TIP3    H255182   0.686   0.783  34.775  2.1138 -0.6974 -1.6136
11231TIP3   OH255183   2.557   2.015  32.399  0.0581 -0.5967 -0.8769
11231TIP3    H155184   2.636   2.069  32.394  0.4193 -1.1309 -1.0187
11231TIP3    H255185   2.503   2.057  32.465  1.6948 -1.8057  1.3783
11232TIP3   OH255186   1.158   0.414  13.884  0.5003 -0.5474  0.1747
11232TIP3    H155187   1.131   0.325  13.859  1.0674 -1.4532  2.5292
11232TIP3    H255188   1.238   0.430  13.833  0.0425 -1.0928 -0.7572
11233TIP3   OH255189   0.885   0.237  12.973 -0.1283 -0.1508 -0.0858
11233TIP3    H155190   0.899   0.287  13.053  2.8089  1.7901 -1.6549
11233TIP3    H255191   0.802   0.270  12.938  0.3591  1.6534  0.3641
11234TIP3   OH255192   3.002   4.161   8.382  0.0727  0.1872  0.4817
11234TIP3    H155193   3.033   4.235   8.434 -2.9274  0.3750  2.2871
11234TIP3    H255194   3.014   4.085   8.439  0.0253 -0.1780  0.0125
11235TIP3   OH255195   3.007   3.723  31.245  0.2197  0.5761  0.7449
11235TIP3    H155196   3.084   3.700  31.193 -1.2259 -0.7285 -0.9570
11235TIP3    H255197   3.037   3.717  31.336  2.0710 -0.0526  0.1443
11236TIP3   OH255198   4.246   2.390  10.646  0.3581  0.0045 -0.0747
11236TIP3    H155199   4.238   2.472  10.598  2.6340  0.8085  0.7509
11236TIP3    H255200   4.318   2.344  10.603  0.4054 -0.6518  0.6725
11237TIP3   OH255201   1.007   3.101  30.972 -0.2939  0.7940  0.3428
11237TIP3    H155202   1.030   3.189  30.942 -0.0039  0.7826  0.5286
11237TIP3    H255203   1.055   3.042  30.914 -0.2609  0.7635  0.4009
11238TIP3   OH255204   3.951   0.641  12.054  0.0808  0.1881  0.8119
11238TIP3    H155205   4.045   0.627  12.041 -0.1482 -0.6786 -0.0502
11238TIP3    H255206   3.945   0.712  12.117  1.3189  0.2942  0.8196
11239TIP3   OH255207   2.130   0.604  27.996  0.3046 -0.2095 -0.4009
11239TIP3    H155208   2.040   0.634  27.982  0.2098 -0.5296 -0.4751
11239TIP3    H255209   2.180   0.645  27.926  0.4158  0.8749  0.2925
11240TIP3   OH255210   1.968   3.498  28.866 -0.1662  0.2239 -0.0464
11240TIP3    H155211   1.886   3.482  28.912  0.0081 -0.1613  0.1383
11240TIP3    H255212   1.948   3.484  28.774  0.3832 -2.9622  0.2125
11241TIP3   OH255213   0.818   2.449  35.971  0.0680  0.1356 -0.1821
11241TIP3    H155214   0.757   2.393  36.019 -0.6709 -0.3556 -1.6136
11241TIP3    H255215   0.782   2.537  35.981 -0.8198 -0.1320 -0.8955
11242TIP3   OH255216   3.392   3.712  28.652  0.2861  0.1518  0.2398
11242TIP3    H155217   3.297   3.697  28.652  0.4498 -1.0262  1.1865
11242TIP3    H255218   3.411   3.746  28.739  0.8489 -0.4615  0.3594
11243TIP3   OH255219   2.956   4.046   5.275 -0.0867  0.7869 -0.3345
11243TIP3    H155220   2.950   3.955   5.246  0.0411  0.2212  1.3179
11243TIP3    H255221   2.870   4.067   5.311  0.3662  0.7450  0.8268
11244TIP3   OH255222   3.424   3.461  27.479  0.1127  0.1800  0.1305
11244TIP3    H155223   3.467   3.476  27.395  0.8897 -1.3848  0.2158
11244TIP3    H255224   3.458   3.378  27.509 -0.1438  0.7160  2.0287
11245TIP3   OH255225   2.374   1.414   2.770 -0.0105 -0.5056  0.1004
11245TIP3    H155226   2.460   1.431   2.809 -0.9102  1.1800  1.5084
11245TIP3    H255227   2.368   1.319   2.765  2.2284 -0.6657 -0.7846
11246TIP3   OH255228   2.506   0.246  32.269 -0.2513 -0.4723  0.4729
11246TIP3    H155229   2.546   0.263  32.354  0.4330 -0.1118  0.0889
11246TIP3    H255230   2.580   0.234  32.210 -0.7107  0.0148 -0.2128
11247TIP3   OH255231   1.105   0.526   7.202 -0.3040  0.2061 -0.1613
11247TIP3    H155232   1.051   0.489   7.272  1.2764 -0.5426  0.7186
11247TIP3    H255233   1.165   0.456   7.178  0.6932  1.1996 -0.6764
11248TIP3   OH255234   0.367   1.372  21.813 -0.1317 -0.4935 -0.1495
11248TIP3    H155235   0.305   1.411  21.874  0.0425  0.6040 -0.6423
11248TIP3    H255236   0.452   1.382  21.856 -0.3411 -3.0102  1.0408
11249TIP3   OH255237   3.437   3.347  11.201  0.1743  0.6201  0.0316
11249TIP3    H155238   3.507   3.323  11.262 -0.4472  1.3034  1.0452
11249TIP3    H255239   3.379   3.403  11.252 -1.3043 -0.2064 -0.6819
11250TIP3   OH255240   4.081   0.213  26.478  0.1909  0.1967  0.1000
11250TIP3    H155241   4.032   0.141  26.516 -1.4889  0.8934 -0.6601
11250TIP3    H255242   4.155   0.171  26.434 -1.1973 -1.1669 -1.0236
11251TIP3   OH255243   1.538   3.392   9.740 -0.0427  0.7430  0.5961
11251TIP3    H155244   1.479   3.400   9.814  0.6994  0.5672  1.2211
11251TIP3    H255245   1.531   3.476   9.694 -1.3440  0.4383  0.2111
11252TIP3   OH255246   1.192   2.148  28.747  0.4282 -0.4875 -0.1981
11252TIP3    H155247   1.157   2.124  28.833  1.2901  0.2515  0.3765
11252TIP3    H255248   1.177   2.070  28.693  0.0344 -1.0291  0.6646
11253TIP3   OH255249   0.363   2.139   2.918 -0.3842 -0.3506  0.1711
11253TIP3    H155250   0.311   2.081   2.863  2.1555 -0.3812 -2.3834
11253TIP3    H255251   0.348   2.226   2.882 -0.4265 -0.0500  0.8976
11254TIP3   OH255252   3.678   0.146  12.969 -0.1977 -0.0334  0.3785
11254TIP3    H155253   3.680   0.198  13.050 -0.1508  0.5535  0.0113
11254TIP3    H255254   3.587   0.117  12.962 -0.7928  1.8549 -0.5347
11255TIP3   OH255255   0.928   0.384   8.309  0.3033 -0.0156  0.7808
11255TIP3    H155256   0.866   0.427   8.367 -2.6923 -2.2791 -0.4741
11255TIP3    H255257   0.957   0.306   8.357  0.6549 -0.0073  0.5907
11256TIP3   OH255258   1.463   1.003   8.820 -0.6317 -0.4213 -0.3222
11256TIP3    H155259   1.386   0.952   8.795 -0.7411  0.3303 -1.6259
11256TIP3    H255260   1.457   1.083   8.767  1.7993 -0.9915 -1.6134
11257TIP3   OH255261   3.183   1.876  39.233  0.6889  0.4284 -1.3475
11257TIP3    H155262   3.096   1.900  39.201  1.4309  1.4638 -2.6556
11257TIP3    H255263   3.236   1.867  39.154  2.6227  3.1613 -0.4665
11258TIP3   OH255264   0.515   0.365  29.004 -0.5123 -0.1366 -0.6243
11258TIP3    H155265   0.595   0.325  28.969 -0.1049 -1.3186  1.5261
11258TIP3    H255266   0.452   0.294  29.008 -0.7570  0.1173  0.3657
11259TIP3   OH255267   0.690   1.381   1.513 -0.1115 -0.1432 -0.0514
11259TIP3    H155268   0.650   1.300   1.481  0.7749 -1.0893  1.1084
11259TIP3    H255269   0.767   1.394   1.458 -0.6837  0.3572 -0.7442
11260TIP3   OH255270   1.712   2.494  38.497 -0.2344 -0.3396  0.5697
11260TIP3    H155271   1.666   2.430  38.552  1.1016 -0.5025  1.5425
11260TIP3    H255272   1.656   2.572  38.500 -0.3651 -0.4580  1.9191
11261TIP3   OH255273   2.087   3.790   4.459  0.4437  0.3631 -0.1262
11261TIP3    H155274   2.066   3.840   4.538 -1.3737  0.8775 -0.8884
11261TIP3    H255275   2.181   3.772   4.467  0.1329 -0.4826  2.6196
11262TIP3   OH255276   0.536   2.112  38.341  0.2111 -0.1491 -0.3350
11262TIP3    H155277   0.482   2.033  38.336  0.6246 -0.4644  0.1245
11262TIP3    H255278   0.473   2.184  38.346 -0.2614 -0.1982 -3.3950
11263TIP3   OH255279   1.209   0.971  31.370 -0.0091 -0.2947 -0.0971
11263TIP3    H155280   1.164   0.943  31.449 -0.3667 -1.6493 -0.7457
11263TIP3    H255281   1.302   0.958  31.390 -0.0296  0.3565  0.4491
11264TIP3   OH255282   1.337   1.215   4.556 -0.1292  0.1593 -0.4117
11264TIP3    H155283   1.350   1.309   4.550 -2.0616  0.4035 -1.5501
11264TIP3    H255284   1.311   1.189   4.468 -1.0985 -1.1824  0.2325
11265TIP3   OH255285   3.253   2.857  10.494  0.2346 -0.0329  0.1645
11265TIP3    H155286   3.272   2.816  10.409  1.0122  1.5456 -0.4552
11265TIP3    H255287   3.184   2.921  10.475 -0.5025 -0.5542  0.9932
11266TIP3   OH255288   0.562   4.191  38.548  0.1268  0.2507 -0.0554
11266TIP3    H155289   0.606   4.116  38.588  0.2367 -0.1680 -0.9320
11266TIP3    H255290   0.517   4.234  38.621 -1.7541 -1.8871  0.1919
11267TIP3   OH255291   0.939   1.354  10.984  0.3597 -0.0064  0.0003
11267TIP3    H155292   0.976   1.419  11.044  0.9715 -0.3332 -0.0148
11267TIP3    H255293   1.002   1.282  10.986  0.2663 -0.1188 -0.8572
11268TIP3   OH255294   0.775   3.439   8.879 -0.1118  0.2855  0.0575
11268TIP3    H155295   0.813   3.387   8.808 -0.6596 -0.0405  0.0000
11268TIP3    H255296   0.845   3.500   8.903  0.1859  0.1992 -0.5561
11269TIP3   OH255297   2.909   1.011  11.627 -0.0311  0.2314  0.4814
11269TIP3    H155298   3.004   1.005  11.628  0.0607  1.5216  0.3098
11269TIP3    H255299   2.881   0.935  11.576  0.9905  0.8299 -1.0298
11270TIP3   OH255300   2.624   2.036  33.241  0.1947 -0.0616  0.6379
11270TIP3    H155301   2.547   1.983  33.222 -0.4560  1.1950 -0.3354
11270TIP3    H255302   2.631   2.034  33.337  1.1284 -3.1547  0.6244
11271TIP3   OH255303   2.957   3.919  33.631  0.5389 -0.6106  0.7410
11271TIP3    H155304   2.894   3.939  33.701  1.9245  1.0842  1.5784
11271TIP3    H255305   2.925   3.970  33.556  0.0703 -0.9727  0.6926
11272TIP3   OH255306   1.373   1.307  32.217  0.0729 -0.7924  0.0812
11272TIP3    H155307   1.290   1.281  32.178  1.0558 -1.8061 -1.4692
11272TIP3    H255308   1.406   1.227  32.259 -0.0376 -0.2208  1.3008
11273TIP3   OH255309   4.291   1.918   3.057  0.1078 -0.1229 -1.0612
11273TIP3    H155310   4.237   1.844   3.086  0.0248 -0.1081 -1.1729
11273TIP3    H255311   4.297   1.976   3.133 -1.2739  0.5989 -1.4632
11274TIP3   OH255312   2.180   3.181   1.748 -0.1678  0.1277  0.2267
11274TIP3    H155313   2.118   3.188   1.675 -0.6031  0.6662  0.6288
11274TIP3    H255314   2.179   3.268   1.788  1.4485  0.3720 -0.2206
11275TIP3   OH255315   3.559   0.048   5.793  0.6195  0.6070  0.0304
11275TIP3    H155316   3.542   0.142   5.799 -1.4297  0.2711  0.2685
11275TIP3    H255317   3.511   0.020   5.715  2.8401  0.0479 -1.2038
11276TIP3   OH255318   0.152   0.143  33.986  0.3670 -0.2071 -0.2090
11276TIP3    H155319   0.246   0.124  33.979  0.2437 -1.4472  1.1066
11276TIP3    H255320   0.117   0.073  34.041 -0.9261  1.4516  1.2242
11277TIP3   OH255321   3.029   1.934  34.925  0.0296  0.2058  0.0067
11277TIP3    H155322   3.093   1.934  34.854  0.4360 -0.6020  0.3603
11277TIP3    H255323   2.998   2.025  34.930  0.6364  0.4530 -0.6252
11278TIP3   OH255324   3.918   1.034   8.254 -0.1908 -0.6392 -0.2391
11278TIP3    H155325   3.921   1.041   8.159 -2.3719  0.9966 -0.2723
11278TIP3    H255326   3.951   1.118   8.286 -1.3369 -0.3948  0.3532
11279TIP3   OH255327   0.670   4.184   4.941 -0.9662 -0.0297 -0.2721
11279TIP3    H155328   0.703   4.095   4.931 -0.3522  0.3038 -1.4058
11279TIP3    H255329   0.702   4.230   4.863  0.1024  1.5806  1.0595
11280TIP3   OH255330   0.503   2.535  37.505 -0.0528  0.5173  0.2129
11280TIP3    H155331   0.440   2.592  37.463  0.3954  0.4846 -0.5223
11280TIP3    H255332   0.578   2.532  37.445 -0.2910 -1.2974 -0.0574
11281TIP3   OH255333   0.329   2.984  14.517 -0.5948  0.2882 -0.3488
11281TIP3    H155334   0.272   2.925  14.469 -1.8426  2.0275 -1.0831
11281TIP3    H255335   0.368   3.040  14.450  1.3261 -0.2800  0.2281
11282TIP3   OH255336   1.996   1.562  36.613  0.1321  0.4911  0.1634
11282TIP3    H155337   2.004   1.649  36.652 -1.4668  1.1799 -0.8976
11282TIP3    H255338   1.917   1.525  36.653 -0.0828  0.1732 -0.5322
11283TIP3   OH255339   0.798   1.562  32.551  0.2083  0.1461 -0.1309
11283TIP3    H155340   0.779   1.472  32.525  0.5314  0.5566 -1.8764
11283TIP3    H255341   0.745   1.574  32.630 -2.0562 -0.7121 -1.3965
11284TIP3   OH255342   0.961   3.645  13.181  0.0551 -0.2480  0.1945
11284TIP3    H155343   0.908   3.605  13.112  0.3475 -0.6820  0.2256
11284TIP3    H255344   0.910   3.631  13.261  0.1669 -0.5789  0.2093
11285TIP3   OH255345   3.300   4.324  33.587 -0.3084 -0.4550 -0.6218
11285TIP3    H155346   3.262   4.274  33.659  0.6502  0.9788  0.9539
11285TIP3    H255347   3.252   4.406  33.586  1.3576  0.5869  0.1303
11286TIP3   OH255348   2.783   3.987  39.421 -0.0747 -0.6231  0.5370
11286TIP3    H155349   2.799   3.894  39.406 -0.8783 -0.4076 -2.1637
11286TIP3    H255350   2.714   3.990  39.487 -1.1654 -2.0368 -0.4785
11287TIP3   OH255351   0.791   4.139  34.088 -0.0149  0.2027  0.0938
11287TIP3    H155352   0.866   4.160  34.143 -0.5922 -1.4201  1.5623
11287TIP3    H255353   0.829   4.119  34.002  1.1469  0.2547  0.5825
11288TIP3   OH255354   2.229   0.334  11.494 -0.6608 -0.4921 -0.1349
11288TIP3    H155355   2.197   0.330  11.584 -1.1249 -0.1525 -0.2781
11288TIP3    H255356   2.305   0.277  11.492  0.0941  0.4378  0.7787
11289TIP3   OH255357   3.081   3.414  10.400 -0.2183 -0.0567 -0.0860
11289TIP3    H155358   3.078   3.471  10.477  0.3356 -0.0090 -0.0967
11289TIP3    H255359   2.996   3.424  10.359 -0.7982 -0.6225  0.9201
11290TIP3   OH255360   3.752   3.458  37.012  0.3499 -0.2483  0.2861
11290TIP3    H155361   3.656   3.455  37.022  0.3134  0.2400  0.1140
11290TIP3    H255362   3.784   3.391  37.073 -0.2560 -2.9686 -2.1567
11291TIP3   OH255363   4.317   0.670  10.007 -0.1356 -0.3360  0.1612
11291TIP3    H155364   4.284   0.586   9.975  0.2110  0.2928 -2.0468
11291TIP3    H255365   4.297   0.732   9.937  2.1204  0.8594  0.4713
11292TIP3   OH255366   0.470   1.036  32.965  0.2759 -0.1348  0.3829
11292TIP3    H155367   0.392   0.983  32.951  0.7078 -0.5678 -0.5243
11292TIP3    H255368   0.477   1.045  33.060 -1.7813  1.3067  0.4515
11293TIP3   OH255369   3.412   2.710  37.878  0.0855  0.3949  0.3937
11293TIP3    H155370   3.459   2.628  37.894  1.1828  1.2189  1.6372
11293TIP3    H255371   3.439   2.736  37.790 -0.6312 -0.7799 -0.1965
11294TIP3   OH255372   2.624   2.602  11.668 -0.3603  0.1749 -0.1583
11294TIP3    H155373   2.716   2.626  11.679 -0.5326  1.6097 -1.5278
11294TIP3    H255374   2.616   2.580  11.575 -1.5076  0.6174 -0.1772
11295TIP3   OH255375   1.717   1.305  34.602  0.2951  0.3446  0.5381
11295TIP3    H155376   1.634   1.259  34.610 -0.6613  2.1733  2.0903
11295TIP3    H255377   1.742   1.326  34.692  1.3712  1.6116 -0.0071
11296TIP3   OH255378   3.336   3.758  37.968 -0.0672 -0.3240  0.3210
11296TIP3    H155379   3.308   3.774  38.058  0.6532 -0.2299  0.5330
11296TIP3    H255380   3.423   3.718  37.976 -0.2198 -0.8053 -0.3202
11297TIP3   OH255381   0.851   4.154  12.011 -0.6717 -0.2393 -0.3576
11297TIP3    H155382   0.868   4.110  12.095 -1.2465  0.0129 -0.1039
11297TIP3    H255383   0.835   4.082  11.950  0.3276 -0.4455 -0.3917
11298TIP3   OH255384   1.787   3.842   9.324  0.8766 -0.6686  0.9931
11298TIP3    H155385   1.716   3.832   9.260  0.9055  0.4045  0.7780
11298TIP3    H255386   1.768   3.776   9.391  0.7894 -1.7547 -0.0511
11299TIP3   OH255387   3.087   2.502  10.181 -0.3992 -0.1792 -0.3367
11299TIP3    H155388   3.077   2.519  10.275 -1.3576  0.3297 -0.5179
11299TIP3    H255389   3.012   2.447  10.159 -1.4098  1.4701 -1.2131
11300TIP3   OH255390   3.114   1.170  27.120 -0.2534 -0.4632 -0.4663
11300TIP3    H155391   3.114   1.251  27.068  1.0657 -0.7102 -0.8744
11300TIP3    H255392   3.092   1.199  27.209 -0.8755  0.1848 -0.8184
11301TIP3   OH255393   0.031   2.136   2.931  0.0700  0.0241  0.6378
11301TIP3    H155394   0.068   2.096   2.853  0.0287  1.4903 -0.1602
11301TIP3    H255395  -0.003   2.062   2.982 -0.9802 -0.8866 -1.2802
11302TIP3   OH255396   0.366   0.792  29.835 -0.0508 -0.1715  0.2025
11302TIP3    H155397   0.308   0.735  29.885 -0.6888 -0.0697 -0.4159
11302TIP3    H255398   0.338   0.782  29.744  0.2989  0.5768  0.0071
11303TIP3   OH255399   4.273   1.708  36.234 -0.1971  0.0198 -0.2147
11303TIP3    H155400   4.260   1.643  36.303 -1.9156 -0.2072 -0.6984
11303TIP3    H255401   4.310   1.658  36.161  1.4071  0.2185  0.4109
11304TIP3   OH255402   3.932   3.228   0.949  0.1419  0.4456  0.7207
11304TIP3    H155403   3.897   3.316   0.938  0.5346  0.2714 -3.6593
11304TIP3    H255404   3.869   3.171   0.905  2.7100 -0.6095 -1.9354
11305TIP3   OH255405   0.079   2.212  35.885  0.2666 -0.1186  0.0790
11305TIP3    H155406   0.003   2.216  35.827  0.6524  1.5769 -0.3811
11305TIP3    H255407   0.122   2.297  35.872  0.3098  0.3766  2.9426
11306TIP3   OH255408   2.876   4.083   9.921 -0.2014  0.2363  0.6922
11306TIP3    H155409   2.906   4.075   9.830  2.6006  0.9885  1.4579
11306TIP3    H255410   2.806   4.148   9.918  1.5287  2.1484 -0.6588
11307TIP3   OH255411   2.205   2.488   5.244 -0.0629  0.1860  0.7741
11307TIP3    H155412   2.202   2.429   5.168  0.0525  0.6479  0.4086
11307TIP3    H255413   2.181   2.432   5.318 -0.3865 -0.2217  0.3698
11308TIP3   OH255414   0.225   4.360   2.832  0.6618  0.6555 -0.1797
11308TIP3    H155415   0.148   4.412   2.810  1.0573  0.2605 -2.8458
11308TIP3    H255416   0.298   4.409   2.794  1.4638 -0.0960  0.3592
11309TIP3   OH255417   1.071   1.759  31.533 -0.4402 -0.6847  0.9398
11309TIP3    H155418   1.016   1.826  31.574 -2.1325 -0.7581 -1.0028
11309TIP3    H255419   1.008   1.691  31.507  1.2031 -3.1031  2.8308
11310TIP3   OH255420   0.871   0.832  36.393  0.6240 -0.2020  0.2399
11310TIP3    H155421   0.902   0.919  36.369  2.5844 -1.2646 -1.3840
11310TIP3    H255422   0.906   0.817  36.480  0.9050  0.3344  0.2246
11311TIP3   OH255423   3.307   3.871  36.451  0.4067 -0.3750  0.2749
11311TIP3    H155424   3.212   3.858  36.456  0.3156  0.3287  0.6498
11311TIP3    H255425   3.318   3.939  36.385  0.8588 -2.2264 -1.6547
11312TIP3   OH255426   0.524   4.031   6.898  0.2889 -0.4132 -0.5067
11312TIP3    H155427   0.566   3.982   6.828  2.3024 -1.1227  1.1038
11312TIP3    H255428   0.576   4.012   6.976 -1.6534  0.5873  1.1518
11313TIP3   OH255429   2.462   4.166   1.442 -0.3735  0.0184  0.4111
11313TIP3    H155430   2.553   4.193   1.455  0.8121 -2.3986 -1.8828
11313TIP3    H255431   2.438   4.121   1.523  1.1465 -0.8614  0.4202
11314TIP3   OH255432   0.482   1.463  30.997  0.1151 -0.4210 -0.1749
11314TIP3    H155433   0.556   1.442  30.940 -0.2984 -1.0331 -0.5045
11314TIP3    H255434   0.464   1.555  30.980  0.1390 -0.5396 -0.8828
11315TIP3   OH255435   3.220   1.739  41.032 -0.3854 -0.5517  0.0047
11315TIP3    H155436   3.205   1.741  40.937  1.3491 -2.3652 -0.3594
11315TIP3    H255437   3.291   1.677  41.044  1.6618  1.9949  2.2391
11316TIP3   OH255438   0.606   3.030  28.868 -0.0375  1.0520  0.1834
11316TIP3    H155439   0.642   2.951  28.827 -0.1851  2.0422 -1.9825
11316TIP3    H255440   0.512   3.026  28.849 -0.1677  1.3973  0.7315
11317TIP3   OH255441   3.167   2.249  41.444 -0.0364 -0.3297  0.1177
11317TIP3    H155442   3.211   2.321  41.490 -0.6389 -0.7264  1.3634
11317TIP3    H255443   3.123   2.291  41.370  1.1130  0.3025 -0.2446
11318TIP3   OH255444   4.141   4.111  26.357  0.5808  0.1043 -0.0451
11318TIP3    H155445   4.078   4.118  26.285  1.5067 -0.4272 -0.9340
11318TIP3    H255446   4.093   4.066  26.427 -0.7052  1.6676  0.1459
11319TIP3   OH255447   4.173   1.165  28.494  0.5771  0.0466  0.3901
11319TIP3    H155448   4.185   1.076  28.460 -0.3338 -0.1693  0.6076
11319TIP3    H255449   4.162   1.219  28.417 -2.2811 -0.5565  0.2862
11320TIP3   OH255450   3.719   3.401  23.254  0.0766  0.6234 -0.1794
11320TIP3    H155451   3.736   3.377  23.346  0.2001 -0.0063 -0.3613
11320TIP3    H255452   3.776   3.477  23.239  0.8173  0.1104 -0.0249
11321TIP3   OH255453   4.012   2.930   2.159 -0.4228  0.3421 -0.1270
11321TIP3    H155454   4.040   2.894   2.243  0.0360  0.3024 -0.2972
11321TIP3    H255455   3.966   3.011   2.182  0.4098  0.7624  0.1209
11322TIP3   OH255456   3.793   0.104  37.590  0.3782 -0.1201 -0.1857
11322TIP3    H155457   3.856   0.148  37.647  0.8594  0.6332 -1.2651
11322TIP3    H255458   3.738   0.053  37.650  1.3464  0.0316  0.8747
11323TIP3   OH255459   2.200   2.859  34.059  0.0734  0.3675 -0.0162
11323TIP3    H155460   2.241   2.931  34.106  1.2949  0.6141 -1.3681
11323TIP3    H255461   2.178   2.896  33.973 -2.3542  0.0217  0.3965
11324TIP3   OH255462   2.426   1.515  18.791 -0.0344  0.3274  0.3252
11324TIP3    H155463   2.464   1.434  18.825 -0.4878  0.3163  0.8182
11324TIP3    H255464   2.469   1.584  18.842 -1.0307  0.2885  1.2536
11325TIP3   OH255465   0.707   2.027  11.459  0.1342 -0.1203 -0.4437
11325TIP3    H155466   0.735   2.003  11.371  0.8376  0.2212 -0.3151
11325TIP3    H255467   0.763   1.975  11.517 -1.9047 -2.1959 -0.1738
11326TIP3   OH255468   3.260   0.814  33.463  0.3813 -1.1068  0.6847
11326TIP3    H155469   3.235   0.897  33.502 -0.3740 -1.2992  0.6357
11326TIP3    H255470   3.273   0.834  33.370  1.1669 -0.8557  0.8403
11327TIP3   OH255471   3.580   2.604   9.978 -0.0987 -0.3442 -0.1347
11327TIP3    H155472   3.630   2.665  10.033 -0.2904 -0.1589 -0.1671
11327TIP3    H255473   3.489   2.624   9.996 -0.1739 -1.2124  0.5070
11328TIP3   OH255474   0.828   2.786   7.930  0.5773 -0.1907 -0.2466
11328TIP3    H155475   0.787   2.872   7.929 -0.7825 -0.7948  0.7405
11328TIP3    H255476   0.895   2.791   7.997  1.1599  0.3692 -0.8568
11329TIP3   OH255477   3.822   2.361  11.262  0.1333  0.2870 -0.1437
11329TIP3    H155478   3.735   2.369  11.300  0.3293  1.1943  0.1465
11329TIP3    H255479   3.811   2.389  11.171  0.1056  0.3101 -0.1334
11330TIP3   OH255480   2.017   0.230  35.600  0.5746 -0.0478 -0.4145
11330TIP3    H155481   2.028   0.319  35.634  1.3157 -0.1932 -0.2577
11330TIP3    H255482   1.923   0.216  35.600  0.5378 -0.0168  1.5459
11331TIP3   OH255483   1.841   4.272  27.288  0.6985 -0.0581 -0.1018
11331TIP3    H155484   1.843   4.243  27.197  1.0052  3.4744 -1.3771
11331TIP3    H255485   1.909   4.220  27.331  1.7562 -0.6358 -2.3208
11332TIP3   OH255486   0.187   1.956   6.859 -0.6234 -0.9389  0.1449
11332TIP3    H155487   0.241   1.944   6.937 -1.6252 -0.6439  0.9071
11332TIP3    H255488   0.153   2.045   6.866  2.0216  0.4599 -2.4398
11333TIP3   OH255489   3.660   3.409   4.723  0.0382  0.6794 -0.0390
11333TIP3    H155490   3.584   3.467   4.732  0.2979  0.7260  2.8872
11333TIP3    H255491   3.711   3.447   4.651 -1.4613  2.0807 -0.4308
11334TIP3   OH255492   4.255   0.208  38.123 -0.2758 -0.4915  0.5714
11334TIP3    H155493   4.250   0.116  38.147 -1.8547 -1.0431 -1.5768
11334TIP3    H255494   4.298   0.208  38.037 -1.6966  0.5748 -0.1820
11335TIP3   OH255495   0.573   0.474  36.755 -0.2639 -0.1913  0.1912
11335TIP3    H155496   0.567   0.557  36.803 -2.9102  1.5511 -2.7797
11335TIP3    H255497   0.660   0.475  36.716  0.3235  0.3872  1.4623
11336TIP3   OH255498   0.819   3.037  26.926  0.1992 -0.2339 -0.1794
11336TIP3    H155499   0.727   3.040  26.954  0.4940  0.0042  0.8082
11336TIP3    H255500   0.825   2.961  26.868 -0.3163 -1.0933  0.8753
11337TIP3   OH255501   2.981   2.656   5.589 -0.4693 -0.2955  0.2314
11337TIP3    H155502   2.955   2.636   5.499 -1.3880  0.9695  0.1887
11337TIP3    H255503   3.052   2.719   5.581 -0.6665 -0.0502  0.3815
11338TIP3   OH255504   2.987   0.704  10.717 -0.4784  0.4324 -0.6758
11338TIP3    H155505   3.066   0.748  10.750 -0.7138  0.3792 -0.0414
11338TIP3    H255506   2.920   0.724  10.781 -1.5737  2.3505 -2.3017
11339TIP3   OH255507   3.359   2.083  26.408  0.1284 -0.7296 -0.2980
11339TIP3    H155508   3.354   2.098  26.503 -2.4039  1.8881 -0.7203
11339TIP3    H255509   3.296   2.013  26.392  0.7175 -1.3260 -0.0547
11340TIP3   OH255510   1.885   2.353  38.044 -0.0794  0.1046 -0.4587
11340TIP3    H155511   1.826   2.377  38.116  0.4839  1.1465 -0.3283
11340TIP3    H255512   1.844   2.390  37.966 -0.8668 -1.3117 -0.7661
11341TIP3   OH255513   3.441   3.602  32.862  0.2724  0.2182 -0.2719
11341TIP3    H155514   3.435   3.696  32.880  0.2975 -0.0682  1.3223
11341TIP3    H255515   3.362   3.582  32.812 -0.5432  0.7958  0.7466
11342TIP3   OH255516   2.495   2.471  35.169 -0.6750 -0.2212 -0.1593
11342TIP3    H155517   2.414   2.441  35.128 -1.2272 -0.6130  1.1807
11342TIP3    H255518   2.564   2.439  35.110 -1.4880  1.2182 -2.0119
11343TIP3   OH255519   2.717   1.133   4.594  0.2141 -0.1245  0.0886
11343TIP3    H155520   2.751   1.049   4.625 -1.6934 -1.0222 -0.1626
11343TIP3    H255521   2.710   1.186   4.674  0.6508 -0.4695  0.3648
11344TIP3   OH255522   1.622   2.992  33.424  0.3268  0.2572  0.1700
11344TIP3    H155523   1.698   3.035  33.384 -1.1659  1.9595 -0.9814
11344TIP3    H255524   1.610   3.037  33.507  1.4212 -1.0422  1.0869
11345TIP3   OH255525   3.881   1.691  10.972  0.4802  0.4572  0.4637
11345TIP3    H155526   3.946   1.653  10.912  0.0982  0.6564 -0.0871
11345TIP3    H255527   3.915   1.672  11.059 -0.1566 -1.9771  0.2578
11346TIP3   OH255528   3.842   2.357   4.203 -0.3568 -0.8896  0.0860
11346TIP3    H155529   3.929   2.320   4.218 -0.3191 -0.8432 -0.0153
11346TIP3    H255530   3.786   2.282   4.185 -0.4517 -0.9675  0.6890
11347TIP3   OH255531   1.858   1.335  13.523  0.4325 -0.2257  0.0396
11347TIP3    H155532   1.945   1.299  13.509  0.1430 -1.1602  0.5496
11347TIP3    H255533   1.807   1.263  13.560 -0.6696  0.1841 -0.6127
11348TIP3   OH255534   4.377   4.240  26.469 -0.2647  0.2907 -0.1917
11348TIP3    H155535   4.414   4.177  26.531  1.2517  2.5574  1.3313
11348TIP3    H255536   4.285   4.214  26.460  0.1992 -1.8564  0.6679
11349TIP3   OH255537   1.639   3.665  30.660  0.3027 -0.1033 -0.1564
11349TIP3    H155538   1.709   3.623  30.611  0.4940  0.6270 -0.5218
11349TIP3    H255539   1.610   3.737  30.603 -1.1330 -0.7448 -0.2692
11350TIP3   OH255540   1.078   1.715  11.289  0.5107 -0.1497 -0.4472
11350TIP3    H155541   1.012   1.759  11.343  1.9005  1.0641  0.3190
11350TIP3    H255542   1.156   1.711  11.344  2.1823  1.6786 -2.4951
11351TIP3   OH255543   3.587   2.519  40.659  0.3073  0.3462 -0.4561
11351TIP3    H155544   3.560   2.540  40.570  0.0822  3.2711  0.1817
11351TIP3    H255545   3.681   2.537  40.661  0.0959  1.5499  0.1350
11352TIP3   OH255546   0.906   0.460  30.697 -0.1171 -0.5382 -0.1921
11352TIP3    H155547   0.993   0.491  30.723 -0.0438  0.0265 -1.0511
11352TIP3    H255548   0.887   0.508  30.616 -0.8152 -1.3622 -0.5370
11353TIP3   OH255549   3.366   2.906   8.564 -0.3216  0.4251 -0.3377
11353TIP3    H155550   3.314   2.878   8.489 -0.3793  0.7594 -0.4258
11353TIP3    H255551   3.355   3.001   8.566 -3.7491  0.1723  2.5512
11354TIP3   OH255552   3.087   2.938  33.493 -0.1217 -0.7495  0.0154
11354TIP3    H155553   3.016   2.996  33.467 -0.3910 -0.9308  0.3519
11354TIP3    H255554   3.070   2.856  33.445 -0.1523 -0.8031  0.1199
11355TIP3   OH255555   0.347   1.139   9.283 -0.2245  0.2494 -0.0004
11355TIP3    H155556   0.352   1.094   9.199 -2.0830  1.2158 -0.6875
11355TIP3    H255557   0.426   1.113   9.329 -0.6588 -2.7937 -0.7987
11356TIP3   OH255558   2.938   1.290   7.220 -0.2327 -0.6741  0.3076
11356TIP3    H155559   2.980   1.344   7.153 -0.3468 -2.0339 -0.9138
11356TIP3    H255560   2.849   1.325   7.227  0.5111  1.1029  1.6484
11357TIP3   OH255561   0.694   4.192  32.524 -0.1201 -0.5605  0.4797
11357TIP3    H155562   0.741   4.247  32.461  0.1620 -0.4259  0.8069
11357TIP3    H255563   0.641   4.134  32.470 -1.8224  1.2195  0.0954
11358TIP3   OH255564   1.905   2.717  36.963 -0.4952  0.3659 -0.2617
11358TIP3    H155565   1.925   2.718  37.056  2.2451 -1.1960 -0.7370
11358TIP3    H255566   1.977   2.667  36.923 -0.2932  2.9149 -3.5109
11359TIP3   OH255567   3.511   2.361  12.573  0.2323 -0.1047 -0.4855
11359TIP3    H155568   3.601   2.330  12.567 -0.3177 -2.1944  1.1229
11359TIP3    H255569   3.487   2.348  12.664 -2.3544 -1.6400 -1.2753
11360TIP3   OH255570   4.186   0.166  30.352 -0.0428 -0.2208 -0.2226
11360TIP3    H155571   4.272   0.169  30.395 -0.5894  1.2244  0.8361
11360TIP3    H255572   4.164   0.073  30.352  1.1529 -0.5339  0.2488
11361TIP3   OH255573   3.932   3.196   2.243 -0.2964  0.6162  0.1067
11361TIP3    H155574   4.005   3.256   2.229  1.1900 -0.4549  2.7263
11361TIP3    H255575   3.879   3.237   2.311 -0.8679  0.2861 -0.1275
11362TIP3   OH255576   0.374   0.198  10.865  0.0496  0.3350  0.4841
11362TIP3    H155577   0.436   0.126  10.854 -0.6886 -0.6059  2.1105
11362TIP3    H255578   0.418   0.260  10.923  0.2856  0.7105 -0.0890
11363TIP3   OH255579   2.218   3.095  16.364  0.3134  0.0147 -0.2340
11363TIP3    H155580   2.261   3.012  16.383 -1.0798 -0.7182 -0.1930
11363TIP3    H255581   2.166   3.114  16.443 -1.0405 -0.1760 -1.0473
11364TIP3   OH255582   3.663   4.125  34.452  0.3249  0.0612 -0.9370
11364TIP3    H155583   3.741   4.084  34.413  0.9548  2.5514 -2.4698
11364TIP3    H255584   3.696   4.164  34.533  0.5576  0.6272 -1.3001
11365TIP3   OH255585   1.481   1.203  18.422 -0.7133 -0.6963 -0.1633
11365TIP3    H155586   1.564   1.171  18.386  0.5643  0.9684  1.1462
11365TIP3    H255587   1.429   1.124  18.437  0.4161 -1.7318 -1.5072
11366TIP3   OH255588   2.602   2.553  34.811 -0.4473 -0.5083  0.5102
11366TIP3    H155589   2.635   2.467  34.786 -0.6448 -0.9062  1.5848
11366TIP3    H255590   2.647   2.574  34.893  0.8398  1.1558 -0.5426
11367TIP3   OH255591   1.250   1.795  39.973 -0.3576 -0.4405 -1.1010
11367TIP3    H155592   1.336   1.836  39.967 -0.4083  0.0016  0.7892
11367TIP3    H255593   1.251   1.728  39.904  1.4744 -0.4163 -1.1476
11368TIP3   OH255594   2.409   1.012  28.247 -0.0516 -0.0334 -0.5386
11368TIP3    H155595   2.455   0.941  28.292  2.7395  0.8308 -1.8094
11368TIP3    H255596   2.399   1.080  28.313  0.8689 -0.0968 -0.3264
11369TIP3   OH255597   4.130   3.870  11.783 -0.6240 -0.6635 -0.2096
11369TIP3    H155598   4.049   3.920  11.782 -0.0269  0.3809  0.9202
11369TIP3    H255599   4.159   3.874  11.874  1.3149  0.0081 -0.8035
11370TIP3   OH255600   0.663   2.402  34.960  0.6712 -0.3409 -0.1948
11370TIP3    H155601   0.680   2.308  34.948 -0.2420 -0.4450 -0.8153
11370TIP3    H255602   0.693   2.442  34.878 -0.0150 -0.2476 -0.4049
11371TIP3   OH255603   3.523   0.593  39.168  0.0033 -0.2856 -0.5029
11371TIP3    H155604   3.538   0.688  39.168  0.0234 -0.2867  0.0396
11371TIP3    H255605   3.550   0.565  39.081  1.2288  0.0153 -0.2367
11372TIP3   OH255606   1.723   0.586   2.742 -0.2683 -0.4562 -0.2464
11372TIP3    H155607   1.745   0.672   2.705 -1.4102  0.9560  2.1071
11372TIP3    H255608   1.629   0.576   2.725 -0.5161 -0.3957  0.9572
11373TIP3   OH255609   1.417   1.434  38.087 -0.0495 -0.4534 -0.5892
11373TIP3    H155610   1.436   1.461  37.998  0.2169 -1.0172 -0.7077
11373TIP3    H255611   1.324   1.457  38.100 -0.2131 -0.7799 -1.1653
11374TIP3   OH255612   3.534   3.062   6.531 -0.0433 -0.0536 -0.4782
11374TIP3    H155613   3.538   2.967   6.543  0.3866 -0.5960 -3.7799
11374TIP3    H255614   3.440   3.081   6.526 -0.1344 -0.2669  0.3165
11375TIP3   OH255615   1.544   0.973  26.850 -0.2764 -0.2107  0.1815
11375TIP3    H155616   1.571   1.057  26.886  0.0110  0.2433 -1.0455
11375TIP3    H255617   1.475   0.943  26.909 -1.1109  1.3700  0.0625
11376TIP3   OH255618   1.188   0.636  35.794  0.2950  0.0870  0.5126
11376TIP3    H155619   1.164   0.653  35.885  1.4117 -1.1037  1.0640
11376TIP3    H255620   1.136   0.559  35.770  0.5189 -0.0182  0.3672
11377TIP3   OH255621   0.291   3.980  31.250  0.2703  0.0507 -0.7679
11377TIP3    H155622   0.313   3.888  31.260  1.3181  0.4702  1.4210
11377TIP3    H255623   0.336   4.007  31.170  0.6841 -1.1264 -0.9481
11378TIP3   OH255624   3.376   1.946   4.082  0.1525  0.3460 -0.2033
11378TIP3    H155625   3.397   1.993   4.002  0.6590  1.4645  0.5518
11378TIP3    H255626   3.375   1.854   4.057  0.5844  0.6615 -1.4278
11379TIP3   OH255627   0.321   2.039  10.648 -0.2055  0.3223  0.3016
11379TIP3    H155628   0.405   2.011  10.684  0.2059  1.0501 -0.0763
11379TIP3    H255629   0.309   2.128  10.681  0.7228  1.4704 -2.1657
11380TIP3   OH255630   0.414   1.072  30.454 -0.0039 -0.4816  0.2543
11380TIP3    H155631   0.453   1.044  30.537  0.1322 -0.9187  0.0510
11380TIP3    H255632   0.330   1.112  30.479  0.1743 -0.3329  0.6250
11381TIP3   OH255633   2.535   1.338  36.501  0.2931 -0.0251 -0.7252
11381TIP3    H155634   2.522   1.243  36.504  0.6461 -0.1629 -2.4281
11381TIP3    H255635   2.509   1.369  36.588  1.1654 -1.7960  0.2166
11382TIP3   OH255636   2.691   0.467  30.207  0.4685  0.3745  0.1113
11382TIP3    H155637   2.772   0.508  30.239  0.4967  1.3257 -1.1179
11382TIP3    H255638   2.689   0.487  30.114 -1.2501  0.4397  0.1327
11383TIP3   OH255639   4.318   0.469  32.098  0.3482 -0.5102 -0.1517
11383TIP3    H155640   4.300   0.552  32.143 -0.6653 -1.8331  2.0573
11383TIP3    H255641   4.279   0.480  32.011 -0.5322  1.0184  0.3927
11384TIP3   OH255642   0.589   3.215  10.018  0.1218 -0.0872  0.2318
11384TIP3    H155643   0.629   3.295   9.985 -1.0289  1.8445  3.0803
11384TIP3    H255644   0.653   3.180  10.080  1.0015 -1.9703 -1.6414
11385TIP3   OH255645   2.223   4.333  39.173  0.2344 -0.1794 -0.5921
11385TIP3    H155646   2.139   4.350  39.217 -0.6439 -0.4376 -2.0763
11385TIP3    H255647   2.284   4.315  39.243 -0.6949  1.1168  0.6042
11386TIP3   OH255648   0.849   4.151  26.362 -0.8418  0.0599 -0.5571
11386TIP3    H155649   0.942   4.128  26.351 -0.8419  0.1325 -0.7164
11386TIP3    H255650   0.850   4.226  26.421 -0.9481 -1.4932  1.5706
11387TIP3   OH255651   1.358   1.873  29.203 -0.4042 -0.3747 -0.2435
11387TIP3    H155652   1.268   1.893  29.228 -0.4842 -1.5865  0.4853
11387TIP3    H255653   1.361   1.890  29.109 -1.6265 -1.1290 -0.4316
11388TIP3   OH255654   0.718   0.342   7.808 -0.4542 -1.0797  0.8665
11388TIP3    H155655   0.641   0.293   7.837 -1.7095  0.2805 -0.0515
11388TIP3    H255656   0.769   0.355   7.888 -2.3242 -0.0494  1.9567
11389TIP3   OH255657   3.317   0.426   5.158  0.0073  0.1210  0.1047
11389TIP3    H155658   3.319   0.390   5.069  1.1560  1.7529 -0.5582
11389TIP3    H255659   3.300   0.519   5.147  2.8586  0.8891  1.3874
11390TIP3   OH255660   0.640   2.818   2.547  1.1114 -0.0035  0.0885
11390TIP3    H155661   0.561   2.768   2.567  1.3961 -0.8590 -0.8820
11390TIP3    H255662   0.711   2.766   2.583  1.3824 -0.1272 -0.6224
11391TIP3   OH255663   4.234   2.245  28.844 -0.0207 -0.7850 -0.0045
11391TIP3    H155664   4.325   2.272  28.846  0.0642 -1.0512  1.9542
11391TIP3    H255665   4.187   2.321  28.810  0.7399  0.0298  0.7200
11392TIP3   OH255666   3.070   0.229  30.068  0.4140  0.4087  0.2157
11392TIP3    H155667   3.147   0.246  30.013 -0.2249  0.1528 -0.7878
11392TIP3    H255668   3.098   0.251  30.156  1.7952 -0.1453 -0.0584
11393TIP3   OH255669   0.815   1.851  41.436  0.3542  1.2022  0.3436
11393TIP3    H155670   0.859   1.917  41.490  1.3285  0.9880 -0.1748
11393TIP3    H255671   0.745   1.818  41.492  0.4843  1.9556  0.9769
11394TIP3   OH255672   3.745   1.900   9.862  0.0126 -0.2997 -0.1085
11394TIP3    H155673   3.702   1.981   9.834  0.7132  0.9899  2.3624
11394TIP3    H255674   3.820   1.891   9.803 -0.4661  0.4382 -0.8532
11395TIP3   OH255675   1.931   3.418   8.580  0.3525 -0.3915 -0.1495
11395TIP3    H155676   1.978   3.385   8.657 -0.2136 -2.0476 -0.4711
11395TIP3    H255677   1.843   3.382   8.589 -0.7542  2.1824  0.1394
11396TIP3   OH255678   1.494   4.268  34.281 -0.1094 -0.6024 -0.2794
11396TIP3    H155679   1.563   4.333  34.269  1.0979 -1.8688 -0.4379
11396TIP3    H255680   1.428   4.313  34.333  0.9865  0.5397  0.1763
11397TIP3   OH255681   1.963   3.526  30.980  0.3146  0.0096  0.3353
11397TIP3    H155682   2.025   3.529  31.053  0.2607  0.3490  0.3670
11397TIP3    H255683   1.957   3.616  30.949  0.0733 -0.0742  0.1301
11398TIP3   OH255684   1.549   0.222   6.549 -0.2334  0.7399 -0.4973
11398TIP3    H155685   1.603   0.166   6.605 -0.4548 -0.4493 -1.4431
11398TIP3    H255686   1.611   0.258   6.485 -0.5637 -0.9241 -1.8187
11399TIP3   OH255687   3.103   2.478  37.322  0.0694  0.5607  0.1588
11399TIP3    H155688   3.010   2.459  37.309  0.0920  1.0977 -0.8834
11399TIP3    H255689   3.115   2.476  37.417 -0.6778 -1.0222  0.2512
11400TIP3   OH255690   2.827   3.098  28.568 -0.0428 -0.4875  0.2441
11400TIP3    H155691   2.900   3.038  28.554 -0.0215 -0.9647  2.1265
11400TIP3    H255692   2.750   3.041  28.572 -0.2526 -0.2038  0.2488
11401TIP3   OH255693   0.286   3.662  34.634  0.3340 -0.1458  0.1011
11401TIP3    H155694   0.292   3.707  34.718  0.4576 -1.7715  1.0203
11401TIP3    H255695   0.199   3.683  34.601  0.4810  0.9301  0.3600
11402TIP3   OH255696   3.075   1.417  39.453  0.2039 -0.4308  0.1110
11402TIP3    H155697   3.165   1.399  39.427  1.0609  0.9268  1.9198
11402TIP3    H255698   3.028   1.334  39.437  2.0750 -1.6095  0.4291
11403TIP3   OH255699   1.435   2.986   4.254 -0.6689  0.0924 -0.3075
11403TIP3    H155700   1.367   3.022   4.311 -1.3381 -1.9196  0.2539
11403TIP3    H255701   1.411   2.894   4.243  1.1397 -0.3104 -1.3526
11404TIP3   OH255702   1.636   0.039  41.352  0.1988  0.0497 -0.4036
11404TIP3    H155703   1.615  -0.054  41.348 -0.1881  0.1631 -1.1160
11404TIP3    H255704   1.662   0.053  41.443  3.3554 -1.3815 -0.9490
11405TIP3   OH255705   2.313   1.398  34.566  0.0139  0.3207  0.4960
11405TIP3    H155706   2.360   1.479  34.583  0.2545  0.6915 -1.5942
11405TIP3    H255707   2.350   1.366  34.483 -1.9190 -0.4965 -0.1152
11406TIP3   OH255708   3.587   3.937   9.280 -0.0261 -0.2713 -0.0000
11406TIP3    H155709   3.555   4.026   9.290  0.8416 -0.0729  1.2177
11406TIP3    H255710   3.571   3.916   9.188 -1.5777  0.5953  0.0414
11407TIP3   OH255711   1.872   4.267  31.522 -0.2665  0.1764 -0.2607
11407TIP3    H155712   1.869   4.333  31.592  0.4006 -0.6928  0.6066
11407TIP3    H255713   1.930   4.199  31.555 -0.0654 -0.3398 -1.6012
11408TIP3   OH255714   1.371   3.895   3.933  0.7586  0.4983 -0.5919
11408TIP3    H155715   1.377   3.804   3.905  1.3496  0.8156 -1.5245
11408TIP3    H255716   1.334   3.890   4.021  0.3777 -0.6125 -0.7986
11409TIP3   OH255717   3.423   3.843   4.673  0.1644 -0.1730 -0.3181
11409TIP3    H155718   3.348   3.857   4.731  0.1161  2.0113 -0.7919
11409TIP3    H255719   3.439   3.930   4.635  1.5093 -1.0922 -1.9600
11410TIP3   OH255720   2.127   1.331  34.761  0.2742 -0.0540 -0.0078
11410TIP3    H155721   2.075   1.396  34.714  0.4361 -1.0720 -1.6728
11410TIP3    H255722   2.207   1.322  34.709  1.2949  0.0968  1.4789
11411TIP3   OH255723   0.120   0.969   7.709  0.3221  0.6582 -0.3273
11411TIP3    H155724   0.075   1.048   7.738 -0.5263  0.5768 -1.3812
11411TIP3    H255725   0.137   0.983   7.616 -2.4226 -1.5095 -1.3198
11412TIP3   OH255726   1.465   2.387  40.002  0.1438  0.5362  0.6033
11412TIP3    H155727   1.393   2.434  40.045 -0.9525 -1.4558  1.1041
11412TIP3    H255728   1.525   2.366  40.072 -0.6212 -0.9278  0.8555
11413TIP3   OH255729   3.797   3.690  11.244  0.4521  0.1876 -0.7333
11413TIP3    H155730   3.862   3.699  11.314  0.4867 -1.3737 -0.5297
11413TIP3    H255731   3.724   3.643  11.285  0.1964 -0.1695 -1.5808
11414TIP3   OH255732   0.041   3.624   7.153  1.1526  0.2072  0.0204
11414TIP3    H155733   0.040   3.529   7.150  0.8792  0.2254 -0.9310
11414TIP3    H255734  -0.047   3.648   7.182  1.0599  0.1760 -0.2317
11415TIP3   OH255735   3.439   1.836  40.875 -0.2028  0.6114  0.5495
11415TIP3    H155736   3.446   1.931  40.883  0.6479  0.4853  1.5270
11415TIP3    H255737   3.506   1.802  40.935  1.6484 -0.5657 -1.9771
11416TIP3   OH255738   1.445   0.454  12.678 -0.5936 -0.1468 -0.4037
11416TIP3    H155739   1.533   0.468  12.712 -0.2834  0.3960 -1.3834
11416TIP3    H255740   1.389   0.452  12.755  0.0874  0.9978  0.1394
11417TIP3   OH255741   0.994   2.897   8.858  0.4752 -0.3928  0.1413
11417TIP3    H155742   0.927   2.953   8.821  0.6801 -1.6705 -2.3932
11417TIP3    H255743   0.951   2.854   8.932 -0.9812  0.0117 -0.4349
11418TIP3   OH255744   0.387   2.926  38.890  0.0898 -0.5145  0.1638
11418TIP3    H155745   0.463   2.922  38.833 -0.4047  1.3056 -0.6945
11418TIP3    H255746   0.335   2.849  38.866  0.5977 -0.5702 -0.8010
11419TIP3   OH255747   2.604   0.654  11.470  0.2265  0.0238 -0.0645
11419TIP3    H155748   2.537   0.645  11.402  0.1397  1.6512 -0.2289
11419TIP3    H255749   2.568   0.607  11.545 -1.8773  2.1553  0.3721
11420TIP3   OH255750   2.626   0.266  29.505 -0.0932 -0.2210  0.0692
11420TIP3    H155751   2.652   0.325  29.575 -0.2664  0.6412 -0.5832
11420TIP3    H255752   2.693   0.276  29.438  0.0834 -1.0558  0.1061
11421TIP3   OH255753   2.180   0.173   0.835  0.1590 -0.6227 -0.3127
11421TIP3    H155754   2.191   0.129   0.919 -0.5516  0.1559  0.2044
11421TIP3    H255755   2.242   0.246   0.838 -2.3270  1.6249  1.1235
11422TIP3   OH255756   3.570   0.612   9.896  0.3154  0.4396  0.3318
11422TIP3    H155757   3.507   0.540   9.895 -1.5300  1.8522  3.1131
11422TIP3    H255758   3.593   0.623   9.988  3.8415  0.7538 -0.4627
11423TIP3   OH255759   1.361   1.387  41.277 -0.1153 -0.0744  0.6676
11423TIP3    H155760   1.388   1.474  41.248 -0.0035 -0.5406 -0.7058
11423TIP3    H255761   1.267   1.395  41.291 -0.1785  0.1837  0.1432
11424TIP3   OH255762   1.213   0.488   4.662 -0.4282 -0.5447  0.6384
11424TIP3    H155763   1.231   0.403   4.621 -3.5560 -1.6051  1.2232
11424TIP3    H255764   1.300   0.527   4.676  0.9963 -2.5364 -1.8660
11425TIP3   OH255765   2.387   3.013  11.237 -0.4227 -0.1992 -0.3615
11425TIP3    H155766   2.342   3.096  11.218  0.6932  0.3701 -0.5632
11425TIP3    H255767   2.421   3.024  11.326  1.6465  0.4523 -1.1976
11426TIP3   OH255768   1.488   1.350  11.932 -0.3564 -1.0173  0.3548
11426TIP3    H155769   1.501   1.442  11.955  0.0013 -1.1367  0.6517
11426TIP3    H255770   1.396   1.343  11.907 -0.1017 -0.3396 -0.8222
11427TIP3   OH255771   0.922   3.402   3.393  0.6936  0.5865 -0.8575
11427TIP3    H155772   0.994   3.340   3.408  1.0218  0.8651 -1.2661
11427TIP3    H255773   0.945   3.479   3.447 -0.1723  0.0183  0.3814
11428TIP3   OH255774   2.607   2.946  35.174 -0.2922 -0.4273 -0.2315
11428TIP3    H155775   2.539   3.008  35.201 -2.3411 -3.0670  1.0758
11428TIP3    H255776   2.592   2.933  35.080 -0.4568  0.3151 -0.3157
11429TIP3   OH255777   3.141   2.351   4.582  0.2846 -0.3811  0.3180
11429TIP3    H155778   3.212   2.405   4.616 -0.8741  2.7959 -1.8015
11429TIP3    H255779   3.062   2.406   4.592 -1.5875 -2.9695  0.8049
11430TIP3   OH255780   0.584   1.783  38.500 -0.3735  0.0959  0.1610
11430TIP3    H155781   0.616   1.697  38.528 -1.6699 -0.3463  0.3456
11430TIP3    H255782   0.526   1.764  38.426 -1.0869  0.7616  0.5378
11431TIP3   OH255783   3.571   2.198   1.839  0.1328 -0.5402 -0.1952
11431TIP3    H155784   3.648   2.164   1.886 -0.0372  0.2721  0.6908
11431TIP3    H255785   3.564   2.141   1.762  1.3275 -0.9420 -0.0379
11432TIP3   OH255786   4.298   1.380  32.525  0.3171  0.0208 -0.4536
11432TIP3    H155787   4.265   1.292  32.545 -0.1573 -0.0654 -1.5589
11432TIP3    H255788   4.372   1.365  32.466 -0.6681  0.3989 -1.8239
11433TIP3   OH255789   1.945   0.591   7.846  0.1648 -0.0788 -0.5233
11433TIP3    H155790   1.895   0.512   7.866  0.3016  0.4688  2.4406
11433TIP3    H255791   1.949   0.593   7.750 -0.6728 -3.1051 -0.7338
11434TIP3   OH255792   2.924   2.169  28.944  0.3672 -0.0481 -0.5587
11434TIP3    H155793   3.016   2.179  28.916  0.4667 -0.6372 -0.4654
11434TIP3    H255794   2.877   2.238  28.897  0.7619 -0.1361 -1.0992
11435TIP3   OH255795   3.878   2.197  30.321 -0.0504 -0.0838  0.2754
11435TIP3    H155796   3.796   2.184  30.369 -0.3539  0.5732 -0.0574
11435TIP3    H255797   3.882   2.123  30.261  0.2530 -0.8336  1.1833
11436TIP3   OH255798   4.022   3.387  39.136 -0.0791 -0.1502  0.0253
11436TIP3    H155799   4.104   3.344  39.113 -0.9406 -1.9137  0.0747
11436TIP3    H255800   3.978   3.325  39.194 -0.6921  1.5227  1.4365
11437TIP3   OH255801   2.937   0.604  12.142 -0.8426 -0.1367  0.5779
11437TIP3    H155802   2.937   0.631  12.050  1.4997 -0.3766  0.4446
11437TIP3    H255803   2.983   0.674  12.188  0.3395 -1.2161  1.1128
11438TIP3   OH255804   0.180   0.448   7.984 -0.0290 -0.3138  0.6316
11438TIP3    H155805   0.195   0.420   8.074  0.2707  2.5608  1.5744
11438TIP3    H255806   0.107   0.510   7.990 -1.5438 -1.7469 -1.4992
11439TIP3   OH255807   1.572   2.572  34.586 -0.4713  0.3524 -0.1490
11439TIP3    H155808   1.575   2.612  34.672 -1.7442 -0.9378  0.5334
11439TIP3    H255809   1.494   2.608  34.544 -0.8197 -0.3051 -0.0795
11440TIP3   OH255810   2.450   1.236  30.908  0.4898  0.2907 -0.0680
11440TIP3    H155811   2.445   1.148  30.944 -0.4769  0.4354  0.1548
11440TIP3    H255812   2.514   1.228  30.836  1.6536 -0.2122  0.9787
11441TIP3   OH255813   3.179   1.981  40.265 -0.4210 -0.1225 -0.3522
11441TIP3    H155814   3.203   2.004  40.354  0.0438 -0.8791 -0.2698
11441TIP3    H255815   3.091   1.944  40.272 -1.7375  2.6699 -0.6519
11442TIP3   OH255816   0.792   0.935  16.844  0.1751  0.1453  0.7216
11442TIP3    H155817   0.779   0.845  16.816 -0.9630  0.0740  1.3972
11442TIP3    H255818   0.799   0.985  16.763  1.0871 -0.5762  0.3382
11443TIP3   OH255819   3.416   0.256   0.920 -0.0945 -0.1822  0.3225
11443TIP3    H155820   3.496   0.301   0.948  0.3302 -1.1888  0.7857
11443TIP3    H255821   3.425   0.167   0.955 -0.3711 -0.9856 -1.5536
11444TIP3   OH255822   1.322   3.636  15.539  0.1603 -0.4737 -0.1390
11444TIP3    H155823   1.235   3.643  15.500 -0.4332  1.7046  1.4001
11444TIP3    H255824   1.382   3.654  15.466 -0.7722  0.0736 -0.8015
11445TIP3   OH255825   0.475   3.657  39.417 -0.0218 -0.3900  0.6385
11445TIP3    H155826   0.418   3.716  39.466 -0.0913 -1.1266  1.4790
11445TIP3    H255827   0.542   3.714  39.380 -0.1634  0.2315  1.3141
11446TIP3   OH255828   1.922   4.320  35.821 -0.3194  0.0271 -0.5264
11446TIP3    H155829   1.850   4.335  35.760 -0.5751 -0.0559 -0.2448
11446TIP3    H255830   1.951   4.231  35.803 -0.4549 -0.0295 -0.4630
11447TIP3   OH255831   3.763   0.967  38.474  0.1439 -0.7304 -0.3686
11447TIP3    H155832   3.680   0.942  38.434 -1.4331 -0.1065  2.2675
11447TIP3    H255833   3.800   0.885  38.506  0.5963 -1.0124 -1.5693
11448TIP3   OH255834   2.940   0.128  27.132 -0.5589 -0.1344 -0.0646
11448TIP3    H155835   2.932   0.178  27.213 -3.0193  0.1903 -0.4155
11448TIP3    H255836   2.969   0.041  27.159  3.0941  1.1257  0.6333
11449TIP3   OH255837   1.093   2.074  13.235  0.3025  0.2609 -0.0531
11449TIP3    H155838   1.099   2.147  13.174  0.3948  0.4775  0.2093
11449TIP3    H255839   1.002   2.045  13.231  0.6203 -0.6605 -1.3537
11450TIP3   OH255840   0.595   3.131   1.881  0.0895 -0.1523 -0.7185
11450TIP3    H155841   0.576   3.051   1.929  0.5019 -0.4052 -0.9647
11450TIP3    H255842   0.646   3.184   1.943  0.5301 -0.4338 -0.8289
11451TIP3   OH255843   0.794   3.856  34.189 -0.5326  0.4813 -0.2602
11451TIP3    H155844   0.773   3.850  34.282  0.3672 -0.5357 -0.0998
11451TIP3    H255845   0.791   3.949  34.170  0.1616  0.7905  1.0136
11452TIP3   OH255846   1.531   0.609  34.932 -0.1349 -0.0160 -0.8801
11452TIP3    H155847   1.542   0.574  35.020  1.0172  1.7617 -0.2413
11452TIP3    H255848   1.608   0.665  34.919 -0.3011 -0.1918 -3.0028
11453TIP3   OH255849   2.485   2.144  29.764  0.1149 -0.3728  0.2858
11453TIP3    H155850   2.478   2.217  29.825 -1.9891  0.3371 -0.7073
11453TIP3    H255851   2.394   2.121  29.743  0.6395  0.3165 -3.5774
11454TIP3   OH255852   0.571   4.030  41.238  0.3514 -0.1413 -0.3649
11454TIP3    H155853   0.497   4.091  41.243  0.6167  0.1440  0.1498
11454TIP3    H255854   0.576   3.991  41.325 -0.2789 -1.4708 -0.8923
11455TIP3   OH255855   2.269   1.681   0.537 -0.4595  0.1072 -0.5647
11455TIP3    H155856   2.177   1.707   0.541 -0.3166  0.4818  1.0026
11455TIP3    H255857   2.276   1.630   0.456 -1.8687  0.7057 -1.0978
11456TIP3   OH255858   4.112   2.211   7.485 -0.3040 -0.5160  0.6495
11456TIP3    H155859   4.046   2.271   7.450  0.9470  0.8393  0.5032
11456TIP3    H255860   4.183   2.214   7.421  0.2085 -1.3672  1.1647
11457TIP3   OH255861   1.291   2.890  33.917 -0.2012 -0.1572  0.0998
11457TIP3    H155862   1.346   2.858  33.989  0.7146  0.3311 -0.3729
11457TIP3    H255863   1.310   2.984  33.912 -0.5961 -0.1032 -0.4917
11458TIP3   OH255864   1.462   3.665  30.277 -0.2821  0.3366  0.2465
11458TIP3    H155865   1.476   3.636  30.187  0.6024 -1.1244  0.8166
11458TIP3    H255866   1.377   3.629  30.301  0.0534 -0.3733  0.3962
11459TIP3   OH255867   4.334   3.867  22.027  0.1930  0.1061  0.1056
11459TIP3    H155868   4.408   3.816  22.060  0.0614  0.4114  0.9096
11459TIP3    H255869   4.371   3.952  22.004  0.2278  0.0013 -0.2232
11460TIP3   OH255870   2.047   3.661  38.354  0.3159  0.1208  0.4663
11460TIP3    H155871   2.055   3.739  38.409  1.0453 -0.5533  1.3516
11460TIP3    H255872   2.098   3.681  38.276 -0.2975  0.8874  0.2418
11461TIP3   OH255873   0.596   3.329  40.920  0.4869 -0.0155 -0.4888
11461TIP3    H155874   0.597   3.374  41.005 -1.1456 -1.0460  0.1062
11461TIP3    H255875   0.515   3.358  40.878 -0.3077 -1.9097 -0.3411
11462TIP3   OH255876   4.224   3.256  12.052 -0.6367  0.1239  0.7350
11462TIP3    H155877   4.223   3.204  11.971 -1.4962 -0.0171  0.8243
11462TIP3    H255878   4.291   3.323  12.037 -1.5656  0.8279 -0.5845
11463TIP3   OH255879   4.030   1.860  24.711 -0.2496  0.0389  0.8656
11463TIP3    H155880   3.987   1.865  24.626 -0.1444 -1.7229  0.6709
11463TIP3    H255881   4.108   1.915  24.701 -1.3118  1.5608  0.5516
11464TIP3   OH255882   1.171   1.445  18.525  0.4308 -0.0406 -0.1627
11464TIP3    H155883   1.155   1.390  18.602  3.8910  0.1953  0.8777
11464TIP3    H255884   1.085   1.482  18.504 -0.9628 -1.4731  2.5193
11465TIP3   OH255885   2.846   4.066  30.612  0.2086 -0.6433  0.3919
11465TIP3    H155886   2.918   4.103  30.662 -0.8222 -0.7672  2.0239
11465TIP3    H255887   2.846   4.115  30.530 -0.5763  2.4788  2.0980
11466TIP3   OH255888   2.260   0.595   1.360 -0.0703  0.5215  0.4800
11466TIP3    H155889   2.191   0.546   1.404 -1.0757  1.7308  0.3137
11466TIP3    H255890   2.339   0.576   1.410 -0.3083 -1.5960  0.1548
11467TIP3   OH255891   0.966   3.205   6.733 -0.2788 -0.0739  0.0215
11467TIP3    H155892   0.978   3.260   6.811 -1.8178  0.5111 -0.1072
11467TIP3    H255893   0.915   3.131   6.763  1.7546 -1.4887  0.1786
11468TIP3   OH255894   2.643   1.212  39.648 -0.5361 -0.6955  0.1542
11468TIP3    H155895   2.679   1.235  39.734 -0.3768  0.8583 -0.2924
11468TIP3    H255896   2.699   1.140  39.617 -0.2689 -0.9178  1.1235
11469TIP3   OH255897   0.932   0.413   6.675  0.5771 -0.4551  0.4056
11469TIP3    H155898   0.852   0.370   6.645  0.2447 -0.5117  1.3468
11469TIP3    H255899   0.996   0.342   6.684 -0.1930 -0.9216  2.7094
11470TIP3   OH255900   0.269   2.326   5.771 -0.4549  0.4304  0.4024
11470TIP3    H155901   0.362   2.348   5.759 -0.1329 -1.1957 -0.3972
11470TIP3    H255902   0.231   2.339   5.684 -0.6041 -0.5319  0.3211
11471TIP3   OH255903   4.283   1.303   6.907 -0.3605  0.0327  0.6072
11471TIP3    H155904   4.289   1.284   6.813 -1.4452 -2.2961  0.9444
11471TIP3    H255905   4.341   1.238   6.948 -2.4117 -1.2191  1.7024
11472TIP3   OH255906   0.506   2.394   9.509  0.3074  0.3662  0.1659
11472TIP3    H155907   0.455   2.429   9.436 -0.7822 -0.7729  0.3535
11472TIP3    H255908   0.583   2.451   9.514 -0.2008  1.1990 -1.0875
11473TIP3   OH255909   2.455   1.294  34.346  0.0772  0.1741  0.2211
11473TIP3    H155910   2.406   1.235  34.289  0.4331 -2.1500  2.1685
11473TIP3    H255911   2.519   1.335  34.288 -2.2324  1.1483 -1.8097
11474TIP3   OH255912   3.026   0.008   4.642  0.3332  0.0544 -0.0444
11474TIP3    H155913   3.036   0.067   4.567 -0.5977  1.2627  0.7364
11474TIP3    H255914   2.962  -0.057   4.613 -0.5377  0.9036 -0.1178
11475TIP3   OH255915   4.362   1.265  28.691  0.0007  0.0081 -0.2054
11475TIP3    H155916   4.314   1.209  28.630  0.2547  0.6600 -1.0303
11475TIP3    H255917   4.299   1.333  28.716  0.0416  0.0083 -0.1007
11476TIP3   OH255918   1.272   2.460  11.676 -0.2133  0.1366  0.2980
11476TIP3    H155919   1.306   2.409  11.603 -0.4671  0.2733  0.0827
11476TIP3    H255920   1.346   2.468  11.736 -0.2432 -0.6926  0.4576
11477TIP3   OH255921   4.154   2.552  32.064  0.0286 -0.2853 -0.1903
11477TIP3    H155922   4.077   2.543  32.121 -0.7796  2.9354 -0.6118
11477TIP3    H255923   4.227   2.561  32.125 -0.5561  1.0972  0.3567
11478TIP3   OH255924   2.067   0.752  35.753  0.3647 -0.2601  0.3487
11478TIP3    H155925   2.091   0.734  35.844  0.2385 -0.4642  0.3432
11478TIP3    H255926   1.987   0.701  35.740 -0.5592  1.0729  0.6316
11479TIP3   OH255927   1.158   2.592  35.753  0.0936 -0.0172  0.3635
11479TIP3    H155928   1.230   2.556  35.702 -1.0568 -0.3004 -1.1100
11479TIP3    H255929   1.195   2.604  35.841  1.5349 -1.4054 -0.0137
11480TIP3   OH255930   1.203   1.688   5.234 -0.3498  0.5254 -0.1948
11480TIP3    H155931   1.257   1.652   5.304  0.1089 -0.1067 -0.8541
11480TIP3    H255932   1.205   1.621   5.165 -0.8811  1.0791 -0.7642
11481TIP3   OH255933   0.002   4.018  34.619 -0.2341 -0.1195 -1.1138
11481TIP3    H155934  -0.003   4.048  34.528  0.3084 -0.7580 -1.3659
11481TIP3    H255935   0.012   3.923  34.612  1.4495 -0.0279 -0.4474
11482TIP3   OH255936   3.172   1.352   5.969 -0.2580  0.1680 -0.1574
11482TIP3    H155937   3.093   1.404   5.986 -1.1455 -1.1910  0.0551
11482TIP3    H255938   3.163   1.277   6.028  0.6169 -0.5925 -0.9840
11483TIP3   OH255939   2.002   2.815  38.240 -0.1210 -0.4539 -0.4039
11483TIP3    H155940   2.022   2.735  38.289 -1.4982 -2.0226 -2.2864
11483TIP3    H255941   2.003   2.884  38.307  1.9951 -1.8403  1.1397
11484TIP3   OH255942   1.511   2.412   7.121 -0.3343  0.7143 -0.1410
11484TIP3    H155943   1.587   2.376   7.166 -0.1772  2.0601  0.7304
11484TIP3    H255944   1.546   2.446   7.038 -0.2300  0.1998 -0.3141
11485TIP3   OH255945   3.293   3.901   9.388 -0.2296 -0.6890 -0.1875
11485TIP3    H155946   3.359   3.941   9.443 -1.8313 -0.1114  1.4139
11485TIP3    H255947   3.214   3.952   9.404 -1.3351 -1.9828 -1.2340
11486TIP3   OH255948   3.357   3.169   8.532 -0.1006  0.6597  0.4047
11486TIP3    H155949   3.399   3.213   8.606  0.4091 -0.9622  1.1162
11486TIP3    H255950   3.266   3.200   8.534 -0.1114  0.5954  1.7574
11487TIP3   OH255951   0.770   0.422  37.402 -0.1744 -0.0893  0.6790
11487TIP3    H155952   0.768   0.500  37.458 -0.2378  0.9875 -0.7567
11487TIP3    H255953   0.682   0.384  37.410 -0.2854  0.2316  1.0399
11488TIP3   OH255954   1.635   1.634  38.566  0.6037 -0.0433  0.2292
11488TIP3    H155955   1.606   1.724  38.581 -0.1161 -0.3336  0.6200
11488TIP3    H255956   1.693   1.615  38.640  0.1506 -0.1616  0.5504
11489TIP3   OH255957   0.787   3.420   6.070  0.2953  0.5491 -0.5366
11489TIP3    H155958   0.867   3.395   6.023 -0.0633  0.5400 -1.1484
11489TIP3    H255959   0.730   3.457   6.003 -0.8263 -0.8418 -0.3990
11490TIP3   OH255960   2.695   3.546   7.310  0.1966  0.0603 -0.1257
11490TIP3    H155961   2.644   3.606   7.365  0.6972  0.1400  0.2649
11490TIP3    H255962   2.772   3.597   7.284  1.0080 -0.6192  0.8284
11491TIP3   OH255963   4.374   0.305   5.594 -0.4622 -0.0064  0.2470
11491TIP3    H155964   4.450   0.325   5.540  0.6902 -0.1883  1.7288
11491TIP3    H255965   4.343   0.390   5.625 -0.6118  0.0369 -0.0178
11492TIP3   OH255966   2.108   3.413   1.122 -0.5466 -0.5113  0.2491
11492TIP3    H155967   2.161   3.424   1.201 -1.3039 -1.6222  0.9451
11492TIP3    H255968   2.025   3.456   1.142 -0.7369 -0.7884  0.0726
11493TIP3   OH255969   2.692   3.190  32.960  0.2110 -0.1654  0.4791
11493TIP3    H155970   2.643   3.196  32.878  0.2647  0.1134  0.4674
11493TIP3    H255971   2.782   3.211  32.934 -0.0388  1.5538  0.8858
11494TIP3   OH255972   1.814   0.166  28.571 -0.0457 -0.4728 -0.5162
11494TIP3    H155973   1.800   0.226  28.644 -0.3264 -1.1320 -0.0091
11494TIP3    H255974   1.862   0.217  28.506 -1.2270  0.6225 -0.5671
11495TIP3   OH255975   1.369   3.367  32.556 -0.0404  0.0452 -0.2700
11495TIP3    H155976   1.423   3.306  32.506  1.4753  2.2363 -1.5033
11495TIP3    H255977   1.384   3.343  32.648  0.9682 -1.0358 -0.6928
11496TIP3   OH255978   3.355   0.052  27.857 -0.1897 -0.3974  0.2160
11496TIP3    H155979   3.436   0.034  27.810  0.2060  2.0605 -0.1439
11496TIP3    H255980   3.323   0.134  27.820 -1.9985 -0.4697  1.4827
11497TIP3   OH255981   1.401   2.409  32.985  0.5266  0.8042  0.3596
11497TIP3    H155982   1.382   2.380  32.896 -0.9218  0.3273  0.8078
11497TIP3    H255983   1.444   2.494  32.974  1.1901  0.3457 -0.8132
11498TIP3   OH255984   0.717   2.660  39.608 -0.4759  0.6663 -0.1100
11498TIP3    H155985   0.800   2.625  39.642 -1.0555  0.7216  1.4220
11498TIP3    H255986   0.674   2.584  39.569 -0.6920  0.1318  1.1167
11499TIP3   OH255987   3.738   3.358   8.810  0.4269 -0.3469 -0.3206
11499TIP3    H155988   3.821   3.311   8.822  0.8770  0.6833  0.7695
11499TIP3    H255989   3.764   3.448   8.793 -0.4724  0.2600  1.3186
11500TIP3   OH255990   4.051   3.168  30.582 -0.0431 -0.0893  0.7490
11500TIP3    H155991   3.986   3.103  30.554 -0.0103 -0.6677  1.9508
11500TIP3    H255992   4.123   3.159  30.519 -1.4816  1.2606 -1.2383
11501TIP3   OH255993   0.515   3.197  32.729 -0.1848 -0.0123 -0.0759
11501TIP3    H155994   0.445   3.190  32.794 -0.4042 -2.8788 -0.5256
11501TIP3    H255995   0.584   3.139  32.762  0.8573  0.6535 -1.0285
11502TIP3   OH255996   3.737   0.883  41.457  0.4943  0.0289 -0.6102
11502TIP3    H155997   3.733   0.971  41.495 -0.7659 -1.5441  3.4816
11502TIP3    H255998   3.645   0.859  41.444  0.8599 -0.1530 -3.4138
11503TIP3   OH255999   1.616   2.281   0.082  0.1828 -0.1241  0.2949
11503TIP3    H156000   1.580   2.222   0.016 -1.5101  1.1223  0.0381
11503TIP3    H256001   1.580   2.250   0.165  1.8803 -1.3622  0.6162
11504TIP3   OH256002   2.429   0.639  33.750  0.0552 -0.4158 -0.3434
11504TIP3    H156003   2.335   0.621  33.741  0.0435  0.0258 -1.2805
11504TIP3    H256004   2.470   0.577  33.690  0.2751  0.1500 -0.7856
11505TIP3   OH256005   2.853   3.211  27.277 -0.1518 -0.2926  0.0330
11505TIP3    H156006   2.812   3.181  27.357 -2.8086 -0.2912 -1.2230
11505TIP3    H256007   2.782   3.216  27.213  1.7713  0.0165 -2.2569
11506TIP3   OH256008   3.548   4.239  30.756 -0.4069  0.0409 -0.8035
11506TIP3    H156009   3.513   4.314  30.706 -1.8938 -0.4766 -0.5878
11506TIP3    H256010   3.572   4.175  30.689  0.0356  0.3609 -0.9534
11507TIP3   OH256011   4.020   0.485  29.522  0.0829  0.6473  0.5206
11507TIP3    H156012   4.067   0.402  29.527 -1.0691 -0.1225 -0.8032
11507TIP3    H256013   3.970   0.489  29.604  0.4303  0.2223  0.7572
11508TIP3   OH256014   2.207   1.324   6.870  0.2205  0.0473 -0.1932
11508TIP3    H156015   2.301   1.317   6.885  0.0821  0.6229  1.0950
11508TIP3    H256016   2.168   1.322   6.958 -0.6972  3.7346 -0.3773
11509TIP3   OH256017   2.596   2.380   2.576 -0.1522 -0.1095  0.4789
11509TIP3    H156018   2.522   2.356   2.521  0.4656  0.5844 -0.6985
11509TIP3    H256019   2.636   2.455   2.532 -0.1897  1.0926  2.3932
11510TIP3   OH256020   2.440   2.428  38.026 -0.2222 -0.1094 -0.0965
11510TIP3    H156021   2.354   2.421  37.985 -0.4657 -1.2892  0.5725
11510TIP3    H256022   2.500   2.438  37.952 -0.9189  0.7125 -0.5665
11511TIP3   OH256023   4.213   2.503  40.627 -0.3971  0.9983  0.0426
11511TIP3    H156024   4.254   2.525  40.544 -2.6019 -1.4540 -1.8454
11511TIP3    H256025   4.126   2.543  40.623 -0.4180  1.1422  1.3421
11512TIP3   OH256026   1.172   4.347   1.063 -0.9693 -0.4276  0.9910
11512TIP3    H156027   1.242   4.295   1.103 -0.0547  1.3158  1.7691
11512TIP3    H256028   1.218   4.414   1.013 -2.0910  0.7745  1.5401
11513TIP3   OH256029   2.284   2.567   5.509  0.4494  0.0942  0.0677
11513TIP3    H156030   2.216   2.579   5.443 -0.6517 -0.3092  1.0960
11513TIP3    H256031   2.358   2.531   5.460 -0.6838 -1.1886 -0.7881
11514TIP3   OH256032   1.241   3.711  12.406 -0.1702  0.0306  0.7187
11514TIP3    H156033   1.283   3.751  12.330  1.0754 -0.8820  0.8898
11514TIP3    H256034   1.180   3.778  12.438 -1.1844  0.2097 -1.4219
11515TIP3   OH256035   3.740   1.630   6.754  0.1203  0.2905  0.6258
11515TIP3    H156036   3.670   1.673   6.804 -0.6392 -0.2195  0.0425
11515TIP3    H256037   3.748   1.684   6.675 -1.8373 -1.3562 -0.7890
11516TIP3   OH256038   3.772   0.376  34.866  0.3738  0.6215 -0.1522
11516TIP3    H156039   3.752   0.283  34.878  1.5851  0.4583  0.7047
11516TIP3    H256040   3.793   0.408  34.953 -0.2172  1.7665 -0.4059
11517TIP3   OH256041   3.769   3.758   3.234 -0.3271 -0.2275 -0.1271
11517TIP3    H156042   3.743   3.774   3.144 -1.4972  1.4454  0.4663
11517TIP3    H256043   3.729   3.673   3.256 -1.7848  0.3255 -0.5483
11518TIP3   OH256044   1.746   2.019  14.456 -0.2547  0.0166  0.6085
11518TIP3    H156045   1.673   2.008  14.395 -0.5928 -0.0509  1.0223
11518TIP3    H256046   1.820   1.977  14.413 -0.6319 -0.5377  0.4938
11519TIP3   OH256047   3.438   1.510  37.286 -0.1525 -0.1103 -0.6951
11519TIP3    H156048   3.452   1.481  37.196 -0.3603  0.1791 -0.8223
11519TIP3    H256049   3.412   1.431  37.333 -1.3715 -0.0247 -1.1858
11520TIP3   OH256050   1.881   2.740   8.195  0.2335 -0.3113 -0.3305
11520TIP3    H156051   1.955   2.798   8.215  0.4227 -1.2409  2.0642
11520TIP3    H256052   1.913   2.682   8.127  0.7282  1.0560 -1.3191
11521TIP3   OH256053   3.664   2.040  28.154 -0.1988 -0.4991 -0.1596
11521TIP3    H156054   3.633   2.014  28.241 -1.1203 -2.2124 -0.9469
11521TIP3    H256055   3.596   2.099  28.121  1.5464  2.5832  1.3446
11522TIP3   OH256056   2.500   0.807  30.836 -0.3815  0.4373  0.4626
11522TIP3    H156057   2.458   0.863  30.901  2.3066  1.5664  1.3654
11522TIP3    H256058   2.428   0.765  30.790 -2.4710  3.1857  1.0233
11523TIP3   OH256059   0.712   0.528  13.840 -0.3746 -0.0928  0.1114
11523TIP3    H156060   0.797   0.542  13.883 -0.6653  0.7231  0.4469
11523TIP3    H256061   0.650   0.577  13.894 -1.4184 -2.3516  1.0714
11524TIP3   OH256062   4.395   0.214  32.716  0.1452  0.0892  0.5248
11524TIP3    H156063   4.361   0.129  32.743  2.2005 -0.6022  1.0966
11524TIP3    H256064   4.446   0.245  32.791  1.7746  0.4761 -0.6741
11525TIP3   OH256065   0.148   2.372  25.919  0.4524 -0.0198 -0.0427
11525TIP3    H156066   0.227   2.320  25.926  0.6972 -0.2433 -2.9811
11525TIP3    H256067   0.179   2.458  25.890 -0.3079  0.1000 -0.5255
11526TIP3   OH256068   3.425   2.116  36.599  0.5014  0.5921 -0.7282
11526TIP3    H156069   3.353   2.142  36.543  1.7472 -0.3172 -2.8826
11526TIP3    H256070   3.491   2.184  36.586  1.4536 -0.4802 -1.7501
11527TIP3   OH256071   0.127   0.289  25.235  0.2527 -0.1090 -0.0042
11527TIP3    H156072   0.153   0.207  25.193  0.8842 -0.3194  0.7704
11527TIP3    H256073   0.076   0.261  25.311  0.9911  0.1859  0.6082
11528TIP3   OH256074   3.453   3.304   6.739  0.4351 -0.0975  0.4543
11528TIP3    H156075   3.391   3.270   6.675  0.2235 -0.9784  1.1088
11528TIP3    H256076   3.532   3.322   6.689  0.2922 -0.8281 -0.0483
11529TIP3   OH256077   2.977   3.093  10.005  0.6401 -0.2605 -0.1624
11529TIP3    H156078   2.914   3.085   9.934 -0.4236  1.4840  0.5256
11529TIP3    H256079   3.032   3.167   9.981  0.4860  0.1317  0.6511
11530TIP3   OH256080   2.990   0.398  28.992 -0.3463  0.1215 -0.1456
11530TIP3    H156081   2.998   0.453  29.069 -3.9522  0.3153  0.2643
11530TIP3    H256082   3.032   0.448  28.922 -0.7387  1.9385  0.8639
11531TIP3   OH256083   3.229   3.609  32.655  0.1904 -0.1709  0.3486
11531TIP3    H156084   3.142   3.642  32.630  0.8377 -0.2064 -2.3033
11531TIP3    H256085   3.215   3.516  32.673  0.0144 -0.9271 -2.9637
11532TIP3   OH256086   3.893   1.868  26.640 -0.2100 -0.6552 -0.6893
11532TIP3    H156087   3.932   1.792  26.597  0.5943 -0.5198 -0.2292
11532TIP3    H256088   3.918   1.942  26.585  0.5920 -0.5147 -0.1605
11533TIP3   OH256089   3.554   2.228  23.962 -0.1942 -0.4241 -0.0603
11533TIP3    H156090   3.507   2.194  23.885 -1.4248  0.1545  0.3996
11533TIP3    H256091   3.524   2.173  24.034 -0.4955  0.2104  0.3068
11534TIP3   OH256092   1.851   2.960  40.364 -0.1427  0.0079  0.4419
11534TIP3    H156093   1.862   2.993  40.275  0.5157  2.0250  1.2314
11534TIP3    H256094   1.838   3.038  40.418 -1.1752 -1.2024  2.0516
11535TIP3   OH256095   1.335   2.292  16.080  0.1957 -0.0701 -0.2891
11535TIP3    H156096   1.372   2.211  16.117  0.6641  0.1840 -0.1929
11535TIP3    H256097   1.405   2.357  16.091 -0.5424  0.6072  0.5502
11536TIP3   OH256098   2.419   2.937  37.687  0.2635  0.1816 -0.1626
11536TIP3    H156099   2.461   3.004  37.741  0.0414  0.8802 -0.8291
11536TIP3    H256100   2.347   2.905  37.741  1.3729 -0.7388  0.8332
11537TIP3   OH256101   1.263   3.864   4.961  0.3188  0.2556 -0.6685
11537TIP3    H156102   1.300   3.784   4.922 -1.1238 -0.9846  0.3711
11537TIP3    H256103   1.181   3.877   4.914 -1.0221 -0.7667  1.2456
11538TIP3   OH256104   1.304   3.970   3.187  0.5680  0.0679 -0.2709
11538TIP3    H156105   1.241   4.042   3.187  0.2319 -0.1830 -2.0968
11538TIP3    H256106   1.330   3.961   3.279 -2.1175  0.1191  0.6001
11539TIP3   OH256107   1.175   0.697  36.332 -0.3393  0.5059  0.1984
11539TIP3    H156108   1.250   0.639  36.339 -0.6335  0.0780 -0.1489
11539TIP3    H256109   1.193   0.767  36.395 -0.0965 -0.0860  0.8018
11540TIP3   OH256110   3.559   2.404  32.269 -0.4450 -0.3277  0.4930
11540TIP3    H156111   3.613   2.398  32.190  0.5383 -1.3873  1.2034
11540TIP3    H256112   3.548   2.313  32.297 -0.7435  0.0305  1.5920
11541TIP3   OH256113   0.823   2.499  31.528 -0.5293 -0.2797 -0.3258
11541TIP3    H156114   0.839   2.416  31.575 -0.9256  0.3923  1.0478
11541TIP3    H256115   0.895   2.556  31.555 -1.7171  0.6973  0.9174
11542TIP3   OH256116   1.245   2.916  10.524 -0.6789 -0.3347 -0.1893
11542TIP3    H156117   1.309   2.846  10.539 -1.1991 -0.4885  1.4403
11542TIP3    H256118   1.237   2.920  10.428 -1.3317 -3.1480 -0.3346
11543TIP3   OH256119   0.203   2.451  23.891  0.5686  0.3371  0.2470
11543TIP3    H156120   0.187   2.358  23.903  2.1464  0.0577  0.3647
11543TIP3    H256121   0.191   2.466  23.797 -2.5133  0.6539  0.5558
11544TIP3   OH256122   1.083   4.377  36.528 -0.4358  0.3508  0.1284
11544TIP3    H156123   1.077   4.463  36.568 -1.1924 -0.0395  0.9000
11544TIP3    H256124   1.002   4.368  36.477  0.1467  0.5237 -0.8376
11545TIP3   OH256125   0.205   3.704  10.409 -0.3092 -0.2051 -0.3716
11545TIP3    H156126   0.112   3.723  10.401  0.1509  2.0579 -1.1605
11545TIP3    H256127   0.244   3.739  10.329  1.3007 -0.5174  0.2241
11546TIP3   OH256128   3.090   3.663  13.291  0.0592  0.6481 -0.0912
11546TIP3    H156129   3.006   3.692  13.326  0.7698 -0.4103  2.8147
11546TIP3    H256130   3.138   3.744  13.274 -0.0511  1.3004  2.3429
11547TIP3   OH256131   3.991   3.793  26.345  0.2134 -0.4452 -0.0122
11547TIP3    H156132   3.950   3.739  26.277 -0.1782  1.0493 -0.9894
11547TIP3    H256133   3.968   3.749  26.427 -0.4395 -1.5314 -0.7489
11548TIP3   OH256134   1.448   2.512  35.833 -0.1946  0.3313 -0.3052
11548TIP3    H156135   1.541   2.524  35.814  0.0648  0.3269  0.9070
11548TIP3    H256136   1.421   2.594  35.874 -0.6459  0.2088 -0.3497
11549TIP3   OH256137   2.830   2.648  31.135 -0.1015 -0.3515 -0.5995
11549TIP3    H156138   2.907   2.682  31.180  0.0638 -0.7863 -0.5527
11549TIP3    H256139   2.854   2.559  31.109 -1.0545 -1.0016  0.6093
11550TIP3   OH256140   1.074   0.884  31.596 -0.8967 -0.0585  0.3618
11550TIP3    H156141   1.058   0.930  31.678  0.9723 -0.3710  0.9565
11550TIP3    H256142   1.106   0.798  31.622  0.8882  0.2437 -0.6268
11551TIP3   OH256143   1.278   0.282   5.207  1.0644  0.1436 -0.4069
11551TIP3    H156144   1.207   0.345   5.196  0.6682 -0.3021 -0.4736
11551TIP3    H256145   1.328   0.314   5.282 -1.5271 -1.5912  2.3324
11552TIP3   OH256146   3.957   0.312  27.281 -0.5716  0.1868 -0.1048
11552TIP3    H156147   4.011   0.390  27.268 -1.0007  0.4101 -0.5522
11552TIP3    H256148   3.992   0.272  27.361  1.3127 -0.5396 -1.2154
11553TIP3   OH256149   0.026   1.439   9.795  0.0054 -0.6576  0.1149
11553TIP3    H156150   0.049   1.396   9.712 -1.3114 -0.9547 -0.1124
11553TIP3    H256151   0.108   1.441   9.844  0.8043 -0.5096 -1.1747
11554TIP3   OH256152   1.636   3.395   8.650  0.4836  0.1793 -0.3286
11554TIP3    H156153   1.669   3.473   8.695  1.1200 -0.9558  1.2722
11554TIP3    H256154   1.599   3.342   8.720 -1.1794 -0.3825 -1.5633
11555TIP3   OH256155   0.583   2.635  27.338 -0.4501 -0.4801  0.4152
11555TIP3    H156156   0.635   2.710  27.310 -0.5964 -0.2467  0.7627
11555TIP3    H256157   0.493   2.668  27.344 -0.4987 -0.6525  0.6742
11556TIP3   OH256158   0.397   3.190   2.975  0.4358  0.0189 -0.5852
11556TIP3    H156159   0.480   3.231   2.950  0.6238 -0.2361 -0.3946
11556TIP3    H256160   0.423   3.109   3.019  0.1145  0.3083  0.1707
11557TIP3   OH256161   1.242   1.742  15.317 -0.0018  0.1289 -0.3206
11557TIP3    H156162   1.262   1.685  15.392  0.0317  1.8043  1.0027
11557TIP3    H256163   1.328   1.762  15.280  0.3045  1.7738  1.1407
11558TIP3   OH256164   3.997   1.561  38.913  0.4762 -0.7572 -0.7799
11558TIP3    H156165   3.932   1.577  38.981 -0.0108  1.7009 -1.7463
11558TIP3    H256166   4.049   1.488  38.947 -0.3323 -0.2434  1.7750
11559TIP3   OH256167   0.793   3.911  18.561 -0.2726  0.2275 -0.0977
11559TIP3    H156168   0.872   3.948  18.521 -0.7088 -1.5225 -2.8979
11559TIP3    H256169   0.822   3.880  18.647  1.4644  1.7388 -0.0726
11560TIP3   OH256170   4.258   1.299   3.279 -0.1071 -0.1352  0.3787
11560TIP3    H156171   4.162   1.296   3.285  0.0065 -0.6446  2.6796
11560TIP3    H256172   4.287   1.219   3.323  1.4153  1.0904  1.7073
11561TIP3   OH256173   3.216   3.626   0.988 -0.1258  0.1607  0.2835
11561TIP3    H156174   3.156   3.699   1.000  0.2329  0.3324  1.1169
11561TIP3    H256175   3.298   3.655   1.028  0.9740  0.4539 -2.0049
11562TIP3   OH256176   2.079   4.300  37.446 -0.4212 -0.1091 -0.0294
11562TIP3    H156177   2.090   4.269  37.356 -0.6640  2.1072 -0.8779
11562TIP3    H256178   2.014   4.369  37.440 -0.7635 -0.1974  1.9496
11563TIP3   OH256179   0.114   1.695  32.414 -0.4270 -0.2658  0.0813
11563TIP3    H156180   0.072   1.774  32.381 -0.7144 -0.2072  0.5865
11563TIP3    H256181   0.205   1.721  32.429  0.0481 -0.6249 -1.8369
11564TIP3   OH256182   0.815   2.826  33.343  0.0814 -0.0671 -0.1737
11564TIP3    H156183   0.867   2.865  33.273  0.2188 -0.8188 -0.5099
11564TIP3    H256184   0.862   2.847  33.423 -0.3508  1.2437 -0.2482
11565TIP3   OH256185   2.529   0.619  36.074 -0.1701 -0.3401 -0.1277
11565TIP3    H156186   2.525   0.701  36.125 -2.3042 -0.0394 -0.6877
11565TIP3    H256187   2.622   0.606  36.057  0.4089  0.7986  1.8463
11566TIP3   OH256188   4.349   1.794  27.573 -0.6406 -0.6715  0.1461
11566TIP3    H156189   4.279   1.760  27.628 -0.5635 -0.5955  0.2943
11566TIP3    H256190   4.428   1.783  27.626 -0.7434  0.6350  0.5994
11567TIP3   OH256191   0.505   2.871  23.098  0.6136  0.6664  0.1881
11567TIP3    H156192   0.549   2.944  23.054  0.0689  0.7148 -0.2876
11567TIP3    H256193   0.430   2.851  23.042  2.1471 -1.9758 -1.0937
11568TIP3   OH256194   3.940   1.348  35.897  0.0401  0.0114 -0.2636
11568TIP3    H156195   4.036   1.343  35.901  0.0761  0.9641  0.2900
11568TIP3    H256196   3.922   1.441  35.884 -0.8348 -0.0321  0.5454
11569TIP3   OH256197   1.007   2.036  27.956 -0.0805  0.0979 -0.0159
11569TIP3    H156198   0.956   2.102  28.003 -0.7713 -1.7435  1.9847
11569TIP3    H256199   1.002   1.958  28.011  1.3319 -1.4297 -1.9046
11570TIP3   OH256200   3.804   0.410  26.671  0.0849 -0.0913 -1.0563
11570TIP3    H156201   3.714   0.438  26.683  0.3699  0.1817  0.6302
11570TIP3    H256202   3.808   0.380  26.580 -1.6926 -0.1284 -1.1476
11571TIP3   OH256203   3.455   2.878  10.069 -0.2514 -0.0233  0.2320
11571TIP3    H156204   3.543   2.865  10.104  0.1187  0.1749 -0.6136
11571TIP3    H256205   3.397   2.853  10.141  0.4891  1.0942  1.2570
11572TIP3   OH256206   2.252   3.175  27.639 -0.1862  0.3997 -0.0175
11572TIP3    H156207   2.273   3.233  27.712  0.2458  0.2738 -0.0369
11572TIP3    H256208   2.195   3.108  27.676  0.6711 -0.1187  0.3901
11573TIP3   OH256209   0.064   3.388  37.530 -0.1365  0.4646 -0.5017
11573TIP3    H156210  -0.029   3.408  37.535 -0.1283  0.5362 -0.6178
11573TIP3    H256211   0.078   3.321  37.597  0.1525  1.9753  1.0031
11574TIP3   OH256212   0.058   0.848   3.532  0.3478  0.3933  0.2388
11574TIP3    H156213   0.080   0.782   3.598  1.3529  0.2209 -0.2563
11574TIP3    H256214   0.032   0.798   3.455  0.1388  0.5836  0.1839
11575TIP3   OH256215   3.836   3.987  28.420 -0.3656  0.2173  0.1121
11575TIP3    H156216   3.858   3.944  28.503 -0.2879 -1.3492 -0.6713
11575TIP3    H256217   3.886   4.068  28.420 -0.2640  0.1709  1.5271
11576TIP3   OH256218   1.855   1.017  14.176 -0.3236  0.0223 -0.1323
11576TIP3    H156219   1.922   0.961  14.136 -0.1392 -0.1210  0.3628
11576TIP3    H256220   1.787   0.956  14.205 -0.3373  0.0986 -0.0022
11577TIP3   OH256221   2.634   2.183   1.034  0.0775  0.7060  1.2868
11577TIP3    H156222   2.676   2.147   1.112 -2.6808 -0.4914  2.3693
11577TIP3    H256223   2.540   2.183   1.056 -0.5860  2.6318 -1.1396
11578TIP3   OH256224   3.976   1.760   4.406 -0.2445  0.6867 -0.0782
11578TIP3    H156225   3.946   1.726   4.322 -0.2897  0.4666  0.0274
11578TIP3    H256226   4.058   1.714   4.423 -0.6478  0.1372  0.3863
11579TIP3   OH256227   4.385   0.046  41.489  0.0487 -0.2176  0.1701
11579TIP3    H156228   4.456  -0.019  41.487 -0.5433 -0.9046  0.8517
11579TIP3    H256229   4.430   0.130  41.501  0.8101 -0.5219 -0.4659
11580TIP3   OH256230   3.530   0.056  39.356 -0.0101 -0.0973  0.7483
11580TIP3    H156231   3.489   0.131  39.399 -1.4223  0.1251 -0.8492
11580TIP3    H256232   3.470  -0.016  39.370  1.1197 -0.8599  1.8842
11581TIP3   OH256233   3.820   0.560  27.047 -0.0285 -0.1830  0.2141
11581TIP3    H156234   3.860   0.522  27.125  1.6833 -1.9207 -1.3654
11581TIP3    H256235   3.799   0.650  27.071  1.6469 -0.2685  2.2813
11582TIP3   OH256236   0.172   0.295  41.461  0.0586 -0.1039 -0.0907
11582TIP3    H156237   0.192   0.351  41.386  1.3253  0.0640  0.3385
11582TIP3    H256238   0.175   0.355  41.537  0.7743 -0.6116  0.2990
11583TIP3   OH256239   3.303   2.591   9.435 -0.0359  0.0681 -0.6327
11583TIP3    H156240   3.219   2.553   9.462 -1.0549  1.6895 -1.3471
11583TIP3    H256241   3.369   2.535   9.476 -1.4529 -1.2731 -0.0680
11584TIP3   OH256242   2.725   1.299  30.162  0.6590 -0.0206  0.1364
11584TIP3    H156243   2.711   1.258  30.247 -0.1818  1.8318  0.9700
11584TIP3    H256244   2.771   1.380  30.182 -0.2719  0.8453 -1.0471
11585TIP3   OH256245   2.083   1.401  32.240 -0.7250 -0.4358 -0.2344
11585TIP3    H156246   2.051   1.399  32.330 -1.0960 -0.7379 -0.3679
11585TIP3    H256247   2.031   1.469  32.197  1.2478  1.6305  0.4095
11586TIP3   OH256248   1.086   1.993  11.192 -0.0351 -0.0429  0.1110
11586TIP3    H156249   1.159   1.939  11.223  1.6486  1.5426 -0.8338
11586TIP3    H256250   1.092   2.073  11.244  0.6016  1.1832 -1.7410
11587TIP3   OH256251   4.120   3.159   0.076 -0.1987  0.2821  0.2223
11587TIP3    H156252   4.037   3.152   0.124 -0.4425  1.2195 -0.0416
11587TIP3    H256253   4.142   3.252   0.079 -0.0205  0.3078 -1.1223
11588TIP3   OH256254   2.573   0.812  39.392  0.0428  0.0946 -0.1736
11588TIP3    H156255   2.557   0.876  39.323 -2.3233 -0.4173 -0.1919
11588TIP3    H256256   2.631   0.747  39.352  0.5489  0.9776 -0.9091
11589TIP3   OH256257   1.363   3.326  35.132 -0.2554  0.0672 -0.1278
11589TIP3    H156258   1.420   3.265  35.178 -0.0773  1.2270  1.2420
11589TIP3    H256259   1.392   3.412  35.159 -3.5243  0.7412  1.8042
11590TIP3   OH256260   3.615   2.502  30.492  0.6641 -0.6020 -0.1630
11590TIP3    H156261   3.609   2.501  30.588  0.9466 -1.8640 -0.1464
11590TIP3    H256262   3.700   2.541  30.474  1.0681 -1.3245  0.1378
11591TIP3   OH256263   2.662   3.508  12.323  0.2428 -0.4315 -0.5583
11591TIP3    H156264   2.730   3.554  12.372  0.0846  1.1688 -1.7236
11591TIP3    H256265   2.612   3.461  12.389  0.9659  0.3892  0.6212
11592TIP3   OH256266   2.382   1.414   8.881 -0.2843 -0.2549  0.4060
11592TIP3    H156267   2.475   1.440   8.880 -0.7723  1.8422 -2.2820
11592TIP3    H256268   2.368   1.373   8.796 -1.8829 -0.2796  0.6555
11593TIP3   OH256269   4.377   1.155  38.262  0.4292  1.1136 -0.0128
11593TIP3    H156270   4.367   1.142  38.356 -0.1277  1.2996 -0.0403
11593TIP3    H256271   4.335   1.079  38.222 -0.8559  1.8473 -0.1319
11594TIP3   OH256272   2.559   0.034  35.165  0.4737  0.0837  0.4962
11594TIP3    H156273   2.506   0.028  35.244 -0.6836  2.2290 -0.0544
11594TIP3    H256274   2.497   0.054  35.095  1.5433 -1.1496 -0.8822
11595TIP3   OH256275   0.436   0.052  33.749 -0.2061  0.0753 -0.6655
11595TIP3    H156276   0.487   0.040  33.669  1.4353 -2.8493  0.6478
11595TIP3    H256277   0.354   0.004  33.733  0.4844 -1.2476 -0.3346
11596TIP3   OH256278   0.488   2.564   5.872  0.0790  0.2822 -0.3586
11596TIP3    H156279   0.530   2.639   5.830  0.2390 -0.4620 -1.5800
11596TIP3    H256280   0.558   2.498   5.878 -0.4212 -0.2849 -0.6399
11597TIP3   OH256281   0.893   3.879   7.787 -0.2884 -0.6168 -0.0160
11597TIP3    H156282   0.948   3.926   7.849  1.2318 -0.6180 -1.3181
11597TIP3    H256283   0.835   3.826   7.842  1.4866 -1.1670  1.4079
11598TIP3   OH256284   4.096   0.066  37.063 -0.2488  0.4664 -0.1464
11598TIP3    H156285   4.085   0.162  37.059 -3.4192  0.5184  3.5959
11598TIP3    H256286   4.121   0.042  36.974  1.7723  4.7996 -1.0490
11599TIP3   OH256287   2.835   1.264   2.435  0.3241 -0.1784  0.0118
11599TIP3    H156288   2.833   1.333   2.368  1.2373 -2.3418 -2.4037
11599TIP3    H256289   2.915   1.282   2.485 -0.2623  1.3584  0.4580
11600TIP3   OH256290   0.247   1.802  26.249  0.3069  0.1272 -0.3582
11600TIP3    H156291   0.264   1.854  26.328 -1.1783 -0.9312  0.7030
11600TIP3    H256292   0.213   1.866  26.185 -0.4361  0.6748  0.5583
11601TIP3   OH256293   0.069   0.331   1.610  0.0152  0.2449  0.4050
11601TIP3    H156294   0.112   0.416   1.605  2.0587 -0.6220  1.7518
11601TIP3    H256295   0.110   0.279   1.542 -2.0908  0.6090 -1.2474
11602TIP3   OH256296   4.220   3.948   2.724 -0.6194  0.7190 -0.6060
11602TIP3    H156297   4.311   3.964   2.752 -0.3525 -0.9183 -0.4046
11602TIP3    H256298   4.175   4.031   2.739  0.6087  1.2532  0.3022
11603TIP3   OH256299   3.521   1.551  33.660 -0.3997 -0.8672  0.2917
11603TIP3    H156300   3.536   1.473  33.713 -1.3027 -1.5399 -0.4369
11603TIP3    H256301   3.441   1.589  33.695 -0.6952 -1.0078 -0.2301
11604TIP3   OH256302   3.864   0.093  13.377 -0.1411 -0.8349  0.1666
11604TIP3    H156303   3.951   0.132  13.381 -0.5768  0.0567  1.7816
11604TIP3    H256304   3.878   0.000  13.393  0.5170 -0.7237  0.2689
11605TIP3   OH256305   2.053   3.344  29.538  0.6772  0.0487  0.0603
11605TIP3    H156306   2.096   3.259  29.528 -0.9713 -0.7024 -0.9928
11605TIP3    H256307   2.105   3.404  29.485  1.6026 -0.3767  0.4666
11606TIP3   OH256308   2.521   2.638   3.474  0.7352  0.2182  0.2180
11606TIP3    H156309   2.446   2.696   3.483  0.1804 -0.6563  1.6940
11606TIP3    H256310   2.596   2.697   3.463  0.0183  1.1629  0.3005
11607TIP3   OH256311   4.162   1.714   2.451 -0.3644  0.3209 -0.0999
11607TIP3    H156312   4.219   1.779   2.409 -0.4902  0.7312  0.3538
11607TIP3    H256313   4.090   1.701   2.388  0.4702 -0.5761 -0.8997
11608TIP3   OH256314   3.999   1.687  40.987 -0.3036  0.6944 -0.0331
11608TIP3    H156315   4.026   1.758  40.929 -0.0200  1.7154  1.2881
11608TIP3    H256316   4.078   1.662  41.034 -0.5448 -0.0289 -0.0018
11609TIP3   OH256317   1.795   3.870  10.762  0.1851 -0.2074 -0.7441
11609TIP3    H156318   1.723   3.838  10.816  0.8699 -0.9054 -0.2173
11609TIP3    H256319   1.818   3.955  10.800  1.5899 -1.3054  1.0210
11610TIP3   OH256320   0.786   1.396  12.891  0.4484  0.6186  0.1777
11610TIP3    H156321   0.782   1.403  12.986 -2.7179  2.9152  0.0425
11610TIP3    H256322   0.777   1.302  12.873  0.8509  0.1707  2.1074
11611TIP3   OH256323   0.228   3.229  34.816 -0.7370 -0.3272 -0.2991
11611TIP3    H156324   0.133   3.241  34.821 -0.4375  1.9515  1.1289
11611TIP3    H256325   0.257   3.236  34.907  0.8301 -1.0139 -0.7201
11612TIP3   OH256326   3.123   1.342  35.153  0.1640  0.1915 -0.3095
11612TIP3    H156327   3.142   1.433  35.177  0.4661  0.5477 -1.7498
11612TIP3    H256328   3.135   1.340  35.058  0.7687 -1.5152 -0.2312
11613TIP3   OH256329   3.664   2.861  27.107  0.0972 -0.4104  0.1298
11613TIP3    H156330   3.634   2.913  27.181  1.8926  0.8545  0.0112
11613TIP3    H256331   3.624   2.775  27.121  0.1884 -0.1338  2.4043
11614TIP3   OH256332   1.871   2.315   6.211  0.5606  0.1738 -0.3883
11614TIP3    H156333   1.900   2.225   6.193  1.4299  0.0321  1.5106
11614TIP3    H256334   1.780   2.305   6.238  0.6758 -0.1358 -0.1109
11615TIP3   OH256335   0.380   0.754  38.962 -0.1358 -0.2587  0.1955
11615TIP3    H156336   0.380   0.683  39.026 -2.5029  0.4053  1.0208
11615TIP3    H256337   0.394   0.711  38.878 -2.2707 -1.8500  0.5860
11616TIP3   OH256338   4.250   2.846  21.391 -0.1727 -0.4033  0.5340
11616TIP3    H156339   4.196   2.833  21.468  1.9734  1.2781  2.4560
11616TIP3    H256340   4.319   2.780  21.398 -0.6246 -1.0294 -0.6381
11617TIP3   OH256341   3.310   1.006  41.103  0.0156 -0.2969 -0.3863
11617TIP3    H156342   3.351   0.920  41.092 -0.3229 -0.6624  0.9985
11617TIP3    H256343   3.281   1.007  41.194  0.9969  1.7341 -0.0401
11618TIP3   OH256344   0.236   2.393   9.322 -0.0521  0.1222  0.3451
11618TIP3    H156345   0.215   2.481   9.354 -0.3514 -0.6529  2.4875
11618TIP3    H256346   0.168   2.374   9.258  0.9497  2.0256 -1.4106
11619TIP3   OH256347   4.219   3.015   6.485 -0.4031  0.2008 -0.3136
11619TIP3    H156348   4.148   3.007   6.548  2.1170 -0.1783  2.7553
11619TIP3    H256349   4.259   3.100   6.506  0.6122 -0.0189 -1.2931
11620TIP3   OH256350   4.383   3.344  30.029 -0.4551 -0.7194  0.0367
11620TIP3    H156351   4.325   3.406  30.073 -1.0541  0.0445 -1.7144
11620TIP3    H256352   4.469   3.361  30.067 -0.6731  0.9450 -0.1085
11621TIP3   OH256353   3.075   1.291  38.917 -0.6624 -0.0796  0.2012
11621TIP3    H156354   3.128   1.294  38.837 -0.4610  0.5944  0.3594
11621TIP3    H256355   3.136   1.265  38.985 -0.6045  0.3609  0.3203
11622TIP3   OH256356   1.331   1.912   7.279 -0.2328  0.7565  0.1748
11622TIP3    H156357   1.408   1.863   7.249  0.4250  1.1501  1.1629
11622TIP3    H256358   1.367   1.989   7.323 -1.1914  0.9365  0.6815
11623TIP3   OH256359   2.932   1.450   6.096 -0.2930  0.2701 -0.5470
11623TIP3    H156360   2.882   1.437   6.177  1.0215  0.4467  0.3147
11623TIP3    H256361   2.866   1.448   6.027 -1.1385 -3.1487  0.1912
11624TIP3   OH256362   2.001   4.345  39.851  0.0221 -0.4173 -0.0944
11624TIP3    H156363   1.965   4.434  39.857  0.4061 -0.3204  1.2268
11624TIP3    H256364   2.076   4.346  39.911 -0.7090 -1.9830  0.9118
11625TIP3   OH256365   2.868   2.486  11.512 -0.2757 -0.0724 -0.0550
11625TIP3    H156366   2.933   2.535  11.563 -0.0722 -1.6424  1.3023
11625TIP3    H256367   2.919   2.443  11.444 -0.4330  1.4201 -1.1497
11626TIP3   OH256368   2.100   2.619  10.200  0.3202  0.6915 -0.0741
11626TIP3    H156369   2.141   2.583  10.122  0.5032  1.9133 -0.5668
11626TIP3    H256370   2.169   2.615  10.267  0.2278 -0.1654 -0.0241
11627TIP3   OH256371   3.919   0.576   8.803  0.6651  0.0536  0.2016
11627TIP3    H156372   3.956   0.488   8.815  0.9734  0.0563 -0.6437
11627TIP3    H256373   3.909   0.584   8.708  0.3223  0.8054  0.3002
11628TIP3   OH256374   3.570   3.193  11.910  0.3608  0.0832  0.0516
11628TIP3    H156375   3.481   3.195  11.875  0.5240  1.8174 -0.3587
11628TIP3    H256376   3.583   3.281  11.947  2.8291  0.9207 -2.4110
11629TIP3   OH256377   2.323   3.885   7.440 -0.1746  0.4434  0.0114
11629TIP3    H156378   2.396   3.909   7.498  1.8032 -1.6432 -1.4662
11629TIP3    H256379   2.263   3.836   7.497  1.4404 -1.0702  0.5026
11630TIP3   OH256380   0.741   2.503  37.287  0.1218  0.1675  0.1275
11630TIP3    H156381   0.742   2.540  37.198  0.0413  1.1929  0.5323
11630TIP3    H256382   0.818   2.541  37.329 -1.4007  2.0935  1.3978
11631TIP3   OH256383   2.040   1.442  40.994  0.3016 -0.1522 -0.2657
11631TIP3    H156384   2.074   1.474  41.078  0.4540  2.1946 -1.1261
11631TIP3    H256385   1.952   1.411  41.014  0.5923 -0.2942  0.8782
11632TIP3   OH256386   3.474   1.108   6.177 -0.0216 -0.1235  0.1146
11632TIP3    H156387   3.379   1.112   6.170  0.0081  2.4826  0.4696
11632TIP3    H256388   3.492   1.122   6.270  0.7085 -3.1283  0.5475
11633TIP3   OH256389   3.917   2.562   7.204 -0.2840  0.3496 -0.0329
11633TIP3    H156390   3.904   2.505   7.280  0.0454 -0.2617 -0.4342
11633TIP3    H256391   3.835   2.611   7.197 -0.5904 -0.1050  0.2879
11634TIP3   OH256392   3.755   0.896   2.809  0.2346  0.1540  0.2792
11634TIP3    H156393   3.660   0.894   2.805  0.2086 -0.3715  0.9779
11634TIP3    H256394   3.777   0.989   2.819 -0.2423  0.2087  0.8643
11635TIP3   OH256395   0.088   1.708  30.106  0.7614 -0.3336  0.1721
11635TIP3    H156396   0.101   1.645  30.035 -0.1024 -1.6736  1.1532
11635TIP3    H256397   0.173   1.715  30.148  0.7553 -1.2419  0.3554
11636TIP3   OH256398   1.878   3.029   6.823 -0.5806 -0.8706 -0.3397
11636TIP3    H156399   1.880   3.026   6.918  1.0037  3.2751 -0.0067
11636TIP3    H256400   1.788   3.007   6.800 -1.8135  0.7839  2.3995
11637TIP3   OH256401   3.712   3.543  11.849  0.1700 -0.5259  0.2799
11637TIP3    H156402   3.748   3.627  11.877 -2.7134  1.7647 -2.2620
11637TIP3    H256403   3.774   3.510  11.785  1.8647 -0.9712  2.0591
11638TIP3   OH256404   0.096   1.154   7.003  0.7380  0.4934  0.0638
11638TIP3    H156405   0.057   1.075   7.041  0.7726  0.2235 -0.4413
11638TIP3    H256406   0.182   1.161   7.045  1.3516 -0.5832 -0.9328
11639TIP3   OH256407   0.601   1.209   6.748 -0.0445  0.0636 -1.0782
11639TIP3    H156408   0.690   1.227   6.718  0.7570 -0.7366  0.6571
11639TIP3    H256409   0.573   1.291   6.790 -0.1597  0.3281 -1.6580
11640TIP3   OH256410   0.233   2.352   2.353  0.0678  0.1241 -0.2523
11640TIP3    H156411   0.171   2.308   2.295 -0.3054  0.6174 -0.2353
11640TIP3    H256412   0.300   2.388   2.295 -0.2656  0.5530 -0.3713
11641TIP3   OH256413   0.310   2.485  26.850  0.6077 -0.7216  0.1927
11641TIP3    H156414   0.315   2.425  26.925 -2.0192  0.6090  1.5761
11641TIP3    H256415   0.297   2.571  26.890 -1.1738 -0.0017 -1.7538
11642TIP3   OH256416   2.419   0.353  34.100  0.4414 -0.2149  0.0552
11642TIP3    H156417   2.355   0.398  34.156 -0.2564 -0.0411 -0.8692
11642TIP3    H256418   2.496   0.410  34.102  1.5660 -1.6237  3.1825
11643TIP3   OH256419   1.127   2.210   6.183  0.3384 -0.5750 -0.0021
11643TIP3    H156420   1.036   2.236   6.193  0.4850  1.2267 -2.3607
11643TIP3    H256421   1.125   2.138   6.120  0.5791  0.2199 -0.9447
11644TIP3   OH256422   2.763   0.985   2.006 -0.1202 -0.5602 -0.2620
11644TIP3    H156423   2.849   0.947   2.021  0.2842  0.1177 -0.8193
11644TIP3    H256424   2.705   0.937   2.066  0.6781 -0.8578  0.2935
11645TIP3   OH256425   0.405   0.130   6.720 -0.0466 -0.1385 -0.3123
11645TIP3    H156426   0.318   0.147   6.758 -0.4205 -0.0146 -1.1939
11645TIP3    H256427   0.420   0.037   6.738 -0.3961 -0.1830 -0.2211
11646TIP3   OH256428   4.043   0.751  30.226 -0.0420  0.9998 -0.3608
11646TIP3    H156429   4.098   0.779  30.153 -0.2022 -0.4511 -1.0736
11646TIP3    H256430   4.050   0.822  30.290  3.1108  0.6138 -0.1572
11647TIP3   OH256431   3.896   2.260  34.388  0.1079  0.2467 -0.1855
11647TIP3    H156432   3.985   2.256  34.423 -0.4542 -0.4018  1.2537
11647TIP3    H256433   3.890   2.347  34.349  1.3664  0.2972 -0.3300
11648TIP3   OH256434   0.423   1.452  13.414  0.7300 -0.8051 -0.6015
11648TIP3    H156435   0.340   1.406  13.428  1.2100 -1.6513 -0.4963
11648TIP3    H256436   0.487   1.382  13.398  1.4403 -0.1646 -0.6080
11649TIP3   OH256437   2.169   1.036   4.191  0.8361  0.7166 -0.8437
11649TIP3    H156438   2.256   1.045   4.151  0.5043 -1.0356 -2.0765
11649TIP3    H256439   2.113   1.093   4.139  0.7170 -0.3455 -1.9151
11650TIP3   OH256440   0.245   4.250   4.342  0.1931 -0.3508 -0.6117
11650TIP3    H156441   0.193   4.187   4.291 -0.8475  0.4682 -0.6080
11650TIP3    H256442   0.180   4.295   4.396  1.1595 -0.4864  0.6851
11651TIP3   OH256443   2.709   3.338  10.620 -0.5376 -0.5023 -0.2165
11651TIP3    H156444   2.687   3.426  10.651 -2.0243 -0.8094 -0.3112
11651TIP3    H256445   2.734   3.351  10.529 -2.2974 -0.3347 -0.7124
11652TIP3   OH256446   0.069   3.518   3.600 -0.3679 -1.0440  0.5312
11652TIP3    H156447   0.094   3.550   3.513 -0.0078  0.4920  1.1747
11652TIP3    H256448   0.148   3.474   3.632 -0.3973 -1.3330  0.2155
11653TIP3   OH256449   3.600   2.024  11.199  0.0383  0.2260  0.0835
11653TIP3    H156450   3.690   2.012  11.171 -0.0084  1.1317 -0.4972
11653TIP3    H256451   3.606   2.045  11.293  0.5634  1.8481 -0.2876
11654TIP3   OH256452   0.669   1.097  11.078 -0.3316 -0.1532 -0.2820
11654TIP3    H156453   0.616   1.132  11.150 -0.4914  0.0020 -0.4770
11654TIP3    H256454   0.639   1.143  11.000  0.1288 -0.0275 -0.3871
11655TIP3   OH256455   0.346   3.149  35.924 -0.1291  0.4241 -0.2331
11655TIP3    H156456   0.363   3.064  35.883 -0.1738 -0.2000  0.9887
11655TIP3    H256457   0.432   3.190  35.931  0.0645 -0.0365  0.2214
11656TIP3   OH256458   3.428   3.393   4.484 -0.9220 -0.3489  0.0444
11656TIP3    H156459   3.350   3.378   4.431 -2.1262  1.7654  1.0665
11656TIP3    H256460   3.412   3.345   4.565 -0.3862 -1.2380 -0.3608
11657TIP3   OH256461   2.710   1.122  12.377  0.5890 -0.1403 -0.4690
11657TIP3    H156462   2.769   1.151  12.307  0.4694 -1.0192 -0.9428
11657TIP3    H256463   2.638   1.185  12.375  1.3597  0.7722 -0.0746
11658TIP3   OH256464   3.729   2.170   6.210 -0.5474  0.5755  0.0420
11658TIP3    H156465   3.686   2.091   6.176 -1.4143  0.9522  0.2369
11658TIP3    H256466   3.818   2.142   6.230 -1.3161 -0.8523  1.7923
11659TIP3   OH256467   0.620   1.106   1.505  0.6115 -0.0418 -0.1684
11659TIP3    H156468   0.534   1.133   1.472 -0.0026  0.1345  1.4496
11659TIP3    H256469   0.654   1.047   1.438 -1.0901 -0.6880 -0.5313
11660TIP3   OH256470   3.586   3.845  40.623  0.0901 -0.4362 -0.4648
11660TIP3    H156471   3.671   3.837  40.579  0.4824  0.8865  0.0016
11660TIP3    H256472   3.602   3.906  40.695 -1.5861  1.0799 -1.3017
11661TIP3   OH256473   3.728   3.627  33.198  0.1010 -0.3691 -0.3481
11661TIP3    H156474   3.712   3.532  33.195 -1.2880 -0.1370 -1.4459
11661TIP3    H256475   3.678   3.662  33.124  2.2367  1.0141 -1.2277
11662TIP3   OH256476   3.324   1.618   4.787  0.2080  0.0318 -0.2446
11662TIP3    H156477   3.268   1.690   4.758  0.8583  0.8659  0.5293
11662TIP3    H256478   3.326   1.558   4.712  0.2036  1.1408 -1.1605
11663TIP3   OH256479   2.624   1.052   9.347  0.3695  0.5668  0.8323
11663TIP3    H156480   2.621   0.980   9.410  0.7440 -0.9520 -0.8067
11663TIP3    H256481   2.717   1.066   9.331  0.2813  1.0713  0.7371
11664TIP3   OH256482   1.045   4.235   1.742  0.1392  0.1277  0.2345
11664TIP3    H156483   1.038   4.301   1.673 -0.1018 -1.2819 -1.1376
11664TIP3    H256484   1.098   4.277   1.810  0.7909  1.3938 -1.0108
11665TIP3   OH256485   3.228   2.541   5.710 -0.3986 -0.6489 -0.6089
11665TIP3    H156486   3.261   2.609   5.652 -1.0964 -0.4527 -0.7816
11665TIP3    H256487   3.157   2.499   5.662 -2.2564  0.7457  0.7876
11666TIP3   OH256488   0.759   3.274  31.767  0.1567 -0.1512 -0.0217
11666TIP3    H156489   0.777   3.242  31.855 -1.1005  2.3312  1.2662
11666TIP3    H256490   0.743   3.196  31.714  0.0552 -1.6749  2.1728
11667TIP3   OH256491   0.141   0.157  12.601  0.0146  0.0500  0.0092
11667TIP3    H156492   0.107   0.186  12.516 -2.4567 -1.2973  0.4460
11667TIP3    H256493   0.073   0.183  12.663 -0.2915 -2.7679  0.9586
11668TIP3   OH256494   1.125   0.371  29.750  0.2188 -0.1957  0.3285
11668TIP3    H156495   1.140   0.311  29.823 -0.0692  1.1621  1.5339
11668TIP3    H256496   1.205   0.424  29.746 -0.5686  1.0775  0.9831
11669TIP3   OH256497   0.562   3.559   8.985  0.1735 -0.1366 -0.3510
11669TIP3    H156498   0.652   3.530   8.972  0.7340  1.5342 -0.4372
11669TIP3    H256499   0.530   3.579   8.897  0.0365  0.1738 -0.2321
11670TIP3   OH256500   0.546   3.857   0.420  0.0206 -0.0331 -0.1444
11670TIP3    H156501   0.594   3.861   0.337  0.9197  0.1727  0.3716
11670TIP3    H256502   0.553   3.766   0.447 -0.4804 -0.1524 -0.4100
11671TIP3   OH256503   2.135   1.586  34.978 -0.0898  0.2858  0.4421
11671TIP3    H156504   2.067   1.519  34.967 -0.0221  0.3693 -0.6683
11671TIP3    H256505   2.195   1.549  35.042  0.0103 -0.7968 -0.2417
11672TIP3   OH256506   2.115   4.018  13.048  0.1286  0.3014 -0.2973
11672TIP3    H156507   2.113   3.930  13.087 -1.2755  0.4721  0.0753
11672TIP3    H256508   2.026   4.051  13.059  0.1192  1.0234 -2.1826
11673TIP3   OH256509   3.401   2.136  37.482  0.0886 -0.4904  0.1770
11673TIP3    H156510   3.384   2.126  37.575  1.2288  1.9876  0.7330
11673TIP3    H256511   3.317   2.165  37.445 -0.5745 -2.2209  0.2444
11674TIP3   OH256512   1.217   3.074  13.934 -0.3587  0.1518  0.2354
11674TIP3    H156513   1.237   2.984  13.909  0.4162  0.4791 -0.3606
11674TIP3    H256514   1.122   3.080  13.929 -0.5866 -1.1118  1.9385
11675TIP3   OH256515   2.171   3.095  38.362  0.0111  0.1229 -0.7539
11675TIP3    H156516   2.107   3.083  38.433 -0.9700 -2.5191 -1.9480
11675TIP3    H256517   2.243   3.036  38.385  0.3123  0.2909 -1.2602
11676TIP3   OH256518   2.887   0.709   5.654 -0.2251  0.1687  0.2012
11676TIP3    H156519   2.908   0.655   5.730  2.3234  2.6520  1.4179
11676TIP3    H256520   2.875   0.797   5.689 -1.3891  0.9927 -2.0306
11677TIP3   OH256521   1.029   3.787  37.161 -0.7987 -0.3219  0.6882
11677TIP3    H156522   1.052   3.793  37.254 -0.6827 -0.7159  0.6834
11677TIP3    H256523   0.973   3.710  37.154  0.3913 -1.1766  0.1951
11678TIP3   OH256524   2.707   1.470   5.743  0.2224 -1.1098 -0.4117
11678TIP3    H156525   2.617   1.439   5.756  0.7894 -2.8004 -0.2423
11678TIP3    H256526   2.724   1.455   5.650  0.0419  0.0714 -0.6489
11679TIP3   OH256527   0.983   2.564  18.123 -0.5242  0.5628  0.1026
11679TIP3    H156528   1.076   2.575  18.099 -0.1699  1.0407  1.6210
11679TIP3    H256529   0.937   2.620  18.061 -0.0576 -1.4112 -2.1886
11680TIP3   OH256530   0.581   3.902   0.843  0.0357 -0.1934 -0.2987
11680TIP3    H156531   0.510   3.965   0.855  0.1420  0.2926 -1.9425
11680TIP3    H256532   0.631   3.937   0.769  0.7829 -1.6136 -0.4994
11681TIP3   OH256533   1.877   4.030  31.720 -0.3626 -0.3131 -0.1644
11681TIP3    H156534   1.914   3.976  31.789 -0.4923  0.1482  0.2755
11681TIP3    H256535   1.876   3.974  31.643  0.8406 -0.4662 -0.0776
11682TIP3   OH256536   2.767   0.816  41.040 -0.0973 -0.0350 -0.0909
11682TIP3    H156537   2.771   0.748  40.973  1.0130 -0.2729  0.1928
11682TIP3    H256538   2.723   0.890  40.996  1.4156  0.1518 -1.4174
11683TIP3   OH256539   1.849   3.694   4.701 -0.3483  0.7387  0.1766
11683TIP3    H156540   1.843   3.639   4.623  1.3179  0.6775  0.0627
11683TIP3    H256541   1.758   3.714   4.723 -1.0418 -1.9992  0.1776
11684TIP3   OH256542   4.130   2.250   9.109  0.3266 -0.2057 -0.5919
11684TIP3    H156543   4.185   2.173   9.099  1.5077  0.6087 -0.6073
11684TIP3    H256544   4.164   2.294   9.187 -0.9379 -0.1779 -0.0271
11685TIP3   OH256545   3.227   0.763  41.534  0.4388  0.3078  0.1956
11685TIP3    H156546   3.171   0.694  41.571  1.0001 -0.7717 -0.8979
11685TIP3    H256547   3.271   0.800  41.610 -0.3744 -0.0735  0.8825
11686TIP3   OH256548   1.539   0.919   7.135  0.4308  0.5749  0.6050
11686TIP3    H156549   1.533   1.010   7.106  0.2712  1.2510  2.5768
11686TIP3    H256550   1.558   0.869   7.056 -1.1435  2.1049 -0.8263
11687TIP3   OH256551   3.700   3.590  41.634  0.3906 -0.1771 -0.5000
11687TIP3    H156552   3.619   3.622  41.675  1.0354 -0.3796  1.0288
11687TIP3    H256553   3.702   3.632  41.548 -0.6905  0.8606 -0.0506
11688TIP3   OH256554   1.332   2.555  14.455 -0.6283  0.0187  0.3456
11688TIP3    H156555   1.292   2.638  14.428  0.3832  0.5174  0.3400
11688TIP3    H256556   1.264   2.490  14.440 -1.2950  0.7863 -0.0553
11689TIP3   OH256557   1.716   3.917  32.383 -0.4139  0.0359  0.1886
11689TIP3    H156558   1.760   3.835  32.407  0.6609 -0.0187 -1.7562
11689TIP3    H256559   1.653   3.892  32.316  0.4208  0.8924 -0.9390
11690TIP3   OH256560   1.679   3.648  36.980 -0.0348 -0.0453  0.5841
11690TIP3    H156561   1.751   3.711  36.985  0.0552 -0.0683 -0.3046
11690TIP3    H256562   1.602   3.700  36.958  0.1005 -0.2721 -0.4695
11691TIP3   OH256563   1.480   4.345   3.137 -0.3230 -0.3536  0.6471
11691TIP3    H156564   1.480   4.341   3.232 -1.2304  1.5546  0.7764
11691TIP3    H256565   1.535   4.420   3.116 -2.4517  1.0953 -0.1360
11692TIP3   OH256566   2.506   2.548  40.315  0.1283 -0.2815  0.4116
11692TIP3    H156567   2.492   2.491  40.391 -1.3076 -1.3274 -0.5794
11692TIP3    H256568   2.418   2.566  40.282  0.7355 -0.2569 -1.2929
11693TIP3   OH256569   3.744   0.767  37.937 -0.0547 -0.1218  0.4385
11693TIP3    H156570   3.666   0.711  37.930 -1.3448  1.5888  0.5452
11693TIP3    H256571   3.799   0.740  37.863 -0.2827 -2.0056  0.9091
11694TIP3   OH256572   1.564   1.932  14.235 -0.3030 -0.4307 -0.4568
11694TIP3    H156573   1.501   1.993  14.273 -0.6222 -1.0002 -0.0584
11694TIP3    H256574   1.511   1.858  14.204  0.2347 -1.3133  0.6631
11695TIP3   OH256575   2.629   1.501  33.597  0.0420  0.0201 -0.5191
11695TIP3    H156576   2.693   1.510  33.668  0.7690  0.4002 -1.2041
11695TIP3    H256577   2.633   1.585  33.551  1.4256 -1.0595 -2.5202
11696TIP3   OH256578   0.593   4.182  31.692 -0.4912  0.0826 -0.3888
11696TIP3    H156579   0.608   4.244  31.622 -0.0231  0.7219  0.2604
11696TIP3    H256580   0.539   4.113  31.653  1.1900 -0.4699 -1.8469
11697TIP3   OH256581   1.336   2.055  14.003 -0.0787 -0.3986  0.3834
11697TIP3    H156582   1.306   2.002  14.077  1.5064 -0.6809  0.8680
11697TIP3    H256583   1.409   2.005  13.967  2.0693  1.7951  1.3956
11698TIP3   OH256584   1.080   2.376  11.994  0.6068 -0.1691 -0.0318
11698TIP3    H156585   1.040   2.330  12.068 -0.1352  0.3721 -0.0828
11698TIP3    H256586   1.082   2.468  12.021 -0.4960  0.1688 -1.0190
11699TIP3   OH256587   1.690   4.358   7.082  0.2794 -0.2115 -0.7987
11699TIP3    H156588   1.699   4.271   7.121  0.8303  0.2596  0.1847
11699TIP3    H256589   1.731   4.417   7.146 -0.9627  0.8886 -0.9778
11700TIP3   OH256590   1.063   1.188  35.564  0.1363  0.2963  0.2182
11700TIP3    H156591   1.138   1.204  35.621 -1.4458  1.7541  2.0471
11700TIP3    H256592   1.013   1.270  35.568 -1.1376 -0.3297 -1.6166
11701TIP3   OH256593   4.341   0.448  35.973 -0.3015  0.3363 -0.3991
11701TIP3    H156594   4.248   0.469  35.971 -0.7873 -1.3549  1.2113
11701TIP3    H256595   4.383   0.528  36.005 -1.5487  0.3165  1.4645
11702TIP3   OH256596   1.505   3.676  13.776  0.3367  0.2557  0.7286
11702TIP3    H156597   1.556   3.606  13.735 -0.0106 -0.1152  0.9312
11702TIP3    H256598   1.531   3.674  13.868  0.0318  0.1264  0.8145
11703TIP3   OH256599   0.774   2.687  34.397  0.3568  0.0380 -0.3331
11703TIP3    H156600   0.784   2.782  34.395 -0.4223  0.1625  0.7859
11703TIP3    H256601   0.802   2.658  34.311 -0.8583  1.4413 -1.2540
11704TIP3   OH256602   1.290   1.125   4.309  0.2683 -0.0913  0.3008
11704TIP3    H156603   1.239   1.045   4.299 -0.3869  0.3265  0.3054
11704TIP3    H256604   1.260   1.182   4.239  2.2417 -0.6133 -1.0814
11705TIP3   OH256605   1.239   1.296   7.110  0.2295  0.1082 -0.3558
11705TIP3    H156606   1.265   1.317   7.020  0.5510  0.8843 -0.0921
11705TIP3    H256607   1.309   1.332   7.164 -0.7781  1.1701  0.2980
11706TIP3   OH256608   0.367   3.732   7.330 -0.5470 -0.4974  0.8889
11706TIP3    H156609   0.317   3.799   7.283 -1.0824 -0.7939  1.0347
11706TIP3    H256610   0.388   3.773   7.414  1.1803  0.3774  0.1047
11707TIP3   OH256611   0.823   3.044   8.749 -0.5914  0.8051  0.2408
11707TIP3    H156612   0.823   3.136   8.724 -0.8936  0.6245 -0.4273
11707TIP3    H256613   0.745   3.007   8.707  1.5195 -0.6323 -2.7639
11708TIP3   OH256614   1.594   2.822   5.034 -0.1242 -0.1619  0.3523
11708TIP3    H156615   1.638   2.758   4.979 -1.6843  0.8016 -2.1551
11708TIP3    H256616   1.521   2.774   5.073  0.8300 -0.7762  1.4527
11709TIP3   OH256617   3.522   0.971  29.076  0.0426 -0.0063  0.5216
11709TIP3    H156618   3.614   0.996  29.076  0.1180 -0.2876  0.3611
11709TIP3    H256619   3.479   1.037  29.021  0.6104 -1.5819 -1.9500
11710TIP3   OH256620   0.296   4.003  14.442  0.4949 -0.2991 -0.2827
11710TIP3    H156621   0.318   4.081  14.391 -0.3381 -0.6786 -1.2542
11710TIP3    H256622   0.352   3.935  14.404 -0.7859 -0.7961 -1.3698
11711TIP3   OH256623   1.439   2.345  33.256  1.0592  0.0262  0.3440
11711TIP3    H156624   1.447   2.377  33.166  0.3630  2.1628  0.9623
11711TIP3    H256625   1.516   2.379  33.300  0.4508  0.6273  0.9672
11712TIP3   OH256626   3.855   4.355  38.286  0.3510 -0.3507  0.0121
11712TIP3    H156627   3.916   4.317  38.222  3.6714  0.7505  2.2505
11712TIP3    H256628   3.895   4.437  38.312 -2.3787  0.6689  1.4016
11713TIP3   OH256629   0.157   1.191   7.951  0.2022 -0.2853  0.1338
11713TIP3    H156630   0.105   1.179   8.030 -0.2901  2.3418  0.3118
11713TIP3    H256631   0.237   1.234   7.981  0.8693 -0.9835 -0.5929
11714TIP3   OH256632   2.912   1.528   8.028 -0.1683  0.2489  0.5089
11714TIP3    H156633   2.942   1.609   7.988  1.5369 -0.7854 -0.4435
11714TIP3    H256634   2.841   1.497   7.972 -1.2684  1.3799  1.2462
11715TIP3   OH256635   0.366   0.397  12.578  0.1278 -0.0746  0.2649
11715TIP3    H156636   0.351   0.354  12.494  1.6608  0.3496 -0.2605
11715TIP3    H256637   0.328   0.337  12.643  0.7212 -1.4103 -0.5788
11716TIP3   OH256638   4.022   4.199  24.723  0.3859 -0.4172  0.3974
11716TIP3    H156639   4.055   4.114  24.755  2.1918  0.1898  0.2782
11716TIP3    H256640   4.091   4.230  24.664  0.6508  1.9669  1.8210
11717TIP3   OH256641   0.116   2.235  27.848  0.4659  0.4058  0.4179
11717TIP3    H156642   0.181   2.186  27.796 -1.2470 -1.4467 -0.1179
11717TIP3    H256643   0.111   2.187  27.931 -1.0184 -0.2308  0.0024
11718TIP3   OH256644   4.207   1.913   2.265 -0.2220 -0.3112 -0.6236
11718TIP3    H156645   4.271   1.981   2.289 -1.0364 -0.3153  1.8155
11718TIP3    H256646   4.123   1.949   2.291 -1.3097 -0.4334 -3.5203
11719TIP3   OH256647   0.070   3.386   6.358 -0.1105  0.8982 -0.2194
11719TIP3    H156648   0.039   3.361   6.445  1.2402  0.5000  0.1677
11719TIP3    H256649  -0.002   3.361   6.299  0.0809 -1.5270  0.4500
11720TIP3   OH256650   3.163   2.574  41.219 -0.1545 -0.0381 -0.2975
11720TIP3    H156651   3.150   2.667  41.235  2.4598  0.3622 -0.0620
11720TIP3    H256652   3.177   2.537  41.307 -1.3760 -0.7162 -0.3715
11721TIP3   OH256653   3.188   0.505  39.417  0.2225 -0.2030 -0.6075
11721TIP3    H156654   3.175   0.599  39.421  1.5126 -0.0625  1.0736
11721TIP3    H256655   3.181   0.475  39.508 -0.5146 -1.7979 -1.1393
11722TIP3   OH256656   1.500   2.243  40.707 -0.6782  0.2334  0.3245
11722TIP3    H156657   1.583   2.218  40.748  0.0554  1.1852 -0.5553
11722TIP3    H256658   1.439   2.250  40.781 -0.6310 -2.7959  0.7629
11723TIP3   OH256659   3.866   3.329  28.921  0.2195 -0.5786  0.1575
11723TIP3    H156660   3.954   3.362  28.907 -0.1751  0.1669 -0.7100
11723TIP3    H256661   3.810   3.406  28.910 -0.6800 -1.3826 -1.3078
11724TIP3   OH256662   2.316   2.678   9.982  0.4651  0.4655 -0.3946
11724TIP3    H156663   2.358   2.716  10.060  1.8215 -1.5238 -0.0627
11724TIP3    H256664   2.286   2.592  10.012  2.4996 -1.0595 -2.4070
11725TIP3   OH256665   4.201   1.602  27.961  0.0499 -0.0152  0.4450
11725TIP3    H156666   4.231   1.527  27.910 -1.3041 -1.2327  1.3472
11725TIP3    H256667   4.183   1.566  28.048 -2.2032  0.9510  0.4655
11726TIP3   OH256668   3.685   3.192  12.888  0.1407 -0.7974  0.4724
11726TIP3    H156669   3.741   3.119  12.915 -0.8002 -1.3284  1.0689
11726TIP3    H256670   3.743   3.268  12.886  1.1369 -1.5577 -0.1666
11727TIP3   OH256671   1.789   3.026   7.075  0.5161  0.8521 -0.0636
11727TIP3    H156672   1.708   3.028   7.126 -0.7750 -0.5417 -1.9372
11727TIP3    H256673   1.836   2.949   7.108 -0.0431  0.2859 -0.5831
11728TIP3   OH256674   3.811   3.451  12.589 -0.4724  0.0688 -0.4914
11728TIP3    H156675   3.843   3.482  12.673  1.4868  2.8861 -2.1347
11728TIP3    H256676   3.853   3.365  12.578  2.4989  1.3766 -0.2584
11729TIP3   OH256677   3.740   2.710   9.793 -0.2606  0.3396 -0.2132
11729TIP3    H156678   3.673   2.734   9.729 -1.3931 -0.4173  0.6582
11729TIP3    H256679   3.692   2.666   9.863  1.2890 -1.2878 -0.1113
11730TIP3   OH256680   1.815   0.354  13.527 -0.4665 -0.3059  0.1847
11730TIP3    H156681   1.907   0.382  13.524 -0.6915  0.3403 -0.9725
11730TIP3    H256682   1.795   0.328  13.437 -1.2215 -1.1292  0.5767
11731TIP3   OH256683   1.354   3.061   8.165  0.2266  0.2005  0.6305
11731TIP3    H156684   1.361   2.973   8.200 -1.4113 -0.0870  0.3426
11731TIP3    H256685   1.286   3.103   8.218  1.1156  1.3658  0.8943
11732TIP3   OH256686   3.250   3.408   6.924 -0.2032  0.4090 -0.3056
11732TIP3    H156687   3.309   3.353   6.871  0.7670  0.1966  0.9440
11732TIP3    H256688   3.205   3.463   6.860  0.0531 -0.6479 -1.4513
11733TIP3   OH256689   3.875   3.131  33.049  0.3297 -0.0455  0.0863
11733TIP3    H156690   3.959   3.092  33.027  1.1191  1.1120  0.9293
11733TIP3    H256691   3.827   3.062  33.094  1.7601 -0.0514  1.6916
11734TIP3   OH256692   0.669   3.928   1.332  0.4296  0.6924  0.3914
11734TIP3    H156693   0.722   3.973   1.398  0.8140  2.1551 -0.8491
11734TIP3    H256694   0.715   3.946   1.250 -0.4764 -0.3997 -0.3680
11735TIP3   OH256695   2.990   3.934   3.073 -0.3959 -0.5436  0.3500
11735TIP3    H156696   3.011   3.982   2.993 -0.8144  0.7459  0.9764
11735TIP3    H256697   3.026   3.988   3.143 -1.4857 -0.8014  1.1321
11736TIP3   OH256698   1.863   0.960  28.811 -0.5116 -0.2687  0.1483
11736TIP3    H156699   1.768   0.975  28.814 -0.8731 -2.4306  1.1248
11736TIP3    H256700   1.876   0.899  28.739 -0.0826 -1.2073  0.9938
11737TIP3   OH256701   4.378   1.177  38.887 -0.1903  0.2230 -0.1893
11737TIP3    H156702   4.431   1.167  38.967 -0.7251  0.3813  0.1880
11737TIP3    H256703   4.334   1.093  38.877 -1.6966  0.8437  0.8295
11738TIP3   OH256704   2.146   3.026  41.183  0.3399 -0.4227 -0.0050
11738TIP3    H156705   2.067   2.976  41.165 -0.4691  0.3145  1.3664
11738TIP3    H256706   2.149   3.093  41.115 -0.1116 -0.5655 -0.1635
11739TIP3   OH256707   3.692   3.294  40.443  0.2055 -0.6674  0.2477
11739TIP3    H156708   3.697   3.248  40.359  0.3917 -1.8370  0.8794
11739TIP3    H256709   3.608   3.340  40.439  0.5123 -0.1674 -0.8396
11740TIP3   OH256710   0.793   2.271  31.670 -0.4183  0.1748  0.4157
11740TIP3    H156711   0.729   2.208  31.637 -0.6417  1.2654 -1.3846
11740TIP3    H256712   0.860   2.217  31.712 -2.1122 -1.0360  1.7002
11741TIP3   OH256713   2.759   4.236   1.526  0.6575 -0.2521 -0.0581
11741TIP3    H156714   2.784   4.252   1.435  1.1739 -0.2004  0.0858
11741TIP3    H256715   2.788   4.314   1.573 -0.6028  0.2012 -0.0199
11742TIP3   OH256716   0.430   3.791  29.460  0.1867  0.1248  0.2026
11742TIP3    H156717   0.437   3.871  29.408  2.1116 -1.7225 -2.6814
11742TIP3    H256718   0.518   3.778  29.495 -0.2948 -0.3507  1.2687
11743TIP3   OH256719   2.796   2.455  38.685  0.1318  0.0639 -0.3000
11743TIP3    H156720   2.823   2.378  38.736  0.5051  0.1801 -0.3215
11743TIP3    H256721   2.736   2.419  38.619 -0.7174 -0.0253  0.4943
11744TIP3   OH256722   2.916   0.925   7.667 -0.0400  0.1817 -0.0862
11744TIP3    H156723   2.871   0.950   7.586 -1.4503  0.3175  0.7075
11744TIP3    H256724   2.933   1.008   7.711  2.3481  0.2635 -1.0135
11745TIP3   OH256725   4.262   3.282  28.470 -0.0406 -0.4043  0.2325
11745TIP3    H156726   4.243   3.270  28.377  0.8764  0.2346 -0.0504
11745TIP3    H256727   4.278   3.193  28.503 -0.5378 -0.6474 -0.1749
11746TIP3   OH256728   3.059   2.314  27.750 -0.2592 -0.2625 -0.1137
11746TIP3    H156729   3.067   2.409  27.756 -0.1141 -0.2741 -0.1046
11746TIP3    H256730   3.012   2.289  27.829  1.0873 -0.3514  0.6844
11747TIP3   OH256731   1.847   3.998  36.672 -0.0422  0.4284 -0.0647
11747TIP3    H156732   1.796   4.056  36.729 -0.3485  2.4725 -2.2563
11747TIP3    H256733   1.938   4.023  36.688 -0.2291  2.6590 -1.9946
11748TIP3   OH256734   3.928   0.752  24.846 -0.4644  0.1848 -0.0962
11748TIP3    H156735   3.933   0.724  24.937 -1.2352 -0.0335 -0.1159
11748TIP3    H256736   4.014   0.731  24.810 -0.6238 -1.0419  0.2094
11749TIP3   OH256737   0.178   0.279  28.607 -0.0990 -0.2231  0.4882
11749TIP3    H156738   0.214   0.321  28.686  0.8206 -2.0853  1.1390
11749TIP3    H256739   0.252   0.277  28.546 -0.9094  1.5291 -0.5899
11750TIP3   OH256740   2.510   0.385  38.107 -0.4160 -0.0314  1.1562
11750TIP3    H156741   2.548   0.472  38.115 -0.5934  0.0559  1.0584
11750TIP3    H256742   2.537   0.339  38.187  0.1000 -0.0516  0.9725
11751TIP3   OH256743   2.890   4.300  11.265  0.4438 -0.6085  0.3876
11751TIP3    H156744   2.899   4.248  11.185  0.2737  0.6057 -0.4462
11751TIP3    H256745   2.796   4.298  11.285  0.5048 -1.0240  0.6409
11752TIP3   OH256746   3.954   3.782  11.499  0.0429  0.1017 -0.2760
11752TIP3    H156747   3.903   3.815  11.573 -0.7287 -0.2063 -0.6558
11752TIP3    H256748   4.033   3.836  11.497 -0.0356  0.2524  0.6320
11753TIP3   OH256749   1.143   0.149  38.783  0.0114  0.2040 -0.2922
11753TIP3    H156750   1.191   0.191  38.712  0.8356  0.9342  0.6543
11753TIP3    H256751   1.073   0.210  38.804 -0.0960  0.0960 -0.3366
11754TIP3   OH256752   3.705   2.665  38.252  0.0283  0.2913  0.0972
11754TIP3    H156753   3.726   2.645  38.161  0.6343  2.4817 -0.2996
11754TIP3    H256754   3.673   2.755  38.250 -2.2862 -0.4091  1.7518
11755TIP3   OH256755   0.883   0.800   9.342  0.1077  0.0206  0.1974
11755TIP3    H156756   0.827   0.725   9.322  2.3112 -1.4549 -0.8410
11755TIP3    H256757   0.870   0.860   9.270 -0.5841 -0.0358  0.2723
11756TIP3   OH256758   3.632   2.464   5.686 -0.3994  0.2931  0.4029
11756TIP3    H156759   3.615   2.557   5.696  0.2339  0.3313  1.2593
11756TIP3    H256760   3.637   2.430   5.775  1.9179 -0.0646  0.2046
11757TIP3   OH256761   3.913   2.178  28.137  0.2584  0.4911  0.2149
11757TIP3    H156762   3.829   2.134  28.152  0.2021  0.3379 -0.5067
11757TIP3    H256763   3.928   2.230  28.216 -1.4829  2.0916 -0.4489
11758TIP3   OH256764   4.348   1.251   4.358 -0.4138  0.3910  0.5280
11758TIP3    H156765   4.324   1.302   4.280 -1.7093 -0.2123  0.5037
11758TIP3    H256766   4.302   1.294   4.430 -0.8142 -0.2209  0.6428
11759TIP3   OH256767   0.904   2.115   3.763 -0.5318  0.4601  0.4173
11759TIP3    H156768   0.975   2.087   3.705  1.3244  3.2788  1.1455
11759TIP3    H256769   0.848   2.170   3.709 -0.6152  0.4711  0.5132
11760TIP3   OH256770   3.833   2.243  24.266 -0.1456 -0.3584 -0.0486
11760TIP3    H156771   3.804   2.245  24.357 -3.1424 -0.3522 -0.8855
11760TIP3    H256772   3.810   2.155  24.236 -0.2248  0.0057 -1.0852
11761TIP3   OH256773   4.188   0.415  29.294  0.0363 -0.2022 -0.1908
11761TIP3    H156774   4.181   0.320  29.298 -0.3279 -0.2932 -1.9150
11761TIP3    H256775   4.114   0.447  29.346 -1.0920 -0.9196 -1.2698
11762TIP3   OH256776   3.510   0.521  38.350 -0.5262 -0.6852  0.0545
11762TIP3    H156777   3.576   0.452  38.352 -1.5341 -1.7177 -0.7402
11762TIP3    H256778   3.552   0.593  38.301 -0.2526 -1.6408 -1.1770
11763TIP3   OH256779   1.538   1.126  18.769  0.6082  0.4888 -0.2960
11763TIP3    H156780   1.484   1.077  18.708  0.1775  2.4209 -1.5278
11763TIP3    H256781   1.620   1.140  18.723  0.4281  1.6217 -0.2906
11764TIP3   OH256782   2.260   2.310  41.432 -0.2202 -0.0799  0.6293
11764TIP3    H156783   2.166   2.289  41.441 -0.7752  1.1230 -1.6021
11764TIP3    H256784   2.262   2.405  41.418  1.3029 -0.1650  0.1315
11765TIP3   OH256785   0.902   2.840  11.827  0.5572  0.9326  0.3415
11765TIP3    H156786   0.815   2.852  11.865  0.8150 -0.7796  1.6099
11765TIP3    H256787   0.961   2.884  11.888  0.7818 -0.1003  0.9033
11766TIP3   OH256788   1.755   4.062  29.387 -0.1466 -0.0857  0.5511
11766TIP3    H156789   1.745   4.039  29.294 -1.3028 -1.1650  0.9065
11766TIP3    H256790   1.696   4.137  29.400  0.5638  0.5260  0.2591
11767TIP3   OH256791   1.247   1.021   6.840 -0.4597 -0.0876 -0.1308
11767TIP3    H156792   1.163   1.032   6.795 -1.0754 -2.4411  0.3520
11767TIP3    H256793   1.235   1.066   6.924 -1.7599 -1.5355  0.4978
11768TIP3   OH256794   3.480   0.825  29.691  0.1425 -0.0285 -0.0359
11768TIP3    H156795   3.524   0.793  29.770 -0.9976 -2.6356 -0.3503
11768TIP3    H256796   3.404   0.873  29.724  0.7671  0.6489  0.4456
11769TIP3   OH256797   2.914   2.167  29.684 -0.1545 -0.2333 -0.0878
11769TIP3    H156798   2.853   2.094  29.697 -0.7320  0.0385 -1.1537
11769TIP3    H256799   2.896   2.197  29.594  1.3627  0.0277 -0.3206
11770TIP3   OH256800   3.638   4.254   1.392 -0.2279 -0.2687 -0.0055
11770TIP3    H156801   3.712   4.204   1.427  0.6175  0.0730 -1.2314
11770TIP3    H256802   3.640   4.236   1.298 -1.9940 -0.6000 -0.0105
11771TIP3   OH256803   0.167   4.233   8.236 -0.6946 -0.0295  0.2852
11771TIP3    H156804   0.072   4.237   8.227 -0.6133 -0.2853 -0.8294
11771TIP3    H256805   0.185   4.142   8.259 -0.7051 -0.0524  0.2057
11772TIP3   OH256806   0.843   3.277   4.217 -0.3877  0.2764  0.5378
11772TIP3    H156807   0.853   3.253   4.309 -2.3676  0.5751  0.8824
11772TIP3    H256808   0.928   3.258   4.178  0.0329 -1.3257  2.0925
11773TIP3   OH256809   3.903   3.724   5.416 -0.0446  0.4506  0.3545
11773TIP3    H156810   3.917   3.812   5.452  0.9005  0.7235 -0.6203
11773TIP3    H256811   3.810   3.723   5.393  0.2220  1.7244 -0.9286
11774TIP3   OH256812   0.305   3.967   8.249  0.2915  0.2427  0.7269
11774TIP3    H156813   0.297   3.916   8.329  1.6096 -2.8422 -0.9254
11774TIP3    H256814   0.396   3.996   8.247  1.0547 -1.9701 -0.7588
11775TIP3   OH256815   2.720   2.630  32.307  0.4420  0.3608 -0.0792
11775TIP3    H156816   2.711   2.534  32.302  0.6157  0.3340  0.1477
11775TIP3    H256817   2.634   2.660  32.336  0.3709  0.2768 -0.2016
11776TIP3   OH256818   1.880   2.986   3.496 -0.9745 -0.0996  1.0960
11776TIP3    H156819   1.868   2.983   3.591  0.2203 -0.8502  1.2452
11776TIP3    H256820   1.955   3.045   3.483 -1.8043  0.8596  0.5326
11777TIP3   OH256821   3.968   3.248  11.764  0.1866 -0.2043 -0.1171
11777TIP3    H156822   4.044   3.201  11.732 -0.6843 -1.4448 -0.4329
11777TIP3    H256823   3.936   3.298  11.689  0.4056 -0.0629 -0.1156
11778TIP3   OH256824   2.420   1.670  33.957 -0.1180 -0.3324 -0.0395
11778TIP3    H156825   2.438   1.577  33.974 -0.2186 -0.1077  1.4330
11778TIP3    H256826   2.337   1.670  33.910  0.1782 -1.0137 -0.5844
11779TIP3   OH256827   3.913   3.726   9.576  0.4658 -0.4371  0.9173
11779TIP3    H156828   3.976   3.792   9.548 -1.1170  1.0426  0.7428
11779TIP3    H256829   3.873   3.694   9.495 -1.3758  1.0907  1.1497
11780TIP3   OH256830   2.440   2.772   6.094 -0.1116 -0.1989  0.1592
11780TIP3    H156831   2.503   2.831   6.135  0.0349 -0.4756  0.3304
11780TIP3    H256832   2.374   2.831   6.057  0.0054  0.0718  0.3735
11781TIP3   OH256833   1.855   0.186  14.757 -0.3063  0.4131 -0.6736
11781TIP3    H156834   1.782   0.126  14.739  1.4352 -1.9018 -0.5322
11781TIP3    H256835   1.896   0.150  14.836  0.7028  1.9557 -0.4621
11782TIP3   OH256836   3.210   2.059  39.761  0.2499 -0.1560 -0.1909
11782TIP3    H156837   3.137   1.997  39.758 -0.5024  0.7315 -1.2984
11782TIP3    H256838   3.170   2.142  39.787  1.1163  0.0573  0.5400
11783TIP3   OH256839   4.202   0.442   2.688 -0.3319  0.1202  0.4243
11783TIP3    H156840   4.211   0.411   2.597  0.3825  1.2849  0.0742
11783TIP3    H256841   4.108   0.440   2.704 -0.4249 -0.7045 -0.1154
11784TIP3   OH256842   2.089   1.472   9.435  0.3597 -0.0213  0.3940
11784TIP3    H156843   2.005   1.431   9.415 -0.2781  2.1017 -1.8058
11784TIP3    H256844   2.074   1.519   9.517 -0.8534  0.8693 -0.3031
11785TIP3   OH256845   1.116   1.211   5.397 -0.1239  0.6300  0.2191
11785TIP3    H156846   1.060   1.284   5.372 -1.9634 -0.9351 -0.4202
11785TIP3    H256847   1.071   1.170   5.471  1.6359  0.9610  1.5515
11786TIP3   OH256848   0.994   3.306  12.654  0.0942 -0.2615  0.0129
11786TIP3    H156849   0.962   3.261  12.732  0.9495 -0.8392  0.0407
11786TIP3    H256850   1.051   3.376  12.687 -1.3745  1.0040 -0.0211
11787TIP3   OH256851   4.069   0.141   1.023  0.5291 -0.0632 -0.3660
11787TIP3    H156852   4.046   0.076   1.090 -0.4768 -0.5393 -1.1374
11787TIP3    H256853   4.064   0.092   0.941  3.0209  0.1751 -0.7180
11788TIP3   OH256854   3.511   3.232   7.085  0.3509 -0.3242  0.3003
11788TIP3    H156855   3.603   3.206   7.096 -0.2523 -1.9029  1.9118
11788TIP3    H256856   3.483   3.189   7.004  0.8898 -0.2165  0.0513
11789TIP3   OH256857   3.316   3.282  33.025 -0.6663 -0.2408  0.0806
11789TIP3    H156858   3.274   3.207  33.065 -0.8523  0.6545  1.6551
11789TIP3    H256859   3.272   3.358  33.064 -0.0017  0.6854 -0.9073
11790TIP3   OH256860   0.824   4.082  32.754  0.4770  0.0936 -0.1036
11790TIP3    H156861   0.765   4.138  32.703  0.8552 -1.5630 -2.5739
11790TIP3    H256862   0.882   4.043  32.688  1.9825 -1.1250  1.8205
11791TIP3   OH256863   0.189   2.593  26.124 -0.0658  0.1970 -0.6739
11791TIP3    H156864   0.192   2.519  26.063  0.8834  0.0585 -0.4694
11791TIP3    H256865   0.202   2.553  26.210 -0.4850  0.4982 -0.4705
11792TIP3   OH256866   4.164   2.863   5.111 -0.0092  0.0183  0.3441
11792TIP3    H156867   4.128   2.864   5.022  0.1173 -4.2506  0.0357
11792TIP3    H256868   4.224   2.788   5.111  1.9985  1.4587  3.3628
11793TIP3   OH256869   0.543   2.844  40.611 -0.6748 -0.0448  0.5217
11793TIP3    H156870   0.514   2.933  40.595  1.3520  0.5531 -0.1765
11793TIP3    H256871   0.554   2.806  40.523 -0.4267 -0.5993  0.7859
11794TIP3   OH256872   1.540   1.268  40.420  0.1213 -0.4285  0.8327
11794TIP3    H156873   1.486   1.295  40.346  1.6449  2.5875  0.6468
11794TIP3    H256874   1.584   1.189  40.390 -0.9464 -0.5109 -0.6252
11795TIP3   OH256875   3.334   0.489   7.335 -0.0327 -0.0383 -0.4303
11795TIP3    H156876   3.415   0.449   7.303 -0.4646  1.0690 -3.2063
11795TIP3    H256877   3.361   0.576   7.364 -0.0755 -0.0516 -0.3498
11796TIP3   OH256878   4.344   3.527  24.001  0.0671  0.1078  0.0812
11796TIP3    H156879   4.299   3.523  23.916 -0.7884 -0.7910  0.5561
11796TIP3    H256880   4.430   3.489  23.984 -0.9823 -2.4762  0.1197
11797TIP3   OH256881   0.264   4.324   0.027 -0.3021  0.2017  0.0974
11797TIP3    H156882   0.337   4.282   0.073 -1.4442  0.1586  1.9614
11797TIP3    H256883   0.285   4.417   0.028  0.1045  0.1146 -0.0977
11798TIP3   OH256884   1.582   1.284  28.666  0.1254  0.3876  0.3629
11798TIP3    H156885   1.593   1.360  28.722  0.2015 -0.0862  0.9968
11798TIP3    H256886   1.671   1.262  28.638  0.0499  0.8816 -0.3105
11799TIP3   OH256887   3.351   3.956   2.389  0.2362 -0.3619 -0.1337
11799TIP3    H156888   3.317   3.885   2.442  1.2824 -0.3132  0.6340
11799TIP3    H256889   3.422   3.916   2.338 -1.6036 -0.7382 -2.5675
11800TIP3   OH256890   3.010   0.089  10.920  0.9068  0.9527  0.2581
11800TIP3    H156891   3.030   0.007  10.965  1.7612  0.5301 -0.8346
11800TIP3    H256892   3.044   0.157  10.978 -1.1722  0.6714  1.9047
11801TIP3   OH256893   0.542   2.412  29.409  0.0678  0.5437  0.6621
11801TIP3    H156894   0.625   2.455  29.424  0.6348 -0.1189 -0.4560
11801TIP3    H256895   0.563   2.318  29.408 -0.5634  0.3984 -0.3049
11802TIP3   OH256896   2.854   3.983  37.271  0.5270  0.1802  0.2385
11802TIP3    H156897   2.878   3.899  37.310 -2.0095 -0.0993  1.3610
11802TIP3    H256898   2.874   3.972  37.178 -0.1387 -1.8383  0.2832
11803TIP3   OH256899   0.028   3.528   0.326 -0.5005 -1.0167 -0.1590
11803TIP3    H156900  -0.058   3.503   0.292 -0.7204 -0.5246  0.0285
11803TIP3    H256901   0.058   3.450   0.373  0.4007 -2.1958 -2.5440
11804TIP3   OH256902   2.741   2.018  27.789  0.4034 -0.1403 -0.1655
11804TIP3    H156903   2.744   2.083  27.718  1.5048 -0.1106 -0.1036
11804TIP3    H256904   2.825   2.026  27.833 -0.7441  0.7900  2.0449
11805TIP3   OH256905   2.023   0.869  10.847 -0.0598 -0.0317 -0.5175
11805TIP3    H156906   2.118   0.861  10.856 -0.0781 -2.6108 -1.8191
11805TIP3    H256907   2.008   0.962  10.831  2.2329  0.4135 -0.3834
11806TIP3   OH256908   3.565   1.841  39.205 -0.1203  0.4825 -0.2247
11806TIP3    H156909   3.537   1.928  39.235  1.2296  0.7398  0.4072
11806TIP3    H256910   3.510   1.822  39.129 -1.4915  1.2071  0.5500
11807TIP3   OH256911   3.299   1.213   2.262  0.9163 -0.4561 -0.1847
11807TIP3    H156912   3.350   1.138   2.232 -0.2229 -1.2731 -0.1635
11807TIP3    H256913   3.208   1.184   2.254  0.4493  0.9611 -0.2604
11808TIP3   OH256914   2.637   2.448  33.787 -0.9223 -0.8059 -0.4513
11808TIP3    H156915   2.598   2.389  33.852 -0.8576  2.6491  3.0731
11808TIP3    H256916   2.729   2.456  33.813 -0.8554  0.5224 -1.0120
11809TIP3   OH256917   2.672   1.508  35.927 -0.0514  0.2696  0.3163
11809TIP3    H156918   2.724   1.556  35.862 -0.0830  1.1716  0.9433
11809TIP3    H256919   2.593   1.481  35.880  1.0515 -1.3246 -0.7259
11810TIP3   OH256920   1.481   3.880  16.540  0.2089  0.3310 -0.6716
11810TIP3    H156921   1.415   3.833  16.591  0.6761  0.7225  0.3255
11810TIP3    H256922   1.533   3.812  16.498 -0.8832  0.0153 -1.5695
11811TIP3   OH256923   1.513   2.006  13.755  0.7047  0.0219  0.6426
11811TIP3    H156924   1.521   2.101  13.746  1.0986  0.0870  1.5387
11811TIP3    H256925   1.453   1.980  13.685  1.7282  0.7246 -0.5438
11812TIP3   OH256926   1.429   2.733  37.919 -0.2936  0.0354 -0.1253
11812TIP3    H156927   1.414   2.823  37.888 -0.0840  0.2479  0.3792
11812TIP3    H256928   1.358   2.682  37.879 -0.2904  0.3827 -0.5911
11813TIP3   OH256929   1.924   2.806  11.811  0.2842  0.4813 -0.4119
11813TIP3    H156930   1.831   2.825  11.801 -0.2589 -0.8505  1.5062
11813TIP3    H256931   1.956   2.875  11.870  0.3106  0.4138 -0.3484
11814TIP3   OH256932   4.372   3.417  26.584  0.1313 -0.2461  0.1225
11814TIP3    H156933   4.461   3.413  26.618 -0.6596  0.8278  2.5853
11814TIP3    H256934   4.324   3.352  26.636 -0.7693  0.0677 -0.2942
11815TIP3   OH256935   3.752   4.351  34.623  0.5345 -0.1309  0.0693
11815TIP3    H156936   3.718   4.433  34.588  0.6518  0.1153  0.5262
11815TIP3    H256937   3.844   4.349  34.596  0.6992  0.1923  0.5928
11816TIP3   OH256938   1.737   1.445  12.596  0.2847 -0.0985  0.0119
11816TIP3    H156939   1.770   1.501  12.526 -0.7634  0.1135 -0.3336
11816TIP3    H256940   1.719   1.361  12.553 -1.6664  0.4463 -0.3032
11817TIP3   OH256941   3.035   1.339  33.944  0.6817 -0.5378  0.2861
11817TIP3    H156942   2.974   1.346  33.870  0.7052  1.9017  0.4098
11817TIP3    H256943   3.036   1.427  33.982  1.1690 -1.5524  2.8185
11818TIP3   OH256944   3.779   2.963  29.206  0.1383 -0.4642 -0.0741
11818TIP3    H156945   3.774   2.949  29.301 -0.2180 -1.5355 -0.2330
11818TIP3    H256946   3.854   2.911  29.178  0.9697  0.7836 -0.2407
11819TIP3   OH256947   0.204   0.657  22.373 -0.1405  0.1454 -0.0739
11819TIP3    H156948   0.267   0.717  22.412  2.7045 -3.5473  1.6775
11819TIP3    H256949   0.258   0.594  22.324 -2.8760 -0.9897 -1.9029
11820TIP3   OH256950   2.264   2.733   0.309  0.1909  0.5035  0.3158
11820TIP3    H156951   2.282   2.822   0.280 -1.1104 -0.1999 -3.1588
11820TIP3    H256952   2.205   2.744   0.383  1.5804  2.4963  1.2178
11821TIP3   OH256953   2.873   1.531   7.735  0.5516 -0.0697  0.4113
11821TIP3    H156954   2.864   1.555   7.642 -0.5103 -0.3175  0.4380
11821TIP3    H256955   2.962   1.559   7.758  0.8943 -0.1408 -0.7204
11822TIP3   OH256956   3.670   0.490  33.609 -0.1450 -0.4879 -0.1926
11822TIP3    H156957   3.736   0.513  33.543 -0.0942 -2.4919 -0.9205
11822TIP3    H256958   3.587   0.509  33.566 -0.0964 -1.1759 -0.6080
11823TIP3   OH256959   3.296   0.354  11.262  0.1010 -0.0736 -0.7772
11823TIP3    H156960   3.304   0.327  11.171  2.1032  0.3825 -0.7947
11823TIP3    H256961   3.307   0.274  11.313  0.1692 -0.1576 -0.9250
11824TIP3   OH256962   3.699   1.757  21.212  0.1683 -0.0751 -0.2659
11824TIP3    H156963   3.612   1.728  21.239 -0.1661  1.0100 -0.1497
11824TIP3    H256964   3.745   1.775  21.294  0.5675 -0.8080 -0.3210
11825TIP3   OH256965   1.569   1.184   3.076  0.1610 -0.0220  0.0508
11825TIP3    H156966   1.610   1.258   3.032 -3.4134  2.1585 -0.0367
11825TIP3    H256967   1.535   1.221   3.158 -0.6956 -1.8481  0.5620
11826TIP3   OH256968   2.096   2.036   8.897  0.3022  0.0446 -0.5759
11826TIP3    H156969   2.073   2.100   8.964 -1.4453 -1.1603  0.0620
11826TIP3    H256970   2.177   1.996   8.929  1.0704  1.4483 -0.6744
11827TIP3   OH256971   4.036   0.487  36.205 -0.0495  0.2461 -0.1549
11827TIP3    H156972   3.942   0.470  36.207 -0.0064 -0.4671 -2.1378
11827TIP3    H256973   4.076   0.401  36.192  0.6326  0.8483 -2.7488
11828TIP3   OH256974   4.051   1.593   5.343 -0.1116 -0.2331  0.0143
11828TIP3    H156975   4.034   1.515   5.396  0.8658  0.1454  0.9218
11828TIP3    H256976   4.137   1.623   5.371 -0.7829  1.6233  0.2571
11829TIP3   OH256977   2.695   4.014  40.646  0.6371 -0.6166 -0.0894
11829TIP3    H156978   2.736   4.094  40.612  0.1920  0.5632  1.9764
11829TIP3    H256979   2.647   3.979  40.571  1.6663  0.4836 -1.3283
11830TIP3   OH256980   1.871   2.416  15.071 -0.0139  0.1127 -0.5324
11830TIP3    H156981   1.833   2.353  15.133  0.4565  0.1259 -0.2235
11830TIP3    H256982   1.865   2.372  14.986 -0.1043 -0.1669 -0.3846
11831TIP3   OH256983   2.257   1.362  29.154 -0.0015 -0.2876 -0.1251
11831TIP3    H156984   2.238   1.371  29.060 -0.2072  1.2879  0.0426
11831TIP3    H256985   2.192   1.418  29.197  1.8078  1.2649  0.7688
11832TIP3   OH256986   2.973   2.257   7.127 -0.6032 -0.6610 -0.0805
11832TIP3    H156987   2.884   2.281   7.154 -0.4435 -0.7889  0.5951
11832TIP3    H256988   2.963   2.171   7.086 -0.8054 -0.6286 -0.1025
11833TIP3   OH256989   0.951   0.741  38.737  0.6484  0.1053  0.0203
11833TIP3    H156990   0.964   0.746  38.643  3.1782 -0.5805  0.2518
11833TIP3    H256991   0.971   0.829  38.770  0.1747  0.2365 -0.0421
11834TIP3   OH256992   3.220   2.386   2.857  0.3840 -0.3700  0.3094
11834TIP3    H156993   3.254   2.334   2.784  0.2420 -0.9376  0.6425
11834TIP3    H256994   3.126   2.392   2.840  0.6896  1.8692 -1.0379
11835TIP3   OH256995   0.008   4.093  36.690  0.4334 -1.0560  0.5608
11835TIP3    H156996   0.093   4.136  36.698  0.7167 -1.5758  0.3751
11835TIP3    H256997   0.017   4.036  36.613 -0.7777  0.5066 -0.8216
11836TIP3   OH256998   2.606   2.410  28.221 -0.4023 -0.1437 -0.3768
11836TIP3    H156999   2.593   2.371  28.308 -1.1716  1.4165  0.2535
11836TIP3    H257000   2.622   2.335  28.163 -0.3309 -1.2538  1.0198
11837TIP3   OH257001   2.306   1.164  39.612 -0.2576  0.0771  0.6468
11837TIP3    H157002   2.374   1.202  39.557  0.5789  2.5950  3.1866
11837TIP3    H257003   2.352   1.131  39.688 -1.7857  1.9932  2.5265
11838TIP3   OH257004   3.964   3.679  39.185  0.6737  0.8177 -0.3848
11838TIP3    H157005   3.997   3.632  39.261  0.8562  0.8248 -0.4587
11838TIP3    H257006   4.027   3.659  39.115  0.1758  0.3204 -0.6976
11839TIP3   OH257007   3.647   2.870  30.017  0.0575  0.1744 -0.4212
11839TIP3    H157008   3.581   2.801  30.022 -0.3833  0.5438 -0.9358
11839TIP3    H257009   3.724   2.833  30.058 -0.4875 -0.2534  0.2336
11840TIP3   OH257010   3.211   0.903  38.185  0.2138  0.2688 -0.6599
11840TIP3    H157011   3.159   0.978  38.217 -0.5730 -0.7955  0.6579
11840TIP3    H257012   3.299   0.919  38.220 -0.3497 -0.2528  1.1163
11841TIP3   OH257013   3.650   3.298  36.329  0.2675 -0.0542  0.4739
11841TIP3    H157014   3.599   3.253  36.396 -0.9649 -1.0054 -1.0456
11841TIP3    H257015   3.689   3.228  36.276  0.3150  0.6481 -0.4623
11842TIP3   OH257016   1.353   3.398  11.259 -0.4878  0.6938 -0.2254
11842TIP3    H157017   1.349   3.303  11.255  0.4548  0.5817  0.7195
11842TIP3    H257018   1.342   3.418  11.352  0.0326  1.4506 -0.3162
11843TIP3   OH257019   2.361   3.800  38.976  0.1669 -0.2085  0.8529
11843TIP3    H157020   2.305   3.857  39.030  1.0766  0.5708  1.0003
11843TIP3    H257021   2.420   3.759  39.039  1.8576  1.4163  0.4101
11844TIP3   OH257022   3.151   3.391  38.203  0.5899  0.1623  0.3436
11844TIP3    H157023   3.128   3.376  38.294  0.9793  0.0114  0.4154
11844TIP3    H257024   3.243   3.416  38.204  0.9524 -1.1024 -0.1226
11845TIP3   OH257025   1.025   1.428  27.062 -0.4438  0.5430 -0.4799
11845TIP3    H157026   1.067   1.493  27.118 -0.3629 -0.3270  0.4963
11845TIP3    H257027   1.094   1.364  27.043 -0.3201  1.0952 -2.0432
11846TIP3   OH257028   3.795   3.289  32.055 -0.0608 -0.2135  0.0035
11846TIP3    H157029   3.815   3.379  32.030  1.1187 -0.3767  0.3149
11846TIP3    H257030   3.835   3.278  32.141 -1.0166 -0.7540  0.4017
11847TIP3   OH257031   3.126   3.593  36.931  0.2656 -0.0237  0.3318
11847TIP3    H157032   3.117   3.688  36.928 -1.1598 -0.0661  1.9809
11847TIP3    H257033   3.080   3.567  37.010  1.1444 -2.0490  0.2320
11848TIP3   OH257034   0.078   1.603  24.280  0.0700 -0.3771 -0.9653
11848TIP3    H157035   0.118   1.516  24.273  1.9442  0.3175  0.1697
11848TIP3    H257036   0.149   1.663  24.257 -0.3124  0.9374  1.0688
11849TIP3   OH257037   4.074   0.133   2.952 -0.4176 -0.6850  0.0795
11849TIP3    H157038   4.027   0.094   2.878 -0.9775  0.0044  0.0589
11849TIP3    H257039   4.165   0.140   2.923 -0.2939 -1.9595  0.0877
11850TIP3   OH257040   3.212   3.905  37.596 -0.5082 -0.0188 -0.4082
11850TIP3    H157041   3.150   3.871  37.661  0.3233  1.4939  1.2741
11850TIP3    H257042   3.159   3.959  37.538 -0.8279  1.0817  0.8780
11851TIP3   OH257043   0.502   2.789   3.846 -0.6565  0.1108  0.3470
11851TIP3    H157044   0.493   2.770   3.753 -1.6950 -0.6811  0.5975
11851TIP3    H257045   0.571   2.730   3.876 -1.7008 -1.0711  0.4766
11852TIP3   OH257046   3.218   3.580  27.612  0.1981 -0.5092 -0.1494
11852TIP3    H157047   3.199   3.509  27.673 -1.6523 -0.1640 -0.2703
11852TIP3    H257048   3.288   3.545  27.556  1.9141 -0.8379  2.0718
11853TIP3   OH257049   2.508   1.816  40.630  0.2949 -0.2319 -0.0275
11853TIP3    H157050   2.560   1.736  40.630  0.2175 -0.2931  0.7512
11853TIP3    H257051   2.420   1.788  40.657  0.0233 -0.0232 -0.6566
11854TIP3   OH257052   2.986   2.700  32.632 -0.4156  0.2936  0.2660
11854TIP3    H157053   3.029   2.651  32.702 -0.4513 -1.7285 -1.0438
11854TIP3    H257054   2.895   2.709  32.661 -0.2948  0.0095  0.7396
11855TIP3   OH257055   1.067   4.227  35.514  0.1648 -0.4395  0.2885
11855TIP3    H157056   1.075   4.322  35.499  1.7164 -0.7137 -0.8327
11855TIP3    H257057   0.987   4.218  35.565  0.0792  1.5012  0.5778
11856TIP3   OH257058   2.911   1.936  10.545  0.1573 -0.1434 -0.0042
11856TIP3    H157059   2.880   1.869  10.484 -0.0742 -0.2587  0.2383
11856TIP3    H257060   2.833   1.964  10.592  0.3387 -0.0702  0.2556
11857TIP3   OH257061   0.531   0.483   1.886  0.0538 -0.5172 -0.0530
11857TIP3    H157062   0.573   0.555   1.839  0.2193 -0.5118  0.0969
11857TIP3    H257063   0.438   0.505   1.887  0.3593  1.1012  2.3202
11858TIP3   OH257064   0.549   0.537  34.479  0.1205  0.2039  0.1474
11858TIP3    H157065   0.518   0.606  34.538 -0.2806  0.9519 -0.9046
11858TIP3    H257066   0.470   0.508  34.434  0.4832 -0.0867 -0.3010
11859TIP3   OH257067   4.115   2.333  24.653 -0.4250 -0.2554  0.5809
11859TIP3    H157068   4.144   2.242  24.659 -0.4134 -0.2095  1.3642
11859TIP3    H257069   4.019   2.328  24.659 -0.4738 -0.2596 -0.0730
11860TIP3   OH257070   0.522   3.936   4.184  0.1780 -0.1066  0.0596
11860TIP3    H157071   0.550   3.844   4.182  1.4976  0.2727 -0.2524
11860TIP3    H257072   0.452   3.941   4.119 -0.4925 -1.0606  0.6835
11861TIP3   OH257073   0.299   2.327  12.865  0.6701 -0.2259  0.4692
11861TIP3    H157074   0.286   2.240  12.829  1.9605 -0.6651  1.0020
11861TIP3    H257075   0.272   2.320  12.957 -2.2236  0.7828 -0.2270
11862TIP3   OH257076   3.245   2.171  27.507 -0.2723  0.5660  0.0779
11862TIP3    H157077   3.162   2.136  27.539  0.6691 -1.7745  0.1680
11862TIP3    H257078   3.253   2.138  27.418  0.3289  1.2246 -0.1206
11863TIP3   OH257079   0.499   1.741   4.853 -0.0917 -0.2796 -0.1347
11863TIP3    H157080   0.587   1.737   4.891  0.8732 -2.2332 -2.3037
11863TIP3    H257081   0.441   1.755   4.928  2.0379  1.4295  1.3282
11864TIP3   OH257082   1.419   2.803  11.545  0.7816  0.0681 -0.5457
11864TIP3    H157083   1.382   2.729  11.499  1.3269  0.0490 -0.9726
11864TIP3    H257084   1.344   2.859  11.566  0.4175 -0.4035 -0.5794
11865TIP3   OH257085   3.276   1.712  32.598 -0.3792  0.0703 -0.5787
11865TIP3    H157086   3.285   1.758  32.514  0.2415  0.9500 -0.0397
11865TIP3    H257087   3.242   1.625  32.574  2.0002 -0.5502 -1.9848
11866TIP3   OH257088   0.371   3.676   5.187 -0.0563  0.1566 -0.1745
11866TIP3    H157089   0.351   3.642   5.100  0.9370 -1.4618  0.1937
11866TIP3    H257090   0.424   3.608   5.228  1.6769  1.9694  0.7724
11867TIP3   OH257091   2.005   1.882  41.249  0.0612 -0.0105  0.0409
11867TIP3    H157092   2.074   1.893  41.315 -0.9899  0.0716  1.1683
11867TIP3    H257093   1.949   1.959  41.260 -1.0036 -0.7799  0.1472
11868TIP3   OH257094   0.161   3.693  11.312  0.3460  0.0157 -0.5052
11868TIP3    H157095   0.226   3.727  11.250  0.2765 -0.7144 -0.9916
11868TIP3    H257096   0.115   3.624  11.263 -0.9655  0.6898 -0.2531
11869TIP3   OH257097   1.784   2.689   6.077  0.3775  0.3126 -0.0388
11869TIP3    H157098   1.869   2.732   6.075  1.1306 -1.1831 -1.4864
11869TIP3    H257099   1.783   2.641   6.159 -0.2846  2.5814  1.3803
11870TIP3   OH257100   2.693   0.942  33.197  0.6344  0.0054  0.2565
11870TIP3    H157101   2.623   0.881  33.221 -2.6338  2.1369 -2.7524
11870TIP3    H257102   2.704   0.931  33.103  2.3068  1.7493  0.1761
11871TIP3   OH257103   3.781   3.091   1.933  0.0296  0.1190 -0.0730
11871TIP3    H157104   3.786   3.118   1.841 -0.8796 -1.7703 -0.7228
11871TIP3    H257105   3.770   3.173   1.981 -0.6659  1.0699 -1.7670
11872TIP3   OH257106   2.150   1.657  31.208 -0.4235 -0.4367  0.3774
11872TIP3    H157107   2.055   1.672  31.208 -0.0206  3.0347  1.1602
11872TIP3    H257108   2.170   1.626  31.296 -0.9866 -3.2805 -0.4150
11873TIP3   OH257109   1.029   2.190   0.845 -0.0019  1.2400 -0.4146
11873TIP3    H157110   1.065   2.123   0.903  0.7629  2.2237  0.2947
11873TIP3    H257111   1.105   2.244   0.820  0.1262 -0.3816 -4.1609
11874TIP3   OH257112   0.773   3.407   3.955 -0.1105 -0.6556  0.0680
11874TIP3    H157113   0.793   3.361   4.036  0.7999 -1.5247 -0.6158
11874TIP3    H257114   0.849   3.392   3.899 -1.4278 -1.5996 -1.5915
11875TIP3   OH257115   3.749   0.617   4.403 -0.0522 -0.2739  0.3008
11875TIP3    H157116   3.697   0.648   4.477  0.6897  0.2495  0.6217
11875TIP3    H257117   3.685   0.583   4.341 -0.9648  2.0395 -0.1452
11876TIP3   OH257118   3.465   2.137  33.331  0.0578 -0.3707  0.7766
11876TIP3    H157119   3.500   2.097  33.411  0.4012  0.0716  0.8511
11876TIP3    H257120   3.440   2.225  33.358  0.5650 -0.0810  0.2959
11877TIP3   OH257121   4.363   1.473  11.502 -0.2511 -0.2590  0.3886
11877TIP3    H157122   4.452   1.500  11.524  0.0640 -1.8755  1.2650
11877TIP3    H257123   4.357   1.382  11.532 -1.4777 -0.9511 -1.7034
11878TIP3   OH257124   1.193   4.053  31.544  0.5389  0.1740  0.0566
11878TIP3    H157125   1.227   4.115  31.608  0.4032 -0.8822  1.1945
11878TIP3    H257126   1.140   3.992  31.596 -1.7393  0.7757 -1.3948
11879TIP3   OH257127   2.518   1.246   8.429  0.5267  0.2141  0.3032
11879TIP3    H157128   2.609   1.247   8.459  0.5169  0.8855  0.3182
11879TIP3    H257129   2.466   1.251   8.509  0.4701 -0.4127  0.3089
11880TIP3   OH257130   0.578   1.630   5.430  0.4079 -0.0643  0.1749
11880TIP3    H157131   0.535   1.562   5.378  1.8382 -0.0608 -1.0853
11880TIP3    H257132   0.514   1.700   5.436  0.9129  0.9744 -3.7498
11881TIP3   OH257133   3.217   0.451  11.576  0.8182 -0.1678  0.0113
11881TIP3    H157134   3.261   0.415  11.499 -3.3932 -1.6302 -2.0182
11881TIP3    H257135   3.148   0.388  11.597 -1.2249  2.4542  2.0131
11882TIP3   OH257136   2.578   0.658   5.853 -0.4570  0.4614  0.0971
11882TIP3    H157137   2.616   0.743   5.877  0.7236 -0.2181  0.6954
11882TIP3    H257138   2.484   0.673   5.857 -0.2736  1.6039  0.7265
11883TIP3   OH257139   3.830   2.511  29.818 -0.2684 -0.1120 -0.8941
11883TIP3    H157140   3.867   2.443  29.875 -0.2249  0.0818 -0.6859
11883TIP3    H257141   3.776   2.464  29.755 -0.1205 -0.3507 -0.8408
11884TIP3   OH257142   1.063   3.478  18.610 -0.3177 -0.0630  0.4114
11884TIP3    H157143   1.059   3.425  18.690 -1.8084  0.1511  0.4994
11884TIP3    H257144   1.127   3.546  18.629  1.3347 -1.5420  0.4462
11885TIP3   OH257145   0.381   3.249  33.192 -0.0176 -0.4156 -0.7424
11885TIP3    H157146   0.379   3.157  33.217  1.3882 -0.5457 -0.9992
11885TIP3    H257147   0.452   3.286  33.244 -0.2385  0.4065 -1.0065
11886TIP3   OH257148   2.226   4.262  35.111  0.3536  0.7995  0.0058
11886TIP3    H157149   2.217   4.351  35.076  0.1131 -0.0342 -2.1899
11886TIP3    H257150   2.140   4.243  35.148  0.4604  1.5359  0.6560
11887TIP3   OH257151   0.392   1.483   3.299 -0.4320 -0.2373 -1.2399
11887TIP3    H157152   0.342   1.424   3.355 -1.9164  1.9302 -0.1264
11887TIP3    H257153   0.380   1.448   3.210 -3.0095 -0.4919 -0.8831
11888TIP3   OH257154   2.741   1.943  37.019 -0.0828  0.4052  0.0710
11888TIP3    H157155   2.715   1.955  36.928  2.2235 -0.3808 -0.7574
11888TIP3    H257156   2.822   1.892  37.014  0.6245  1.1603  2.5188
11889TIP3   OH257157   0.775   2.632   0.863 -0.1301 -0.1226 -0.5512
11889TIP3    H157158   0.801   2.681   0.785  0.7822  1.2876  0.5941
11889TIP3    H257159   0.853   2.586   0.891 -0.2002  0.1004  0.0347
11890TIP3   OH257160   0.731   1.028  29.703 -0.7161  0.2767 -0.5240
11890TIP3    H157161   0.816   0.994  29.733  0.1350  1.3294 -1.6742
11890TIP3    H257162   0.672   1.012  29.777  0.4550 -0.5253  0.2776
11891TIP3   OH257163   3.444   3.368  26.941  0.0418 -0.3280  0.9450
11891TIP3    H157164   3.473   3.459  26.942 -0.3654 -0.1931  0.7440
11891TIP3    H257165   3.372   3.367  26.878  0.7697 -1.0159  0.1129
11892TIP3   OH257166   1.794   3.826  28.831 -0.3673  0.0919  0.0584
11892TIP3    H157167   1.760   3.896  28.885 -0.6157 -0.6168  0.8413
11892TIP3    H257168   1.862   3.784  28.885 -2.3759 -2.2577  0.9398
11893TIP3   OH257169   3.598   2.622  27.242 -0.1581  0.0100 -0.1011
11893TIP3    H157170   3.676   2.590  27.287  0.5317 -0.3245 -1.4810
11893TIP3    H257171   3.538   2.646  27.313  0.4714 -1.4503  0.9899
11894TIP3   OH257172   3.964   3.466   9.625 -0.3752  0.3395 -0.0569
11894TIP3    H157173   4.050   3.431   9.647 -0.2947  0.4497 -0.1970
11894TIP3    H257174   3.978   3.560   9.613 -0.3129  0.2101 -1.1122
11895TIP3   OH257175   4.045   0.842  33.087  0.6430 -0.1330  0.9071
11895TIP3    H157176   3.987   0.795  33.027  0.5015 -0.8800  1.6160
11895TIP3    H257177   4.126   0.855  33.038  1.1876 -2.3441  1.1523
11896TIP3   OH257178   2.308   0.138  13.784  0.5821  0.2995  0.0430
11896TIP3    H157179   2.257   0.091  13.717  0.0925  3.4476 -1.9886
11896TIP3    H257180   2.243   0.169  13.847  0.3387  1.5928 -0.8124
11897TIP3   OH257181   2.419   1.544  29.444  0.3011  0.3613  0.2201
11897TIP3    H157182   2.422   1.635  29.414 -1.3588 -0.1290 -1.5446
11897TIP3    H257183   2.468   1.495  29.378 -1.3135 -0.4044 -0.4420
11898TIP3   OH257184   1.784   2.440  34.720 -0.0834 -0.2597  0.2326
11898TIP3    H157185   1.765   2.478  34.634  1.4663 -1.1551 -0.5610
11898TIP3    H257186   1.814   2.514  34.773  0.0525  0.1294 -0.3709
11899TIP3   OH257187   1.809   1.052   8.070  0.6870 -0.3519  0.3828
11899TIP3    H157188   1.758   1.133   8.061  0.5233 -0.0123  3.3544
11899TIP3    H257189   1.744   0.985   8.092  1.0616 -0.8726 -0.0696
11900TIP3   OH257190   1.859   0.124  40.628  1.0096  0.4996  0.2415
11900TIP3    H157191   1.885   0.201  40.678  0.1137 -0.1160  1.7222
11900TIP3    H257192   1.888   0.050  40.682 -0.0868 -0.1864 -0.0832
11901TIP3   OH257193   2.650   1.911  26.862 -0.0167 -0.0575  0.0080
11901TIP3    H157194   2.733   1.907  26.815  0.1871  0.2412  0.3417
11901TIP3    H257195   2.584   1.918  26.793  0.1905 -0.8721 -0.2852
11902TIP3   OH257196   1.207   0.494  40.743  0.3082 -0.0679  0.1603
11902TIP3    H157197   1.150   0.487  40.820 -2.6383  0.7002 -1.8242
11902TIP3    H257198   1.246   0.406  40.735 -0.3179 -0.5312  1.7506
11903TIP3   OH257199   1.754   0.701  39.324 -0.4446 -0.0004 -0.4825
11903TIP3    H157200   1.847   0.703  39.304  0.0338 -0.7566  1.3669
11903TIP3    H257201   1.713   0.758  39.260  1.2454  0.0732 -1.5409
11904TIP3   OH257202   0.922   1.725  16.411 -0.1701  0.3765 -0.1184
11904TIP3    H157203   0.833   1.758  16.408 -0.0405  0.7320 -0.0960
11904TIP3    H257204   0.960   1.765  16.490  0.2640  0.8844 -0.5785
11905TIP3   OH257205   0.034   3.775  36.810  0.2177 -0.1940 -0.3956
11905TIP3    H157206   0.095   3.805  36.877 -0.4739  2.0150 -0.6709
11905TIP3    H257207   0.089   3.728  36.747  1.1448 -0.7602  0.7835
11906TIP3   OH257208   0.188   3.228   6.788 -0.1171  0.6543 -0.1194
11906TIP3    H157209   0.137   3.259   6.864 -2.2999 -0.3491 -1.0867
11906TIP3    H257210   0.237   3.305   6.759  1.3390  0.9122  2.6728
11907TIP3   OH257211   1.647   0.008  15.793  0.3675 -0.4779 -0.1186
11907TIP3    H157212   1.691   0.012  15.878  0.7725 -2.3888 -0.1859
11907TIP3    H257213   1.554   0.005  15.815  0.4340 -0.1069  0.2239
11908TIP3   OH257214   3.855   2.163   3.068 -0.3124 -0.4371  0.3205
11908TIP3    H157215   3.799   2.148   2.991 -2.9090  0.4934  1.8858
11908TIP3    H257216   3.942   2.136   3.040 -0.9351  0.6960 -3.2344
11909TIP3   OH257217   3.716   3.687  30.143 -0.3404 -0.9140  0.1816
11909TIP3    H157218   3.712   3.752  30.073  2.7064 -1.5149 -0.7013
11909TIP3    H257219   3.696   3.737  30.223 -0.0497  0.6705 -0.6904
11910TIP3   OH257220   1.409   0.383  13.226 -0.0208  0.0645 -0.6887
11910TIP3    H157221   1.471   0.411  13.160  1.6299  1.5758  1.3484
11910TIP3    H257222   1.402   0.288  13.215  1.4321  0.0760 -1.9709
11911TIP3   OH257223   3.441   0.850   0.027 -0.0342  0.2097  0.8094
11911TIP3    H157224   3.456   0.945   0.032  0.3911  0.1210  1.3115
11911TIP3    H257225   3.520   0.812   0.064  0.0314 -0.3584  0.0997
11912TIP3   OH257226   3.462   1.814  24.812 -0.6175 -0.5998  0.7467
11912TIP3    H157227   3.455   1.854  24.726 -1.3643 -0.3062  0.9411
11912TIP3    H257228   3.457   1.887  24.873  0.3453 -0.7626  1.0321
11913TIP3   OH257229   0.097   2.967  23.290 -0.3572  0.7029  0.5768
11913TIP3    H157230   0.063   3.004  23.371  1.5748  0.5321  1.5276
11913TIP3    H257231   0.165   3.029  23.262 -0.8522  0.6486 -0.8081
11914TIP3   OH257232   1.819   2.095  28.766  0.5525  0.3405 -0.2039
11914TIP3    H157233   1.753   2.026  28.767 -0.9572  1.6549 -1.8016
11914TIP3    H257234   1.772   2.173  28.798  2.0744  0.7763  1.1016
11915TIP3   OH257235   3.840   4.351  33.988  0.3678  0.9947 -0.0026
11915TIP3    H157236   3.904   4.368  34.058  2.3479  1.0192 -1.7222
11915TIP3    H257237   3.820   4.258  33.998 -1.3440  1.4956  2.0819
11916TIP3   OH257238   2.548   3.705  12.174  0.6282 -0.1308 -0.0940
11916TIP3    H157239   2.555   3.788  12.220  2.9885  2.0434 -3.9093
11916TIP3    H257240   2.584   3.641  12.236  1.1460  2.0572  2.0369
11917TIP3   OH257241   2.876   2.402   6.019  0.1841 -0.1706 -0.4356
11917TIP3    H157242   2.819   2.477   6.035 -1.3978 -0.9714 -1.9898
11917TIP3    H257243   2.963   2.440   6.003 -0.1579  1.1627  0.7047
11918TIP3   OH257244   3.920   3.266   4.873  0.5730  0.8295 -0.3005
11918TIP3    H157245   3.930   3.327   4.800 -0.5787  0.1466 -1.0578
11918TIP3    H257246   3.867   3.313   4.938 -1.1207  0.3514 -1.2821
11919TIP3   OH257247   3.811   1.519  30.004  0.2628 -0.2524 -0.3481
11919TIP3    H157248   3.860   1.465  29.942  0.5750  0.7927 -1.0387
11919TIP3    H257249   3.719   1.500  29.984  0.3637 -0.0709 -0.9976
11920TIP3   OH257250   2.436   3.488  35.769  0.3109 -0.2810 -0.3598
11920TIP3    H157251   2.526   3.512  35.791  0.5756 -0.4651 -1.2072
11920TIP3    H257252   2.439   3.468  35.675 -0.5414 -0.6237 -0.3173
11921TIP3   OH257253   3.802   0.752   0.837 -0.3418  0.1992  0.1304
11921TIP3    H157254   3.827   0.826   0.781 -1.0722 -0.4465 -1.1074
11921TIP3    H257255   3.873   0.689   0.825 -1.7304 -1.0533 -2.2771
11922TIP3   OH257256   1.643   4.018  39.782 -0.9639  0.8278  0.1186
11922TIP3    H157257   1.728   4.060  39.767 -1.2402  1.0087 -1.0430
11922TIP3    H257258   1.622   4.038  39.874 -0.0871  1.3875  0.2091
11923TIP3   OH257259   2.561   1.795  28.822  0.1264  0.0647 -0.0115
11923TIP3    H157260   2.536   1.778  28.913 -1.2789 -1.7786 -0.6726
11923TIP3    H257261   2.641   1.744  28.809  1.6978  2.1777  0.7684
11924TIP3   OH257262   0.422   1.325   5.975 -0.2975 -0.3560 -0.0610
11924TIP3    H157263   0.375   1.244   5.995  0.4622 -0.8030 -0.0512
11924TIP3    H257264   0.505   1.296   5.938 -0.1293  0.4283 -0.3116
11925TIP3   OH257265   4.372   2.468  28.084  0.7289  0.0477  0.6986
11925TIP3    H157266   4.443   2.476  28.147  2.8869 -3.7806 -0.9236
11925TIP3    H257267   4.336   2.381  28.099 -0.8406  0.2871 -1.2594
11926TIP3   OH257268   1.930   0.732   7.613 -0.2378  0.0111 -0.3099
11926TIP3    H157269   1.924   0.824   7.636  1.4293  0.5222 -1.6671
11926TIP3    H257270   1.879   0.725   7.532  0.1603 -0.0916 -0.5580
11927TIP3   OH257271   0.909   1.971  10.898  0.5241  0.4816 -0.6246
11927TIP3    H157272   0.975   1.969  10.967  0.5826  1.6277 -0.6257
11927TIP3    H257273   0.864   1.887  10.905  1.4686  0.0128 -0.1196
11928TIP3   OH257274   2.132   1.504  10.811 -0.0031  0.0916 -0.0100
11928TIP3    H157275   2.051   1.488  10.859 -0.5797 -1.4734 -1.4085
11928TIP3    H257276   2.200   1.501  10.877 -0.9691  0.3559  1.0332
11929TIP3   OH257277   2.143   3.464  28.219  0.0202  0.0927  0.2333
11929TIP3    H157278   2.086   3.470  28.142  0.2004 -1.4370 -0.0626
11929TIP3    H257279   2.101   3.520  28.285 -0.5027  0.8851 -0.7460
11930TIP3   OH257280   0.349   0.143  36.032  0.6914 -0.2909 -0.5818
11930TIP3    H157281   0.285   0.190  35.979  1.6476 -0.8512 -2.3227
11930TIP3    H257282   0.298   0.076  36.078  0.1455 -1.8978 -3.2864
11931TIP3   OH257283   2.133   3.433   8.946 -0.1834  0.3888 -0.3048
11931TIP3    H157284   2.137   3.521   8.906 -0.0889  0.3640 -0.3514
11931TIP3    H257285   2.217   3.393   8.924 -0.5403 -0.0128 -0.9696
11932TIP3   OH257286   1.151   0.050   3.224 -0.1958  0.1404  0.6342
11932TIP3    H157287   1.141   0.067   3.317 -0.4686  0.6831  0.5062
11932TIP3    H257288   1.073   0.088   3.183  0.5314  1.0662  0.0454
11933TIP3   OH257289   0.390   0.852  35.450  0.4477 -0.0268  0.4345
11933TIP3    H157290   0.334   0.864  35.527  0.4866 -1.1824  0.6531
11933TIP3    H257291   0.479   0.860  35.483  0.4487  0.8292  0.2578
11934TIP3   OH257292   3.828   3.557  29.584  0.2342  0.0551  0.4212
11934TIP3    H157293   3.764   3.557  29.513  1.5702 -2.4559 -0.9163
11934TIP3    H257294   3.784   3.512  29.656 -0.1455 -0.0241  0.1412
11935TIP3   OH257295   0.071   1.548  12.520  0.0365  0.2781  0.4384
11935TIP3    H157296   0.142   1.531  12.582  0.2276 -0.9550 -0.0850
11935TIP3    H257297  -0.006   1.506  12.559  0.0848 -0.2185  0.0202
11936TIP3   OH257298   4.096   0.939   4.883  0.2579 -0.0002  0.2551
11936TIP3    H157299   4.091   0.845   4.900 -0.7610 -0.1454 -0.6889
11936TIP3    H257300   4.186   0.955   4.857  0.4193 -0.7302  0.3537
11937TIP3   OH257301   3.914   0.978  37.269  0.0161  0.7161  0.2170
11937TIP3    H157302   3.944   0.890  37.295 -1.0225  0.3321  0.1857
11937TIP3    H257303   3.818   0.970  37.267 -0.0305  1.4473 -1.2488
11938TIP3   OH257304   1.769   3.562  40.905 -0.4870 -0.5846 -0.0366
11938TIP3    H157305   1.682   3.584  40.871 -0.3814 -0.5491 -0.2910
11938TIP3    H257306   1.823   3.553  40.826 -0.2822 -0.6986  0.1158
11939TIP3   OH257307   0.492   1.010  33.236 -0.2170  0.3753 -0.2765
11939TIP3    H157308   0.496   0.992  33.330 -0.5769 -0.3681 -0.3974
11939TIP3    H257309   0.412   1.061  33.225  0.7237  1.9951  0.0481
11940TIP3   OH257310   0.478   1.318  27.641 -0.1423  0.0447 -0.5930
11940TIP3    H157311   0.476   1.387  27.707  1.1353 -0.4702  0.0111
11940TIP3    H257312   0.555   1.267  27.662 -0.4350 -0.9023 -1.7237
11941TIP3   OH257313   2.203   2.268  27.095  0.2398 -0.1119 -0.2646
11941TIP3    H157314   2.202   2.272  27.191 -1.0270 -0.9216 -0.2318
11941TIP3    H257315   2.239   2.182  27.075 -2.4238 -1.2498 -0.4343
11942TIP3   OH257316   3.799   2.440  12.684  0.0583 -0.1912  0.1485
11942TIP3    H157317   3.753   2.415  12.764  0.7747 -0.1840  0.5710
11942TIP3    H257318   3.889   2.410  12.697 -0.0572 -1.1762 -1.1185
11943TIP3   OH257319   3.933   2.977  26.037 -0.1671 -0.3706  0.1734
11943TIP3    H157320   4.015   2.946  25.998  0.1118 -0.5002  0.8592
11943TIP3    H257321   3.961   3.037  26.106 -0.6645 -0.1613  0.1975
11944TIP3   OH257322   4.092   2.338  24.343  0.1668 -0.0485 -0.1711
11944TIP3    H157323   4.145   2.351  24.265 -1.3242  1.4740 -1.0116
11944TIP3    H257324   4.016   2.288  24.312  0.1399 -0.4701  0.5615
11945TIP3   OH257325   1.318   1.904  14.652  0.0007 -0.7538 -0.2585
11945TIP3    H157326   1.344   1.996  14.643 -0.1515 -0.7970 -1.3592
11945TIP3    H257327   1.274   1.899  14.737  0.5983  0.0414  0.1141
11946TIP3   OH257328   0.728   1.486  29.371  0.2039 -0.0578  0.1900
11946TIP3    H157329   0.667   1.414  29.390 -0.8033  0.3647 -1.2954
11946TIP3    H257330   0.726   1.540  29.450 -0.9852 -0.3197  0.3590
11947TIP3   OH257331   4.118   0.041  32.557 -0.2042 -0.0660 -0.0448
11947TIP3    H157332   4.091  -0.046  32.529 -0.6316  0.2208 -0.5328
11947TIP3    H257333   4.210   0.030  32.582 -0.0886 -0.5283 -0.6606
11948TIP3   OH257334   0.971   4.205  34.862 -0.1383  0.0838 -0.5215
11948TIP3    H157335   0.944   4.187  34.772  0.1808 -0.3085 -0.5411
11948TIP3    H257336   0.935   4.132  34.913  0.8360 -0.4302 -0.5439
11949TIP3   OH257337   0.023   3.719  34.606  0.2020  0.0581  1.1094
11949TIP3    H157338   0.023   3.751  34.696  0.8222 -2.2771  2.0143
11949TIP3    H257339  -0.047   3.653  34.603 -0.7443  1.0544 -0.5367
11950TIP3   OH257340   3.475   0.936   2.285 -0.1831 -0.8502 -0.1435
11950TIP3    H157341   3.489   0.913   2.377  0.6097 -4.9112 -1.0933
11950TIP3    H257342   3.532   0.877   2.237  0.1579  1.7851 -3.3043
11951TIP3   OH257343   3.289   3.942  28.391  0.2699 -0.3944 -0.2265
11951TIP3    H157344   3.375   3.906  28.371  0.7251  0.9080 -0.6913
11951TIP3    H257345   3.286   4.025  28.345 -1.3870 -0.5721 -0.5262
11952TIP3   OH257346   0.607   1.569   3.433  0.7849 -0.1485  0.2139
11952TIP3    H157347   0.579   1.551   3.523  0.4377 -0.7449 -0.0054
11952TIP3    H257348   0.535   1.535   3.379  0.4342  1.2765 -0.2543
11953TIP3   OH257349   1.050   0.022  34.561 -0.4990 -0.4603 -0.4057
11953TIP3    H157350   0.985  -0.048  34.558 -0.3764 -0.5805 -0.2822
11953TIP3    H257351   1.022   0.077  34.634 -1.1845  0.2043 -1.1493
11954TIP3   OH257352   0.077   4.266  26.190 -0.0910 -0.4137  0.5178
11954TIP3    H157353   0.069   4.304  26.278 -0.9719  0.5275  0.0459
11954TIP3    H257354  -0.010   4.277  26.151  1.0084  1.7818 -1.5164
11955TIP3   OH257355   2.265   2.298  29.340 -0.0592 -0.5980 -0.5582
11955TIP3    H157356   2.259   2.393  29.337  1.0231 -0.5403 -1.6029
11955TIP3    H257357   2.327   2.275  29.271  0.7467 -1.9656  0.5496
11956TIP3   OH257358   3.835   3.032  34.409  0.5001 -0.2343 -0.0954
11956TIP3    H157359   3.894   2.957  34.414 -1.2910 -1.7719 -1.1136
11956TIP3    H257360   3.753   2.996  34.377 -1.1628  1.7637  1.6741
11957TIP3   OH257361   4.138   4.160  29.295  0.1001  0.2252 -0.5326
11957TIP3    H157362   4.180   4.225  29.351 -0.4501  2.1330 -2.2101
11957TIP3    H257363   4.095   4.211  29.227 -1.6384 -1.8441 -1.1045
11958TIP3   OH257364   1.882   2.354   1.253  0.1644 -0.5908 -0.3771
11958TIP3    H157365   1.844   2.441   1.256 -0.6383 -0.9545  0.9741
11958TIP3    H257366   1.912   2.338   1.343  2.8889 -0.6209 -1.2109
11959TIP3   OH257367   3.551   3.878  35.540  0.2253  0.4282 -0.2650
11959TIP3    H157368   3.541   3.929  35.460  0.2045  1.3391  0.3007
11959TIP3    H257369   3.504   3.796  35.523 -1.6996  1.5040 -0.4030
11960TIP3   OH257370   1.564   2.870   2.529  0.0093 -0.3291  0.2367
11960TIP3    H157371   1.602   2.790   2.566 -1.4667 -0.8493  0.6885
11960TIP3    H257372   1.593   2.940   2.587 -0.4655 -0.8422  1.1081
11961TIP3   OH257373   3.437   0.633   0.790 -0.2238 -0.0667  0.7624
11961TIP3    H157374   3.498   0.648   0.862  0.6698  3.2912 -0.5101
11961TIP3    H257375   3.379   0.709   0.791 -2.5068 -1.7053  0.0564
11962TIP3   OH257376   3.913   3.250  39.767  0.0779 -0.4520  0.1114
11962TIP3    H157377   3.924   3.267  39.673  1.4274 -1.5539  0.0319
11962TIP3    H257378   3.973   3.311  39.810  0.4883 -0.8695  0.1538
11963TIP3   OH257379   1.404   3.652   3.517 -0.5054  0.3696 -0.3968
11963TIP3    H157380   1.420   3.746   3.504 -0.8789  0.4544 -0.2525
11963TIP3    H257381   1.409   3.640   3.612 -2.7085  0.6740 -0.1904
11964TIP3   OH257382   3.926   3.023  40.119  0.1188  0.5418  0.0496
11964TIP3    H157383   3.849   3.071  40.088  1.0642  3.3295  1.6858
11964TIP3    H257384   3.889   2.946  40.164 -1.6853  1.3850  0.1013
11965TIP3   OH257385   0.014   1.773  29.412 -0.8899 -0.5964 -0.5457
11965TIP3    H157386   0.045   1.839  29.349 -2.6879  0.2525 -0.6072
11965TIP3    H257387   0.068   1.788  29.489  0.0344 -0.3466 -1.2201
11966TIP3   OH257388   0.016   4.119  23.890  0.3609 -0.5941 -0.6516
11966TIP3    H157389  -0.065   4.161  23.921 -0.1995 -0.5533 -2.0884
11966TIP3    H257390   0.066   4.101  23.969 -0.7576  0.0124  0.2148
11967TIP3   OH257391   2.509   3.911  10.992  0.4252  0.4038  0.5237
11967TIP3    H157392   2.482   3.835  11.044  0.3629  1.4036  2.0013
11967TIP3    H257393   2.467   3.986  11.035 -0.5883  1.1812 -1.6627
11968TIP3   OH257394   0.365   2.849   5.279  0.9310  0.6609 -0.2029
11968TIP3    H157395   0.324   2.788   5.218  0.7915  0.9347 -0.3823
11968TIP3    H257396   0.304   2.921   5.286  0.7967  0.4837  0.5159
11969TIP3   OH257397   4.275   0.575   5.657  0.2513  0.1545  0.1260
11969TIP3    H157398   4.208   0.586   5.724  1.0886  0.9631  0.8729
11969TIP3    H257399   4.355   0.553   5.706  1.0581  1.5160 -0.5024
11970TIP3   OH257400   0.085   1.514   4.922 -0.4478  0.5864 -0.5733
11970TIP3    H157401   0.116   1.498   4.833 -1.6039  0.9482 -1.0600
11970TIP3    H257402   0.158   1.490   4.978  0.3916  0.6179 -1.6382
11971TIP3   OH257403   4.048   3.765  29.178  0.2533  0.3312 -0.3445
11971TIP3    H157404   3.960   3.729  29.167  0.8129 -0.9238 -0.8466
11971TIP3    H257405   4.105   3.705  29.130  1.2771  1.6845 -0.8581
11972TIP3   OH257406   0.599   0.670   0.924  0.2212 -0.4566  0.0648
11972TIP3    H157407   0.690   0.666   0.954  0.8868  2.4377 -1.1698
11972TIP3    H257408   0.550   0.696   1.002  0.5806 -1.1826  0.5433
11973TIP3   OH257409   0.326   0.657  12.001  0.3538 -0.0778 -0.8282
11973TIP3    H157410   0.388   0.628  11.934  0.5046 -1.4839 -0.0998
11973TIP3    H257411   0.338   0.597  12.074 -0.0317  1.2280  0.3689
11974TIP3   OH257412   2.240   2.702  32.231 -0.6028 -0.6496 -0.1211
11974TIP3    H157413   2.311   2.640  32.248  0.3907  0.1318 -1.2457
11974TIP3    H257414   2.266   2.782  32.276 -0.9624 -0.4765 -0.2141
11975TIP3   OH257415   2.039   2.836   8.589  0.4473  0.7613  0.3348
11975TIP3    H157416   2.066   2.874   8.673 -1.3046  3.6983 -0.3118
11975TIP3    H257417   2.025   2.911   8.532 -2.6131 -0.8819 -1.3026
11976TIP3   OH257418   3.881   3.607  22.914 -0.5755  0.4003 -0.3278
11976TIP3    H157419   3.931   3.644  22.841 -1.3912 -0.3872 -1.3198
11976TIP3    H257420   3.801   3.574  22.874  0.2552 -2.7987  0.3721
11977TIP3   OH257421   1.403   0.578   1.338  0.6009  0.7254 -0.5652
11977TIP3    H157422   1.350   0.593   1.416  2.5577 -3.3806  1.8668
11977TIP3    H257423   1.375   0.493   1.305  4.0919 -0.7072 -0.3358
11978TIP3   OH257424   1.974   0.287  34.522 -0.9113  0.2434 -0.5406
11978TIP3    H157425   1.994   0.302  34.429  0.8087  1.5445 -0.0177
11978TIP3    H257426   1.910   0.355  34.544 -1.3198 -0.0658 -0.7502
11979TIP3   OH257427   3.961   1.597  10.718  0.0450  0.5493 -0.3120
11979TIP3    H157428   4.051   1.601  10.750  0.0494 -0.4657 -0.1787
11979TIP3    H257429   3.966   1.546  10.637 -0.3984  0.5967 -0.3744
11980TIP3   OH257430   1.717   2.126  28.431 -0.1092 -0.2457 -0.1355
11980TIP3    H157431   1.675   2.161  28.509  2.3558  0.9983  0.7238
11980TIP3    H257432   1.699   2.191  28.363 -1.9041 -1.1311 -0.5897
11981TIP3   OH257433   3.627   2.219  39.686 -0.8518 -0.0573 -0.2213
11981TIP3    H157434   3.630   2.282  39.615 -2.4645 -0.2879 -0.5424
11981TIP3    H257435   3.545   2.171  39.672 -0.7075 -0.7895  1.2088
11982TIP3   OH257436   2.947   3.522  41.226 -0.2012 -0.3198 -0.0098
11982TIP3    H157437   2.931   3.431  41.252  0.6148 -0.0307  1.6225
11982TIP3    H257438   3.041   3.525  41.206 -0.6869 -0.4008 -2.6426
11983TIP3   OH257439   1.227   0.351   6.050 -0.1469 -0.0850  0.0318
11983TIP3    H157440   1.282   0.274   6.067 -1.8705 -2.0829 -2.6388
11983TIP3    H257441   1.152   0.317   6.001 -1.3550  3.2440 -0.7139
11984TIP3   OH257442   1.779   0.760  36.956  0.0186 -0.0850  0.5526
11984TIP3    H157443   1.698   0.800  36.987 -0.7285 -3.1184  3.0028
11984TIP3    H257444   1.849   0.813  36.996 -0.6934  1.9883 -0.8184
11985TIP3   OH257445   1.865   0.673  10.740  0.1376  0.4212  0.1148
11985TIP3    H157446   1.823   0.729  10.674 -0.4620 -0.2913 -0.1167
11985TIP3    H257447   1.925   0.732  10.786  1.2302  0.7642 -1.6221
11986TIP3   OH257448   2.337   1.099  12.453 -0.5238  0.4604 -0.0501
11986TIP3    H157449   2.286   1.100  12.534 -0.9253  0.2337 -0.3005
11986TIP3    H257450   2.410   1.159  12.470  1.0846 -1.7817  1.5603
11987TIP3   OH257451   2.155   2.099  35.484  0.6518 -0.1245  0.3423
11987TIP3    H157452   2.073   2.080  35.438  1.1608 -0.7488 -0.3369
11987TIP3    H257453   2.146   2.190  35.512  1.3562  1.2520 -3.3068
11988TIP3   OH257454   3.210   1.256  12.673 -0.4544  0.0836  0.1683
11988TIP3    H157455   3.188   1.200  12.747 -0.0483 -0.7104 -0.3014
11988TIP3    H257456   3.229   1.342  12.712  0.9262 -0.6161  1.1115
11989TIP3   OH257457   3.173   2.060  31.389 -0.2041 -0.1404 -0.5533
11989TIP3    H157458   3.130   1.981  31.357  0.9504 -0.6774 -0.8424
11989TIP3    H257459   3.212   2.034  31.473  2.2488 -0.6669 -1.7402
11990TIP3   OH257460   4.213   1.593  29.374 -0.2810  0.0903  0.7277
11990TIP3    H157461   4.304   1.620  29.369 -0.5831  1.1663  0.8108
11990TIP3    H257462   4.202   1.559  29.463  0.0703 -0.1713  0.6714
11991TIP3   OH257463   3.863   4.118  36.760 -0.1971  0.8789  0.4360
11991TIP3    H157464   3.793   4.183  36.757 -0.8700  0.1999  1.0650
11991TIP3    H257465   3.909   4.137  36.842  0.5507  1.5087 -0.1199
11992TIP3   OH257466   4.106   0.873  33.482 -0.2390 -0.5832  0.2471
11992TIP3    H157467   4.131   0.798  33.536  0.1183 -1.6112 -1.2703
11992TIP3    H257468   4.109   0.948  33.541 -0.1858 -1.6951  1.7088
11993TIP3   OH257469   0.359   0.814  31.591 -0.5567 -0.2826 -0.0432
11993TIP3    H157470   0.285   0.769  31.632 -1.4347  0.9164 -0.2237
11993TIP3    H257471   0.322   0.898  31.563  0.4000 -0.4366 -1.8975
11994TIP3   OH257472   3.264   0.234  37.891 -0.1671  0.4984  0.0678
11994TIP3    H157473   3.266   0.141  37.868  0.9310  1.1481 -2.9060
11994TIP3    H257474   3.348   0.250  37.932  0.2768  0.4684 -0.8167
11995TIP3   OH257475   1.442   2.601  12.036  0.7377  0.2311 -0.1219
11995TIP3    H157476   1.420   2.556  11.955  1.7725 -0.3976 -0.0639
11995TIP3    H257477   1.514   2.660  12.013  1.7041 -0.6615  0.5226
11996TIP3   OH257478   3.186   2.090  29.613  0.1926 -0.6854 -0.5490
11996TIP3    H157479   3.098   2.109  29.645  0.2138  0.7420 -1.2725
11996TIP3    H257480   3.194   1.995  29.621 -1.1740 -0.7740  0.1099
11997TIP3   OH257481   2.879   4.061  27.452 -0.0877 -0.4417 -0.3829
11997TIP3    H157482   2.855   4.065  27.359  1.5886 -2.0977 -0.9715
11997TIP3    H257483   2.953   4.122  27.460  0.0713 -0.6484 -0.2609
11998TIP3   OH257484   0.952   0.569  36.168 -0.1678 -0.8956 -0.4878
11998TIP3    H157485   0.857   0.576  36.166 -0.3226 -2.1687  0.6291
11998TIP3    H257486   0.977   0.603  36.254  0.3224 -1.0751 -0.5535
11999TIP3   OH257487   2.714   3.043  35.962 -0.6155 -0.1161  0.2595
11999TIP3    H157488   2.714   3.003  36.049  0.4775  1.5584  1.0702
11999TIP3    H257489   2.635   3.096  35.960 -2.1246 -2.2392 -0.8581
12000TIP3   OH257490   1.119   3.706  10.639  0.4263  0.5272 -0.3991
12000TIP3    H157491   1.181   3.755  10.586  0.0968  0.1547 -1.1388
12000TIP3    H257492   1.161   3.622  10.656 -0.0994  0.0517 -1.3895
12001TIP3   OH257493   1.294   3.150   2.009 -0.0200  0.4243  0.2887
12001TIP3    H157494   1.309   3.065   2.049  0.2579 -0.0339 -0.7455
12001TIP3    H257495   1.238   3.131   1.933  1.0141  0.9704 -0.6413
12002TIP3   OH257496   4.032   3.609  22.143 -0.0679 -0.3741 -0.0392
12002TIP3    H157497   4.005   3.521  22.169  1.0525 -1.7376 -3.0774
12002TIP3    H257498   3.981   3.627  22.064 -1.1098  2.2815  1.0975
12003TIP3   OH257499   2.072   1.993   8.629  0.0200 -0.3610  0.2670
12003TIP3    H157500   2.164   1.971   8.619  0.4310  1.7596 -1.6392
12003TIP3    H257501   2.063   2.019   8.720  2.0930  2.2278 -0.1337
12004TIP3   OH257502   0.335   0.496   2.887 -0.7279 -0.5923  0.4045
12004TIP3    H157503   0.270   0.470   2.822 -0.5105  0.4540 -0.2545
12004TIP3    H257504   0.359   0.414   2.930 -0.1949 -1.4903 -1.4657
12005TIP3   OH257505   1.982   2.511   4.238 -0.5159  0.0305 -0.2109
12005TIP3    H157506   2.056   2.509   4.299 -2.1346 -1.2699  1.7963
12005TIP3    H257507   1.962   2.604   4.228  0.6528  0.3348  0.1171
12006TIP3   OH257508   4.226   2.485  28.707  0.0596 -0.0714  0.6709
12006TIP3    H157509   4.257   2.500  28.618  0.3779  0.8778  0.9339
12006TIP3    H257510   4.217   2.573  28.745 -0.0310 -0.4625  1.5831
12007TIP3   OH257511   2.253   1.391   7.908  0.1281  0.0941 -1.1142
12007TIP3    H157512   2.282   1.373   7.998 -0.3426  0.4415 -0.8907
12007TIP3    H257513   2.208   1.311   7.881 -0.7210  0.3965 -0.6290
12008TIP3   OH257514   3.107   3.858  12.599 -0.2245 -0.1807 -0.4357
12008TIP3    H157515   3.033   3.803  12.571 -0.9237  0.5178 -0.0172
12008TIP3    H257516   3.182   3.799  12.596 -0.5615 -0.5832 -2.0776
12009TIP3   OH257517   2.370   0.408   5.099  0.1756 -0.0705  0.3874
12009TIP3    H157518   2.350   0.453   5.017  0.8895 -0.4093  0.0227
12009TIP3    H257519   2.305   0.338   5.104 -0.6125  0.6652  0.7049
12010TIP3   OH257520   2.575   2.539  36.438 -0.0236  0.5442 -0.4101
12010TIP3    H157521   2.637   2.493  36.381 -0.0516  1.1410 -0.9362
12010TIP3    H257522   2.609   2.527  36.526 -0.7574 -1.6242 -0.3805
12011TIP3   OH257523   3.122   1.720  10.637  0.0709  0.5200  0.4179
12011TIP3    H157524   3.178   1.798  10.635 -1.3435  1.5511 -0.5938
12011TIP3    H257525   3.063   1.734  10.710  0.2247  0.0810  0.6310
12012TIP3   OH257526   3.589   2.983  30.997 -0.2678  0.0780  0.4118
12012TIP3    H157527   3.643   2.917  31.042  0.5003  0.3795 -0.0447
12012TIP3    H257528   3.638   3.065  31.009 -0.3060  0.2441 -0.5474
12013TIP3   OH257529   4.142   3.303  11.004 -0.6775  0.0016 -0.1629
12013TIP3    H157530   4.054   3.338  11.020 -0.5475  0.5925 -0.7311
12013TIP3    H257531   4.176   3.355  10.931  0.5264  0.4623  0.6846
12014TIP3   OH257532   2.445   1.687  36.808  0.0096  0.7350  0.7502
12014TIP3    H157533   2.351   1.670  36.797 -0.2309  2.3530 -0.0028
12014TIP3    H257534   2.465   1.754  36.743  2.2157 -1.1321 -0.6827
12015TIP3   OH257535   1.407   2.873   9.860 -0.2023 -0.2856  0.0967
12015TIP3    H157536   1.321   2.870   9.903  0.2139 -1.2807  0.9097
12015TIP3    H257537   1.407   2.796   9.802 -0.1854  0.2075 -0.5685
12016TIP3   OH257538   2.244   4.302  39.983  0.4599 -0.0513  0.1215
12016TIP3    H157539   2.299   4.380  39.992  0.2446  0.0642  0.4754
12016TIP3    H257540   2.195   4.299  40.065  1.3038 -1.2109  0.6091
12017TIP3   OH257541   3.685   1.663  36.696 -0.2790 -0.0611 -0.3622
12017TIP3    H157542   3.703   1.586  36.641 -0.5246 -0.5161  0.1800
12017TIP3    H257543   3.647   1.727  36.636  0.4543 -0.1513 -0.9342
12018TIP3   OH257544   4.063   3.977  33.227  0.3379 -0.4021 -0.0615
12018TIP3    H157545   3.978   4.002  33.262 -1.3012 -1.8564 -2.6715
12018TIP3    H257546   4.063   3.881  33.228  1.6140 -0.4384 -0.8607
12019TIP3   OH257547   0.351   0.425   0.701 -0.0788  0.1223 -0.3979
12019TIP3    H157548   0.322   0.491   0.764  0.6889  0.4732 -0.3985
12019TIP3    H257549   0.381   0.352   0.755  0.6194  0.4401 -0.3359
12020TIP3   OH257550   1.711   2.987  32.415  0.3068 -0.4444 -0.1466
12020TIP3    H157551   1.711   2.892  32.427 -0.4306 -0.4237  0.0265
12020TIP3    H257552   1.780   3.018  32.473 -1.1931 -0.6347  1.8359
12021TIP3   OH257553   0.521   0.476   8.177  0.6147  0.4847 -0.7611
12021TIP3    H157554   0.607   0.454   8.213  0.7338  0.7584 -0.8742
12021TIP3    H257555   0.472   0.394   8.177  0.4495  0.5636  0.4819
12022TIP3   OH257556   3.779   1.512   1.260 -0.1057  0.0672 -0.0027
12022TIP3    H157557   3.728   1.449   1.208 -0.3080 -0.1239  0.4215
12022TIP3    H257558   3.774   1.477   1.350 -0.2941  0.7377  0.2499
12023TIP3   OH257559   3.946   1.128  37.035  0.5237 -0.7577 -0.0433
12023TIP3    H157560   3.921   1.086  37.117  0.2673 -0.0834  0.2246
12023TIP3    H257561   4.035   1.096  37.019  0.4472 -1.1616  0.3153
12024TIP3   OH257562   2.449   4.238   0.010 -0.8000  1.0135  0.8088
12024TIP3    H157563   2.446   4.166   0.073 -1.7419 -0.6013 -0.9716
12024TIP3    H257564   2.538   4.272   0.016  0.0910 -1.1667  0.7949
12025TIP3   OH257565   0.527   0.569   9.081 -0.4505 -0.0398 -0.1900
12025TIP3    H157566   0.492   0.519   9.155 -0.6283 -1.9681 -1.4750
12025TIP3    H257567   0.617   0.588   9.105 -0.5446 -0.5210  0.5890
12026TIP3   OH257568   0.669   3.150  39.712  0.1373  0.3402 -0.0440
12026TIP3    H157569   0.575   3.133  39.706  0.1956  0.2866 -0.9274
12026TIP3    H257570   0.705   3.071  39.753 -0.3483  0.8588  1.4016
12027TIP3   OH257571   2.984   3.969  41.369  0.0018  0.1265  0.6141
12027TIP3    H157572   3.034   3.923  41.436  0.7565  0.4582  0.2872
12027TIP3    H257573   2.893   3.952  41.392  0.2460  0.1525  1.6703
12028TIP3   OH257574   3.375   3.031  28.712  0.3088 -0.0339  0.1589
12028TIP3    H157575   3.439   3.101  28.708 -0.2586  0.5485  0.9464
12028TIP3    H257576   3.368   2.999  28.622  0.9203  0.5964 -0.1165
12029TIP3   OH257577   0.223   0.019  32.805 -0.4765 -0.1476 -0.0308
12029TIP3    H157578   0.245   0.072  32.728 -0.7886  0.3294  0.1977
12029TIP3    H257579   0.137  -0.018  32.785 -0.8021  0.4144  0.3077
12030TIP3   OH257580   3.528   0.352  29.754 -0.1287  0.1632 -0.6372
12030TIP3    H157581   3.540   0.333  29.847 -0.3263 -3.7916 -1.2447
12030TIP3    H257582   3.433   0.363  29.744  0.0262  2.2703 -0.2044
12031TIP3   OH257583   3.050   0.990  26.748  0.2135  0.0964 -0.1527
12031TIP3    H157584   3.047   1.085  26.741 -0.6911  0.1928  1.1767
12031TIP3    H257585   2.967   0.966  26.790  1.1656 -1.1018  1.1548
12032TIP3   OH257586   1.967   1.817  27.410  0.0463 -0.3454  0.9272
12032TIP3    H157587   1.946   1.807  27.318 -1.0121  1.9361  0.8483
12032TIP3    H257588   1.886   1.794  27.456 -0.7915  2.3316  0.9826
12033TIP3   OH257589   1.156   3.652  11.381  0.3603  0.2159  0.2476
12033TIP3    H157590   1.221   3.592  11.417 -0.1752 -0.1912  0.5583
12033TIP3    H257591   1.083   3.596  11.355  1.1081  0.3573 -2.4624
12034TIP3   OH257592   2.409   2.648   5.153  0.5513  0.3279 -0.0391
12034TIP3    H157593   2.336   2.587   5.161  0.0957  0.7402 -0.9426
12034TIP3    H257594   2.435   2.642   5.061  2.2450 -0.4695  0.4515
12035TIP3   OH257595   0.487   0.198  35.050  0.0436 -0.7318 -0.7364
12035TIP3    H157596   0.404   0.160  35.022 -0.6559  0.4786 -0.4186
12035TIP3    H257597   0.521   0.243  34.973  0.7349 -1.7386 -1.0373
12036TIP3   OH257598   1.833   1.639  33.031 -0.1956  0.2329  0.0170
12036TIP3    H157599   1.916   1.665  33.071  0.2368 -0.9446 -0.0814
12036TIP3    H257600   1.838   1.670  32.941  0.6346 -0.8262 -0.3179
12037TIP3   OH257601   3.044   1.105  10.908  0.6274 -0.0667  0.3947
12037TIP3    H157602   3.113   1.043  10.887  1.8073  1.3241  0.0216
12037TIP3    H257603   2.973   1.084  10.847  1.7318  0.1334 -0.9948
12038TIP3   OH257604   3.691   2.242  32.064  0.5599  0.6412 -0.1604
12038TIP3    H157605   3.675   2.150  32.042 -0.1422  0.5728  0.5848
12038TIP3    H257606   3.751   2.273  31.996  1.6682 -0.6605  0.1846
12039TIP3   OH257607   2.093   4.116   5.947 -0.2830 -0.6839  0.9706
12039TIP3    H157608   2.155   4.053   5.983  1.2248  0.3887  0.3478
12039TIP3    H257609   2.093   4.100   5.853  0.8157  0.7694  0.6762
12040TIP3   OH257610   1.677   1.812  34.262  0.2409  0.1484 -0.0821
12040TIP3    H157611   1.651   1.734  34.310  1.7859 -0.7853 -0.6979
12040TIP3    H257612   1.622   1.882  34.298 -0.6294 -1.0589  1.0152
12041TIP3   OH257613   3.655   2.970  40.377  0.2215 -0.3565 -0.5202
12041TIP3    H157614   3.578   2.978  40.321 -0.3533 -3.8674 -0.4481
12041TIP3    H257615   3.718   2.922  40.324  0.9935 -0.6837  0.6590
12042TIP3   OH257616   1.085   0.410  34.874 -0.2213 -0.0175 -0.4147
12042TIP3    H157617   1.003   0.373  34.906 -0.7185 -0.4871 -2.0912
12042TIP3    H257618   1.144   0.335  34.866 -0.3116 -0.0237 -1.1385
12043TIP3   OH257619   3.356   1.060  27.056  0.0290 -0.0232 -0.0506
12043TIP3    H157620   3.407   1.141  27.055  1.3851 -0.8450  0.0446
12043TIP3    H257621   3.265   1.089  27.049  0.3772  1.5969  1.4056
12044TIP3   OH257622   3.318   2.442  11.474 -0.0694  0.1667 -0.5950
12044TIP3    H157623   3.290   2.363  11.427 -0.7379 -0.1014  0.2214
12044TIP3    H257624   3.236   2.480  11.506  0.2400  1.2571 -1.0596
12045TIP3   OH257625   0.785   1.447   4.598  0.2811 -0.9092 -0.5599
12045TIP3    H157626   0.819   1.380   4.657 -0.1155 -1.4168 -0.9072
12045TIP3    H257627   0.774   1.403   4.514  1.4457 -0.0389 -1.2030
12046TIP3   OH257628   1.309   3.086  37.966  0.8921  0.3855 -0.1646
12046TIP3    H157629   1.316   3.025  38.040 -0.0777 -0.3193 -0.6326
12046TIP3    H257630   1.244   3.046  37.908  1.1373  1.2717 -1.0720
12047TIP3   OH257631   0.165   2.460  35.628 -0.4260  0.4668 -0.2045
12047TIP3    H157632   0.174   2.462  35.723 -0.1173  1.7707 -0.2305
12047TIP3    H257633   0.086   2.408  35.612  0.2524 -0.8728  0.6857
12048TIP3   OH257634   2.481   4.056  40.057  0.5130 -0.2482 -0.4494
12048TIP3    H157635   2.446   4.055  40.146 -0.7314 -1.6708 -0.9065
12048TIP3    H257636   2.429   4.122  40.012 -0.1409 -0.8412 -0.5779
12049TIP3   OH257637   2.311   1.730  31.550 -0.0988  0.4398  0.0768
12049TIP3    H157638   2.363   1.743  31.629 -0.7822  0.1935  0.5833
12049TIP3    H257639   2.327   1.639  31.526 -1.8222 -0.2716  1.4038
12050TIP3   OH257640   1.103   2.491  40.444  0.4094 -0.4980 -0.0354
12050TIP3    H157641   1.091   2.511  40.536  0.0145 -0.3485 -0.1167
12050TIP3    H257642   1.123   2.397  40.442 -0.3896 -0.6820  0.1468
12051TIP3   OH257643   0.542   1.318  29.097 -0.0451  0.4466 -0.9420
12051TIP3    H157644   0.494   1.330  29.016  0.4996 -1.3805 -1.5990
12051TIP3    H257645   0.619   1.375  29.089 -1.0064  1.7918 -0.7967
12052TIP3   OH257646   3.894   3.940   3.654  0.1226  0.1659  0.5402
12052TIP3    H157647   3.962   3.963   3.591 -0.0023 -0.5643  0.1330
12052TIP3    H257648   3.814   3.931   3.602 -0.1314  0.2500  0.9045
12053TIP3   OH257649   4.028   0.388  23.722 -0.0352  0.1119 -0.1851
12053TIP3    H157650   4.003   0.322  23.658  0.5002  1.0171 -1.3557
12053TIP3    H257651   3.977   0.366  23.800 -1.5018 -0.3744 -1.2530
12054TIP3   OH257652   3.422   3.522  28.919  0.4740  0.9400  0.3179
12054TIP3    H157653   3.465   3.463  28.981  1.7897 -0.7433 -2.0204
12054TIP3    H257654   3.383   3.591  28.974  1.4273 -0.4846  2.9614
12055TIP3   OH257655   0.152   4.052   3.664  0.6607 -0.1243  0.1646
12055TIP3    H157656   0.200   3.991   3.608 -1.6456  0.1048 -2.3037
12055TIP3    H257657   0.145   4.132   3.611 -0.7754  0.4612  1.1693
12056TIP3   OH257658   1.877   1.421  40.632  0.0749 -0.2184  0.1630
12056TIP3    H157659   1.815   1.362  40.675 -3.7606  2.2238 -1.4517
12056TIP3    H257660   1.912   1.475  40.704  0.3216 -1.5985  1.1111
12057TIP3   OH257661   1.816   1.282  15.384  0.1238 -1.0062  0.3633
12057TIP3    H157662   1.890   1.286  15.323 -0.3813  0.6108 -0.2028
12057TIP3    H257663   1.856   1.287  15.471  0.7230 -0.4254  0.0717
12058TIP3   OH257664   0.675   0.650  31.619 -0.0887  0.1397  0.0457
12058TIP3    H157665   0.655   0.688  31.705  0.7112  0.7627 -0.0335
12058TIP3    H257666   0.687   0.726  31.562 -0.8807 -0.2759 -0.6869
12059TIP3   OH257667   1.674   3.791  36.603  0.2087 -0.4788 -0.1083
12059TIP3    H157668   1.721   3.867  36.638  1.2826 -1.9436  1.8774
12059TIP3    H257669   1.593   3.827  36.568  0.2628  1.5060  1.5834
12060TIP3   OH257670   3.885   0.629  29.753 -0.1172 -0.1524  0.3769
12060TIP3    H157671   3.799   0.596  29.727 -0.0186  0.5720 -0.9807
12060TIP3    H257672   3.878   0.724  29.741  0.6090 -0.0067  1.0696
12061TIP3   OH257673   2.318   0.324   5.378  0.3034 -0.8049 -0.5622
12061TIP3    H157674   2.325   0.420   5.383 -1.4578 -0.6385 -0.6192
12061TIP3    H257675   2.239   0.304   5.428  1.0455 -2.3091  0.0352
12062TIP3   OH257676   1.434   2.630   6.798 -0.4361 -0.6673 -0.6578
12062TIP3    H157677   1.444   2.666   6.887  2.7557 -0.9947 -0.7495
12062TIP3    H257678   1.346   2.594   6.796 -0.8935  0.0623  2.1130
12063TIP3   OH257679   3.627   1.687   9.211  0.8405  0.4445  0.1575
12063TIP3    H157680   3.643   1.740   9.133 -1.7473  1.2426  0.0536
12063TIP3    H257681   3.635   1.597   9.180  1.3996  0.7587 -0.6590
12064TIP3   OH257682   3.032   3.269  12.826  0.0907 -0.1245  0.0310
12064TIP3    H157683   2.937   3.281  12.830  0.1383  0.1227  0.5260
12064TIP3    H257684   3.050   3.200  12.888  0.1918 -0.4785 -0.3868
12065TIP3   OH257685   2.572   2.062   3.310  0.3193 -0.4596 -0.0173
12065TIP3    H157686   2.647   2.002   3.306  1.9819  1.4695  0.3985
12065TIP3    H257687   2.582   2.118   3.233 -1.1278 -0.6129 -0.3375
12066TIP3   OH257688   1.868   2.897   2.404 -0.1711  0.0216 -0.2338
12066TIP3    H157689   1.776   2.906   2.429  0.1616  0.4037  0.9155
12066TIP3    H257690   1.909   2.856   2.480  1.0070  1.8270  0.1397
12067TIP3   OH257691   2.083   0.487  29.462  0.0065 -0.3116 -0.5061
12067TIP3    H157692   1.988   0.499  29.453 -0.1802 -0.4776  1.0709
12067TIP3    H257693   2.107   0.435  29.386 -1.0951  0.0791 -1.1562
12068TIP3   OH257694   1.698   2.104  13.147  0.4549 -0.3262 -0.1360
12068TIP3    H157695   1.701   2.073  13.057 -2.1842  0.7528 -0.6861
12068TIP3    H257696   1.637   2.178  13.146  0.2245 -0.3511  2.5445
12069TIP3   OH257697   4.326   4.099   8.343  0.3257 -0.2219 -0.0837
12069TIP3    H157698   4.296   4.176   8.295  0.9486 -0.5145 -0.9690
12069TIP3    H257699   4.258   4.083   8.408  1.4451  2.7505  2.0453
12070TIP3   OH257700   3.393   0.078  30.155 -0.3378  0.0887 -0.0257
12070TIP3    H157701   3.314   0.033  30.126 -1.4636  1.8283  0.1709
12070TIP3    H257702   3.418   0.035  30.236 -0.0502 -1.5952 -0.9616
12071TIP3   OH257703   3.814   3.919  11.698  0.0043 -0.6020  0.0504
12071TIP3    H157704   3.734   3.904  11.749  0.0743  0.5402  0.5078
12071TIP3    H257705   3.848   4.002  11.730  1.2319 -0.9336 -0.3458
12072TIP3   OH257706   2.165   0.052  35.884  0.0640 -0.2101  0.0421
12072TIP3    H157707   2.086  -0.001  35.872 -0.8101  1.3986 -1.8701
12072TIP3    H257708   2.236  -0.011  35.894 -1.3215 -1.6975  0.7969
12073TIP3   OH257709   1.032   0.684  31.162 -0.2845  0.7800 -0.0039
12073TIP3    H157710   0.994   0.719  31.082 -0.8903 -0.1300 -0.1364
12073TIP3    H257711   0.991   0.733  31.232 -2.7138 -0.9653 -0.0643
12074TIP3   OH257712   4.154   3.622  12.477 -0.3873 -0.0886 -0.3123
12074TIP3    H157713   4.213   3.661  12.412 -0.0799 -0.8162 -0.4853
12074TIP3    H257714   4.116   3.546  12.432 -0.1094 -0.6520  0.3899
12075TIP3   OH257715   0.995   1.825  40.044 -0.0847 -0.3382 -0.0977
12075TIP3    H157716   0.963   1.829  39.954  2.1316  2.5721 -0.9140
12075TIP3    H257717   1.090   1.819  40.036  0.2072  0.3466  2.0553
12076TIP3   OH257718   4.218   2.139  38.236  0.0582 -0.5650 -0.1759
12076TIP3    H157719   4.186   2.122  38.325  2.0317  0.7187  0.8592
12076TIP3    H257720   4.309   2.166  38.248  0.8771 -1.8250 -2.7408
12077TIP3   OH257721   2.561   0.924   2.168 -0.4993 -0.4824 -0.7023
12077TIP3    H157722   2.541   1.004   2.217 -0.0679 -0.8183  0.0343
12077TIP3    H257723   2.476   0.888   2.144 -0.7034 -0.0990 -0.5524
12078TIP3   OH257724   2.265   0.424  36.457  0.1518 -0.0462  0.0310
12078TIP3    H157725   2.203   0.368  36.408 -0.1076 -0.3866  0.7434
12078TIP3    H257726   2.225   0.433  36.543  0.5899  0.5975  0.1643
12079TIP3   OH257727   0.875   2.704   5.141  0.3325  0.0187  0.8041
12079TIP3    H157728   0.935   2.767   5.181 -0.7768  1.5329  0.1865
12079TIP3    H257729   0.799   2.702   5.200 -0.3911  0.6312 -0.0785
12080TIP3   OH257730   3.212   2.783  12.032 -0.2682 -0.3310 -0.1909
12080TIP3    H157731   3.234   2.854  11.972 -0.4944 -0.4978 -0.4752
12080TIP3    H257732   3.207   2.825  12.118 -1.7711  0.2816 -0.5335
12081TIP3   OH257733   1.072   1.527  36.625  0.1491  0.3681 -0.5800
12081TIP3    H157734   1.007   1.520  36.695  0.0564  1.6425 -0.5124
12081TIP3    H257735   1.064   1.617  36.594  1.4585  0.3602 -1.0018
12082TIP3   OH257736   0.358   0.751   1.634 -0.2418  0.1403 -0.0626
12082TIP3    H157737   0.345   0.818   1.700  0.6707  1.1556 -0.8782
12082TIP3    H257738   0.453   0.738   1.632 -0.2576  0.1440 -1.1942
12083TIP3   OH257739   2.090   1.850  34.864  0.1713 -0.5569  0.5812
12083TIP3    H157740   2.053   1.907  34.931  1.2998 -0.8008  1.4573
12083TIP3    H257741   2.100   1.765  34.908  1.7001 -0.5059  0.3895
12084TIP3   OH257742   1.736   4.295  34.747  0.2719 -0.3556 -0.0277
12084TIP3    H157743   1.644   4.317  34.734  0.0953 -1.2678 -0.3260
12084TIP3    H257744   1.780   4.380  34.752 -0.7156  0.1146  1.1577
12085TIP3   OH257745   3.808   0.163  36.159  0.1854  0.4545 -0.3653
12085TIP3    H157746   3.815   0.070  36.180 -0.5841  0.2736 -0.8747
12085TIP3    H257747   3.883   0.204  36.204  0.6130 -0.4241 -0.2638
12086TIP3   OH257748   2.425   1.032  27.980 -0.3864 -0.3357  0.2886
12086TIP3    H157749   2.489   1.104  27.978  1.5654 -1.9914  0.1450
12086TIP3    H257750   2.401   1.023  28.072 -0.3024  0.1980  0.3657
12087TIP3   OH257751   4.243   2.881  40.301 -0.8658  0.0905  0.3815
12087TIP3    H157752   4.171   2.827  40.334 -1.1857  0.6711  0.6435
12087TIP3    H257753   4.300   2.895  40.376 -1.0783  0.5879  0.4505
12088TIP3   OH257754   2.589   3.128  32.292 -0.6820 -0.4991 -0.8598
12088TIP3    H157755   2.659   3.188  32.266 -0.6770 -0.0013  0.2617
12088TIP3    H257756   2.597   3.055  32.231  1.9513 -1.2700  0.2405
12089TIP3   OH257757   0.779   0.530  38.381  0.3878 -0.0855 -0.0152
12089TIP3    H157758   0.789   0.492  38.294  0.4687  0.5807 -0.2972
12089TIP3    H257759   0.820   0.466  38.440  0.0798 -0.6757 -0.4245
12090TIP3   OH257760   1.585   2.297  39.760 -0.0365 -0.0716  0.0783
12090TIP3    H157761   1.533   2.313  39.840  2.1920  0.7717  1.4424
12090TIP3    H257762   1.609   2.385  39.729  0.4773 -0.4407 -0.5880
12091TIP3   OH257763   2.922   1.515  31.789  0.1497 -0.7178  0.2386
12091TIP3    H157764   2.870   1.528  31.868 -0.4060  0.3161 -0.2836
12091TIP3    H257765   3.009   1.490  31.821 -0.3949 -1.5354  1.1378
12092TIP3   OH257766   0.644   0.037  26.964  0.6633 -0.0428 -0.6376
12092TIP3    H157767   0.565   0.028  27.018  0.7795 -1.5514 -0.6818
12092TIP3    H257768   0.702   0.093  27.015 -0.3768  1.0087 -0.5573
12093TIP3   OH257769   4.116   1.991   0.982 -0.0934 -0.0134  0.3416
12093TIP3    H157770   4.043   1.929   0.973  0.0869 -0.3207  0.9505
12093TIP3    H257771   4.182   1.944   1.032 -0.1194  0.8010  1.1714
12094TIP3   OH257772   0.900   1.550   0.260  0.0493 -0.0349 -0.3695
12094TIP3    H157773   0.897   1.538   0.165 -0.0056  0.6846 -0.4607
12094TIP3    H257774   0.845   1.625   0.277 -0.3472 -0.4640  0.2933
12095TIP3   OH257775   0.649   3.433  30.702  0.1774 -0.3785  0.3136
12095TIP3    H157776   0.735   3.393  30.689  0.5543  0.0334  1.4246
12095TIP3    H257777   0.619   3.399  30.787 -0.5391 -0.1189  0.1756
12096TIP3   OH257778   3.061   4.290  28.024  0.1222  0.1221 -0.1856
12096TIP3    H157779   3.080   4.199  28.049 -1.6646 -0.4403 -0.6936
12096TIP3    H257780   3.039   4.333  28.107  2.1209  0.4476  0.2225
12097TIP3   OH257781   2.726   3.813  13.759 -0.1683  0.3763  0.2268
12097TIP3    H157782   2.760   3.841  13.674 -0.9266  1.2371  0.1917
12097TIP3    H257783   2.668   3.884  13.786 -0.2412 -0.0718  1.2852
12098TIP3   OH257784   2.392   3.511   4.079  0.1050  0.3299  0.1615
12098TIP3    H157785   2.311   3.542   4.120 -0.6178 -0.0504 -0.9259
12098TIP3    H257786   2.392   3.417   4.093  0.1282  0.2702 -0.2202
12099TIP3   OH257787   1.244   3.037   8.942 -0.3242  0.1259 -0.1542
12099TIP3    H157788   1.258   2.994   9.027 -1.3366 -0.9410 -0.5032
12099TIP3    H257789   1.170   2.990   8.903 -2.5099  3.1117  0.0617
12100TIP3   OH257790   2.597   4.047  38.574 -0.0052  0.1520 -0.2276
12100TIP3    H157791   2.531   4.115  38.589  0.8308  0.5153  2.4844
12100TIP3    H257792   2.669   4.071  38.632  1.3959 -1.6884 -1.0997
12101TIP3   OH257793   0.948   0.779  26.792  0.3038 -0.1504 -0.3940
12101TIP3    H157794   0.931   0.685  26.789 -1.8462  0.2003 -0.2986
12101TIP3    H257795   0.879   0.816  26.847  1.5093  1.4268  0.1636
12102TIP3   OH257796   1.663   2.772  29.964 -0.2015 -0.5958  0.4996
12102TIP3    H157797   1.736   2.779  30.026 -1.7311  0.2107  2.3270
12102TIP3    H257798   1.612   2.698  29.997 -1.2955  0.1480  0.5287
12103TIP3   OH257799   4.034   2.253  32.802  0.3757 -0.0865 -0.1364
12103TIP3    H157800   4.104   2.205  32.847  0.3524  0.2362  0.2542
12103TIP3    H257801   3.954   2.204  32.824  0.2580  0.5213  0.8546
12104TIP3   OH257802   1.141   1.930  13.781  0.4966  0.0182 -0.3604
12104TIP3    H157803   1.074   1.915  13.848  0.9983  0.0114  0.1448
12104TIP3    H257804   1.095   1.978  13.712 -0.0138  0.0783  0.0130
12105TIP3   OH257805   2.971   0.179  41.384 -0.2821 -0.2957 -0.1454
12105TIP3    H157806   2.920   0.257  41.362 -0.7559  0.1964  2.3908
12105TIP3    H257807   3.048   0.214  41.430 -0.1876 -1.2769  0.4669
12106TIP3   OH257808   0.821   1.400  13.154 -0.1566 -0.4995  0.4030
12106TIP3    H157809   0.834   1.311  13.189 -0.1236  0.1373  2.0836
12106TIP3    H257810   0.894   1.450  13.190 -1.3107  0.6834  1.1411
12107TIP3   OH257811   1.567   4.124   4.327  0.4875  0.0649 -0.2929
12107TIP3    H157812   1.473   4.134   4.316  0.3837  3.1783  2.1383
12107TIP3    H257813   1.605   4.160   4.247 -0.3913  1.8207  0.0401
12108TIP3   OH257814   3.340   3.624  39.029  0.2612  0.2863 -0.1800
12108TIP3    H157815   3.255   3.660  39.053 -0.5433 -2.0731  0.8284
12108TIP3    H257816   3.351   3.648  38.937 -0.0703  3.1700  0.4581
12109TIP3   OH257817   4.066   1.238  23.912 -0.1778  0.2266  0.2675
12109TIP3    H157818   4.012   1.312  23.883 -0.6732 -0.3198 -0.2379
12109TIP3    H257819   4.008   1.162  23.904  0.7314 -0.4070 -0.4760
12110TIP3   OH257820   4.392   4.203   1.408 -0.3691  0.0908  0.5139
12110TIP3    H157821   4.381   4.277   1.467  0.8276  0.1361  0.7162
12110TIP3    H257822   4.422   4.242   1.326 -2.7180  0.0999 -0.3978
12111TIP3   OH257823   2.113   3.847  30.097 -0.1325 -0.4797  0.2159
12111TIP3    H157824   2.169   3.858  30.174  1.2211  0.2951 -0.8335
12111TIP3    H257825   2.065   3.929  30.090 -0.1276 -0.4830  0.1403
12112TIP3   OH257826   0.250   0.071   7.704  0.0640 -0.0523  0.1734
12112TIP3    H157827   0.176   0.078   7.644  0.7026  2.9534 -0.4409
12112TIP3    H257828   0.214   0.094   7.790  0.0871  0.3931  0.0634
12113TIP3   OH257829   4.225   2.747   5.448 -0.2259  0.9478 -0.3456
12113TIP3    H157830   4.182   2.676   5.496 -1.8661 -0.1514 -3.1836
12113TIP3    H257831   4.274   2.703   5.379  1.6504  2.4849 -0.0895
12114TIP3   OH257832   2.634   1.722  30.329 -0.2330  0.0228  0.4799
12114TIP3    H157833   2.695   1.785  30.290 -2.0652 -0.7004 -4.1317
12114TIP3    H257834   2.689   1.647  30.352  1.2540  1.3471  1.5335
12115TIP3   OH257835   2.947   0.573  12.910 -0.1888 -0.0234 -0.4770
12115TIP3    H157836   2.944   0.478  12.923  2.0891 -0.3411 -1.7707
12115TIP3    H257837   2.914   0.586  12.821 -0.5274  0.4103 -0.2926
12116TIP3   OH257838   0.777   2.895   9.364  0.0134 -0.1034  0.7962
12116TIP3    H157839   0.861   2.851   9.355  0.4291  0.9466 -0.8578
12116TIP3    H257840   0.787   2.977   9.315 -1.8895  0.1654  0.7770
12117TIP3   OH257841   4.146   3.931   2.468  0.4699 -0.0774  1.1485
12117TIP3    H157842   4.177   3.958   2.555  2.0962  0.2280  0.5223
12117TIP3    H257843   4.226   3.904   2.422 -0.1613  0.9852 -0.6707
12118TIP3   OH257844   2.828   2.934  12.583  0.2963 -0.6530  0.0587
12118TIP3    H157845   2.738   2.968  12.589  0.6566  0.6089 -1.1394
12118TIP3    H257846   2.845   2.898  12.670 -0.6257  1.0373  1.0043
12119TIP3   OH257847   1.390   0.328  11.048  0.0886 -0.2595 -0.2375
12119TIP3    H157848   1.412   0.274  10.973  1.6803  0.4132 -0.2944
12119TIP3    H257849   1.422   0.415  11.026 -2.3484  0.7499 -0.1124
12120TIP3   OH257850   0.392   1.399   2.448 -0.6576 -0.1007  0.4956
12120TIP3    H157851   0.379   1.472   2.387  0.3658 -0.6687 -0.4311
12120TIP3    H257852   0.442   1.438   2.520 -1.5640  0.4882  0.8235
12121TIP3   OH257853   0.806   2.932  13.748 -0.2652 -0.7111 -0.0296
12121TIP3    H157854   0.813   3.027  13.743  1.3572 -0.8801 -2.7629
12121TIP3    H257855   0.856   2.908  13.826  0.5855  0.5897 -0.1521
12122TIP3   OH257856   2.000   1.253   8.330  0.1964  0.5644  0.4243
12122TIP3    H157857   1.980   1.160   8.332  1.0597  0.3291 -0.7366
12122TIP3    H257858   2.021   1.275   8.421 -0.2423 -0.3049  0.7504
12123TIP3   OH257859   3.859   2.390  39.230  1.0746  0.2985 -0.1386
12123TIP3    H157860   3.765   2.409  39.241  0.9046 -1.2515  1.6462
12123TIP3    H257861   3.897   2.472  39.199 -0.5446  1.6001  1.1620
12124TIP3   OH257862   0.104   1.628  21.414 -0.3214  0.1815 -0.0321
12124TIP3    H157863   0.156   1.637  21.334  0.1083  1.2097  0.3520
12124TIP3    H257864   0.152   1.562  21.465  0.6415  1.1244  0.3236
12125TIP3   OH257865   0.905   1.820   9.433  0.4748 -0.1386  0.5831
12125TIP3    H157866   0.827   1.875   9.431  1.1375  0.8191  0.4171
12125TIP3    H257867   0.934   1.821   9.524  0.1324 -0.7356  0.7026
12126TIP3   OH257868   1.162   2.750   6.539 -0.6023  0.3496 -0.0861
12126TIP3    H157869   1.122   2.741   6.626 -3.6298 -1.3455 -1.5009
12126TIP3    H257870   1.138   2.838   6.510  0.2401  0.8437  0.6461
12127TIP3   OH257871   1.575   3.852   8.942 -0.0063 -0.2899  0.0935
12127TIP3    H157872   1.563   3.825   9.033  0.9511 -0.4216  0.1884
12127TIP3    H257873   1.668   3.871   8.934 -0.0951 -0.1783 -0.8316
12128TIP3   OH257874   4.003   0.852  27.961 -0.6343 -0.1241 -0.0073
12128TIP3    H157875   4.048   0.778  28.001 -0.2292  0.3516  0.4381
12128TIP3    H257876   4.048   0.865  27.877 -1.2338 -0.8808 -0.4579
12129TIP3   OH257877   3.167   2.829   2.633 -0.4690 -0.0327  0.1798
12129TIP3    H157878   3.254   2.816   2.671 -0.0697 -1.7397 -1.1478
12129TIP3    H257879   3.181   2.823   2.539 -2.1990 -1.9644 -0.0459
12130TIP3   OH257880   1.596   0.962  27.304 -0.0673 -0.2723 -0.1626
12130TIP3    H157881   1.631   0.948  27.216  2.7954  1.7584  0.4981
12130TIP3    H257882   1.584   1.057  27.310 -2.2901 -0.5521  1.0014
12131TIP3   OH257883   0.354   2.324   6.077  0.4480  0.7179  0.3693
12131TIP3    H157884   0.352   2.369   6.161  1.5881  0.4303  0.5664
12131TIP3    H257885   0.441   2.341   6.043 -0.3933  1.8751 -1.3502
12132TIP3   OH257886   1.780   0.111  11.702  0.2119  0.6482 -0.2586
12132TIP3    H157887   1.836   0.072  11.635 -0.4869  0.2412 -0.6239
12132TIP3    H257888   1.691   0.094  11.671 -0.1156  1.1716  0.3690
12133TIP3   OH257889   0.774   3.730   4.552  0.1390 -0.0231 -0.2856
12133TIP3    H157890   0.772   3.698   4.462 -2.7214 -0.5591 -0.1071
12133TIP3    H257891   0.743   3.656   4.604 -0.3295  0.9686  0.8935
12134TIP3   OH257892   4.221   3.345  12.419 -0.5168 -0.1818 -0.2665
12134TIP3    H157893   4.172   3.357  12.337  0.5235 -0.2142 -0.9198
12134TIP3    H257894   4.226   3.250  12.430  1.1219 -0.2742 -1.3296
12135TIP3   OH257895   3.504   2.119  40.363 -0.4841  0.0868  0.4848
12135TIP3    H157896   3.496   2.039  40.415  0.5809 -0.2319  0.1715
12135TIP3    H257897   3.505   2.089  40.272 -1.1124  0.5458  0.3147
12136TIP3   OH257898   4.295   0.979   6.500  0.0890  0.1672 -0.5696
12136TIP3    H157899   4.212   1.006   6.460 -0.5627  1.6028  1.5814
12136TIP3    H257900   4.270   0.912   6.564  0.6227  0.4469 -0.0655
12137TIP3   OH257901   2.317   3.873  13.278 -0.1367 -0.2978 -0.2186
12137TIP3    H157902   2.242   3.818  13.256  0.0824 -0.5161 -0.4185
12137TIP3    H257903   2.279   3.948  13.324 -0.3439 -1.1056  0.9622
12138TIP3   OH257904   3.113   2.689   5.270  0.0036 -0.1805  0.1003
12138TIP3    H157905   3.112   2.784   5.266 -0.4025 -0.2201 -1.3526
12138TIP3    H257906   3.189   2.664   5.216  0.6004 -0.6745  1.1325
12139TIP3   OH257907   1.680   0.356  14.483 -0.0090 -0.1872  0.4915
12139TIP3    H157908   1.775   0.352  14.474 -0.0176  0.7220 -0.1967
12139TIP3    H257909   1.664   0.359  14.577  0.5396 -2.0919  0.6831
12140TIP3   OH257910   0.546   3.260  40.433 -0.2551 -0.1997  0.1117
12140TIP3    H157911   0.529   3.168  40.455 -1.3335 -0.3663 -1.2599
12140TIP3    H257912   0.470   3.306  40.468 -1.4523 -0.3284 -2.1065
12141TIP3   OH257913   2.294   3.343   0.569  0.1103  0.3341 -0.0424
12141TIP3    H157914   2.230   3.330   0.639 -0.0601  0.8501 -0.0946
12141TIP3    H257915   2.274   3.275   0.505 -0.1646  0.2779  0.1009
12142TIP3   OH257916   1.033   3.017  36.205  0.3564 -0.0302  0.2889
12142TIP3    H157917   0.952   2.972  36.232 -1.2075  0.9581 -2.3617
12142TIP3    H257918   1.098   2.947  36.199 -0.7951 -1.1725  0.6624
12143TIP3   OH257919   2.992   2.639  31.575  0.7432 -0.1339  0.5475
12143TIP3    H157920   2.961   2.635  31.484  1.3269  0.6829  0.3053
12143TIP3    H257921   2.980   2.731  31.600  0.8002 -0.3067  1.2273
12144TIP3   OH257922   4.386   2.552  39.067 -0.5610 -0.0146 -0.2289
12144TIP3    H157923   4.410   2.579  38.978 -0.1721 -0.7848 -0.3656
12144TIP3    H257924   4.331   2.474  39.054  0.0871 -0.5559  0.2284
12145TIP3   OH257925   4.206   2.590   6.181 -0.2856 -0.1922  0.4889
12145TIP3    H157926   4.152   2.513   6.163 -2.4371  1.3834 -0.2012
12145TIP3    H257927   4.200   2.642   6.101  1.2465  0.6442  0.8843
12146TIP3   OH257928   3.330   0.732  30.370 -0.0339 -0.0063 -0.1537
12146TIP3    H157929   3.336   0.826  30.355 -0.6752  0.3827  1.7623
12146TIP3    H257930   3.241   0.718  30.400  0.2647 -1.1107  0.2817
12147TIP3   OH257931   1.391   3.827  38.253 -0.3788  0.2614 -0.3580
12147TIP3    H157932   1.390   3.831  38.157  1.5740  2.9521 -0.3723
12147TIP3    H257933   1.447   3.752  38.274 -1.1058 -0.5626 -1.2858
12148TIP3   OH257934   0.517   3.252   8.967 -0.3142 -0.3268  0.1496
12148TIP3    H157935   0.585   3.208   9.017 -0.8983 -2.2394 -0.6570
12148TIP3    H257936   0.564   3.315   8.912  0.6746 -0.8129  0.4290
12149TIP3   OH257937   0.801   0.953  38.898  0.0800  0.2267 -0.5896
12149TIP3    H157938   0.893   0.947  38.923 -0.6980  0.7330  2.9527
12149TIP3    H257939   0.792   1.041  38.860  0.7741  0.9070  0.7448
12150TIP3   OH257940   0.764   2.832  13.277  0.1626  0.1654  0.0803
12150TIP3    H157941   0.701   2.891  13.236  0.2515  0.6965  0.6883
12150TIP3    H257942   0.726   2.745  13.267 -0.3804  0.4183 -0.0808
12151TIP3   OH257943   4.267   2.566  26.171 -0.7484 -0.3591 -0.1734
12151TIP3    H157944   4.267   2.635  26.237  0.3506 -0.0602 -0.4650
12151TIP3    H257945   4.287   2.486  26.219  0.6748 -0.0495 -0.2003
12152TIP3   OH257946   3.122   0.763  39.422 -0.4117 -0.2685  0.1350
12152TIP3    H157947   3.173   0.812  39.356 -0.1226  0.4623  0.8841
12152TIP3    H257948   3.036   0.753  39.382 -0.0331 -0.4777 -0.6624
12153TIP3   OH257949   0.401   3.634  30.943  0.0991  0.0772  0.0638
12153TIP3    H157950   0.464   3.701  30.970 -0.6840  0.7176  0.3518
12153TIP3    H257951   0.400   3.639  30.848  0.6418 -0.0949  0.0434
12154TIP3   OH257952   3.281   2.358  37.894  0.2020 -0.1547 -0.2535
12154TIP3    H157953   3.307   2.267  37.883 -0.1735 -0.4160  0.8924
12154TIP3    H257954   3.360   2.401  37.928  0.1080 -0.2657  0.1167
12155TIP3   OH257955   0.381   3.510  10.510 -0.2005 -0.2379  0.1834
12155TIP3    H157956   0.332   3.581  10.469 -0.0171  0.1222  0.5763
12155TIP3    H257957   0.421   3.462  10.437 -0.0131  0.2942 -0.0652
12156TIP3   OH257958   3.039   3.769   4.668  0.4337 -0.2331  0.4385
12156TIP3    H157959   2.973   3.824   4.627 -0.6210  1.4091  4.0162
12156TIP3    H257960   3.088   3.732   4.594 -0.8764  2.9044 -2.2366
12157TIP3   OH257961   1.109   3.820  32.338  0.2346  0.7119 -0.2153
12157TIP3    H157962   1.109   3.914  32.320  0.3599  0.8853  0.6475
12157TIP3    H257963   1.078   3.780  32.257  1.7977  1.3774 -1.1890
12158TIP3   OH257964   1.120   2.844  40.028  0.3561  0.6765 -0.6700
12158TIP3    H157965   1.107   2.926  40.076 -3.0498  1.0438 -1.9074
12158TIP3    H257966   1.079   2.777  40.083 -0.0759  0.4442 -1.2612
12159TIP3   OH257967   2.157   4.176   5.321 -0.2714 -0.7531  0.0889
12159TIP3    H157968   2.142   4.124   5.243  2.0718 -0.5876 -0.5442
12159TIP3    H257969   2.079   4.232   5.328 -2.1328 -3.1561 -0.0770
12160TIP3   OH257970   3.383   1.226   9.516 -0.0592  0.7941  0.7689
12160TIP3    H157971   3.339   1.306   9.487 -1.5218 -0.0650  0.5086
12160TIP3    H257972   3.313   1.162   9.527  0.7598  0.1877  3.3028
12161TIP3   OH257973   2.961   1.908  12.636  0.0882  0.2363 -0.4218
12161TIP3    H157974   2.866   1.911  12.641  0.0983  2.5936  0.0153
12161TIP3    H257975   2.990   1.945  12.720  1.3634  0.0932 -0.7707
12162TIP3   OH257976   3.046   3.154  27.109 -0.1798  0.3360 -0.1179
12162TIP3    H157977   3.073   3.071  27.148  0.2611  0.2942 -0.5092
12162TIP3    H257978   2.961   3.172  27.149 -0.3375 -0.3658 -0.1201
12163TIP3   OH257979   0.245   3.977   6.103 -0.0009  0.5028  0.0594
12163TIP3    H157980   0.248   3.977   6.007 -1.4077  0.6945 -0.0119
12163TIP3    H257981   0.158   4.013   6.124 -0.4718 -1.2708  1.3594
12164TIP3   OH257982   1.663   3.109  30.511  0.2737 -0.6361 -0.5524
12164TIP3    H157983   1.750   3.119  30.547 -0.0615  0.3871 -0.0176
12164TIP3    H257984   1.618   3.191  30.531  0.2190  0.2504 -3.7251
12165TIP3   OH257985   2.013   0.036  30.153  0.3500  0.1232  0.3777
12165TIP3    H157986   1.949   0.052  30.084 -0.7127  0.9876  1.5199
12165TIP3    H257987   1.968  -0.022  30.214  2.1070 -2.6631 -0.7571
12166TIP3   OH257988   0.833   2.972  34.338 -0.2508  0.7019 -0.3679
12166TIP3    H157989   0.858   3.034  34.406  2.3264  0.5860 -1.1153
12166TIP3    H257990   0.837   3.022  34.257  0.1727 -0.0104 -0.7976
12167TIP3   OH257991   1.358   1.861  33.312 -0.0996  0.1683 -0.1862
12167TIP3    H157992   1.314   1.880  33.395  1.4947 -0.6150  0.8815
12167TIP3    H257993   1.349   1.766  33.302  0.4391  0.1483 -0.4789
12168TIP3   OH257994   2.172   3.006  35.181  0.4574  0.3226  0.2911
12168TIP3    H157995   2.098   3.019  35.240 -0.4606 -0.8978 -0.5155
12168TIP3    H257996   2.166   3.077  35.118  0.1201  0.3801  0.3874
12169TIP3   OH257997   2.973   2.901  40.989  0.6920  0.8226 -0.7419
12169TIP3    H157998   2.987   2.994  40.974  3.8252  0.7588  0.8774
12169TIP3    H257999   2.887   2.896  41.029 -0.3831  2.7481 -2.6062
12170TIP3   OH258000   3.410   3.873   1.834  0.1796  0.1004  0.2205
12170TIP3    H158001   3.322   3.872   1.872 -0.2647 -2.0735 -0.6736
12170TIP3    H258002   3.396   3.852   1.742  1.6813 -1.9623  0.3764
12171TIP3   OH258003   3.699   2.084   4.422  0.4097  0.2868 -0.0291
12171TIP3    H158004   3.633   2.018   4.402 -0.6063  1.0069  0.8274
12171TIP3    H258005   3.757   2.084   4.346  1.0023 -2.2488  0.3437
12172TIP3   OH258006   1.584   3.706  16.339  0.3578 -0.6626  0.3677
12172TIP3    H158007   1.500   3.696  16.294 -0.8368  1.1119  2.0691
12172TIP3    H258008   1.586   3.634  16.402 -0.2622 -0.2544  0.8588
12173TIP3   OH258009   2.589   2.981  34.481  0.0413  0.3434  0.2699
12173TIP3    H158010   2.502   2.998  34.517 -0.3024  1.7186 -1.1091
12173TIP3    H258011   2.579   2.899  34.433 -1.1242  1.5890 -1.7226
12174TIP3   OH258012   1.861   2.688  34.781 -0.3911 -0.3238 -0.5176
12174TIP3    H158013   1.804   2.743  34.729  0.4434  0.9128 -0.1652
12174TIP3    H258014   1.909   2.749  34.837 -0.6907 -1.5358  1.1473
12175TIP3   OH258015   2.031   3.106  15.866  0.3518  0.2036  0.6085
12175TIP3    H158016   2.007   3.027  15.915 -0.7279  0.9898  1.3637
12175TIP3    H258017   2.081   3.158  15.928 -0.0306  0.6870  0.5145
12176TIP3   OH258018   0.089   3.449   2.334  0.5548 -0.3727  0.3141
12176TIP3    H158019   0.008   3.453   2.384 -0.4390 -0.2753 -1.2229
12176TIP3    H258020   0.065   3.480   2.247  1.7522 -2.3104 -0.7889
12177TIP3   OH258021   0.726   1.633  32.796  0.1221  0.3574 -0.0563
12177TIP3    H158022   0.635   1.664  32.798  0.0555  0.4741 -2.2961
12177TIP3    H258023   0.778   1.713  32.808 -0.0274  0.2373  1.6431
12178TIP3   OH258024   0.251   1.509   7.833 -0.0901 -0.1860  0.4287
12178TIP3    H158025   0.172   1.509   7.887  0.3011  0.0324  1.0248
12178TIP3    H258026   0.244   1.431   7.778  0.3768 -1.5029  2.1432
12179TIP3   OH258027   2.955   0.866   4.446  0.1548 -0.0283 -0.1133
12179TIP3    H158028   2.899   0.863   4.524  1.0640 -0.0880  0.5611
12179TIP3    H258029   3.024   0.928   4.470  1.3805 -1.3016 -0.2206
12180TIP3   OH258030   2.436   4.118  30.062  0.1077 -0.3493  0.0980
12180TIP3    H158031   2.463   4.208  30.079  0.4744 -0.3430 -0.4946
12180TIP3    H258032   2.340   4.121  30.067  0.1757 -0.4782  2.7425
12181TIP3   OH258033   2.200   4.020   6.673 -0.0923  0.5286  0.1859
12181TIP3    H158034   2.267   4.055   6.731  0.7801  0.8388 -0.9843
12181TIP3    H258035   2.223   3.927   6.664 -1.7619 -0.2060  2.3931
12182TIP3   OH258036   2.775   4.250  37.796  0.1613 -0.4033 -0.4279
12182TIP3    H158037   2.855   4.197  37.794 -0.0498 -0.7186 -0.4914
12182TIP3    H258038   2.793   4.322  37.736  1.4168  1.0024  1.4735
12183TIP3   OH258039   0.120   0.573  38.400 -1.1635  0.0107 -0.5733
12183TIP3    H158040   0.120   0.585  38.305 -0.1776 -0.3471 -0.6360
12183TIP3    H258041   0.060   0.500  38.416 -0.8080 -0.3797 -0.9955
12184TIP3   OH258042   0.949   0.916  29.799 -0.3266 -0.6623  0.0861
12184TIP3    H158043   0.989   0.877  29.877  0.9470  1.1592  0.4179
12184TIP3    H258044   1.004   0.887  29.726 -0.2443 -0.6476  0.1433
12185TIP3   OH258045   0.722   2.996   0.923  1.1967  0.4785 -0.0830
12185TIP3    H158046   0.721   2.927   0.990  2.0409  0.4493 -0.0791
12185TIP3    H258047   0.657   2.969   0.859  0.0033  0.7627  0.9737
12186TIP3   OH258048   3.233   2.061  30.015 -0.1966 -0.7574  0.2458
12186TIP3    H158049   3.315   2.065  30.064  1.0050 -0.1006 -1.7552
12186TIP3    H258050   3.233   2.139  29.960 -1.7233 -1.2465 -0.5095
12187TIP3   OH258051   0.660   2.486  32.861  0.7541 -0.4053 -0.1993
12187TIP3    H158052   0.668   2.580  32.879 -0.8984  0.3026 -2.5541
12187TIP3    H258053   0.569   2.465  32.880  0.8151 -1.2494 -0.7648
12188TIP3   OH258054   1.331   2.673   9.170  0.1228  0.1247 -0.3394
12188TIP3    H158055   1.293   2.695   9.085 -2.2939  2.1118  1.1411
12188TIP3    H258056   1.304   2.582   9.185  1.0482 -0.4545 -1.8512
12189TIP3   OH258057   1.777   3.105  38.214 -0.6099  0.5076 -0.1240
12189TIP3    H158058   1.860   3.112  38.167 -0.3488  0.0831  0.2692
12189TIP3    H258059   1.711   3.134  38.150 -0.2233  0.2677 -0.6374
12190TIP3   OH258060   1.245   0.534  38.364  0.3175  0.3033 -0.2261
12190TIP3    H158061   1.210   0.616  38.330  0.1675  0.5403  0.4676
12190TIP3    H258062   1.295   0.496  38.292 -2.4823 -0.7323 -1.7517
12191TIP3   OH258063   1.398   2.798   1.313 -0.4716 -0.8134  0.5667
12191TIP3    H158064   1.307   2.776   1.290 -1.2986  1.2861  1.6454
12191TIP3    H258065   1.397   2.892   1.327  1.9956 -0.6899  0.2366
12192TIP3   OH258066   3.462   1.790  26.938  0.0228  0.5222 -0.5167
12192TIP3    H158067   3.533   1.736  26.973  0.3004  1.9079  1.1974
12192TIP3    H258068   3.502   1.840  26.867  0.2588 -0.0999 -0.8265
12193TIP3   OH258069   3.909   2.426  26.577  0.3239  0.5589 -0.2280
12193TIP3    H158070   3.915   2.386  26.663  0.6422  1.4553  0.1813
12193TIP3    H258071   3.815   2.421  26.555  0.4183 -0.7883 -0.4000
12194TIP3   OH258072   0.290   0.681  36.074 -0.2851  0.3150 -0.2880
12194TIP3    H158073   0.196   0.663  36.073 -0.0999 -0.6767 -0.9208
12194TIP3    H258074   0.319   0.650  36.160 -0.3095 -0.6566 -0.6199
12195TIP3   OH258075   2.359   2.206   8.719 -0.6100 -0.3179 -0.6308
12195TIP3    H158076   2.312   2.224   8.801 -0.2184 -1.2018 -0.2000
12195TIP3    H258077   2.450   2.195   8.745 -0.3857 -0.0090 -1.2708
12196TIP3   OH258078   3.683   3.864   8.842 -0.1096 -0.2484 -0.2594
12196TIP3    H158079   3.633   3.830   8.916  0.1825 -1.0239 -0.4125
12196TIP3    H258080   3.619   3.868   8.770  0.3283 -2.5851 -0.8503
12197TIP3   OH258081   3.356   2.596  35.570  0.0207 -0.0555 -0.0241
12197TIP3    H158082   3.323   2.680  35.537  2.3978  0.6252 -0.8634
12197TIP3    H258083   3.451   2.606  35.570  0.4024 -2.8771 -0.4592
12198TIP3   OH258084   3.412   2.476  37.155 -0.1379 -0.1476 -0.4129
12198TIP3    H158085   3.324   2.441  37.145  0.1662 -1.2064  0.4152
12198TIP3    H258086   3.455   2.458  37.071 -0.9710  1.2205 -1.1600
12199TIP3   OH258087   3.527   4.176  12.981 -0.7680 -0.2070 -0.8883
12199TIP3    H158088   3.517   4.141  12.893 -1.8538 -0.5014 -0.6614
12199TIP3    H258089   3.621   4.178  12.996 -0.5807 -0.3057 -1.9894
12200TIP3   OH258090   1.470   3.573   0.973 -0.4884  0.3309  0.1145
12200TIP3    H158091   1.402   3.609   0.916 -1.7277  0.2379  1.4827
12200TIP3    H258092   1.426   3.504   1.022  1.0928 -1.0630 -0.3084
12201TIP3   OH258093   0.439   2.460   4.310  0.1339 -0.3625  0.8113
12201TIP3    H158094   0.519   2.489   4.354  0.0740  1.4559 -0.1788
12201TIP3    H258095   0.457   2.473   4.217 -0.7667 -1.4402  0.4666
12202TIP3   OH258096   1.511   2.100  39.031 -0.1616 -0.5729 -0.1811
12202TIP3    H158097   1.509   2.162  39.104 -0.7490 -0.8731  0.0637
12202TIP3    H258098   1.555   2.023  39.066  1.0453 -0.1252 -0.6396
12203TIP3   OH258099   2.069   0.171   1.383  0.3858 -0.6409  0.3474
12203TIP3    H158100   2.162   0.146   1.385  0.4308 -0.6150 -0.8143
12203TIP3    H258101   2.040   0.149   1.294  0.2669  2.7888 -0.6246
12204TIP3   OH258102   3.449   0.123  40.795 -0.1549  0.9470 -0.3383
12204TIP3    H158103   3.496   0.168  40.866  2.0352  2.0707 -2.3307
12204TIP3    H258104   3.451   0.031  40.820  1.0080  1.2501  0.8459
12205TIP3   OH258105   2.882   3.233  37.657 -0.2695 -0.0389 -0.1823
12205TIP3    H158106   2.842   3.271  37.735  1.6711 -1.3916  1.5680
12205TIP3    H258107   2.899   3.142  37.681  0.7109 -0.3877 -2.0641
12206TIP3   OH258108   3.040   1.951   3.641  0.1132 -0.2655 -0.2017
12206TIP3    H158109   3.082   1.874   3.604  1.4310  0.0921  0.4649
12206TIP3    H258110   3.112   2.001   3.680 -0.6729  1.3480 -0.6849
12207TIP3   OH258111   4.040   0.574  12.751 -0.5771 -0.6184 -0.1250
12207TIP3    H158112   4.072   0.536  12.669  0.4391 -1.6258  0.6963
12207TIP3    H258113   3.976   0.512  12.784 -1.3147  0.0051 -0.3681
12208TIP3   OH258114   2.395   1.127  11.199 -1.0626 -0.0695 -0.3012
12208TIP3    H158115   2.426   1.154  11.285 -0.2437 -0.2098 -0.5363
12208TIP3    H258116   2.327   1.190  11.176 -0.7501  0.4264  0.1190
12209TIP3   OH258117   2.534   0.315  11.331  0.1043  0.6228 -0.0490
12209TIP3    H158118   2.481   0.387  11.368  0.5852  0.6039  0.6984
12209TIP3    H258119   2.565   0.267  11.408  1.7297  0.9968 -0.4382
12210TIP3   OH258120   0.702   2.722   8.479  0.1319 -0.4999 -0.8083
12210TIP3    H158121   0.756   2.656   8.434  0.5185 -0.4485 -0.4267
12210TIP3    H258122   0.745   2.734   8.564  0.7403  1.0889 -1.3002
12211TIP3   OH258123   3.130   2.161  30.568 -0.3882 -0.0066 -0.6581
12211TIP3    H158124   3.134   2.256  30.564  1.5773 -0.0377 -0.2387
12211TIP3    H258125   3.125   2.132  30.477  0.9101  0.4619 -0.8932
12212TIP3   OH258126   0.241   0.120  35.522  0.4599  0.5285 -0.0863
12212TIP3    H158127   0.238   0.102  35.615 -0.1426 -0.7281 -0.3264
12212TIP3    H258128   0.318   0.072  35.491  1.9759  2.7121  0.0836
12213TIP3   OH258129   4.097   4.339  10.839 -0.8735  0.3646 -0.0627
12213TIP3    H158130   4.091   4.255  10.794 -0.1188  0.4786 -0.3931
12213TIP3    H258131   4.035   4.395  10.792 -1.0928  0.1047 -0.0874
12214TIP3   OH258132   3.096   4.217  27.516 -0.2025 -0.2282 -0.5407
12214TIP3    H158133   3.183   4.179  27.512 -0.2057 -0.3595  0.3611
12214TIP3    H258134   3.091   4.257  27.603 -1.2236 -0.6899 -0.3622
12215TIP3   OH258135   3.331   2.020   1.591 -0.2703 -0.4645 -0.1690
12215TIP3    H158136   3.296   1.969   1.518  1.2280  1.5420 -2.4251
12215TIP3    H258137   3.420   1.986   1.604 -0.3006 -0.3719  0.3177
12216TIP3   OH258138   1.995   0.587  40.989 -0.2359 -0.3113 -0.5391
12216TIP3    H158139   1.962   0.616  41.074  1.6678  0.4046  0.0035
12216TIP3    H258140   1.943   0.635  40.925  0.2734  1.4273  0.2970
12217TIP3   OH258141   2.663   4.252  33.230 -0.4561  0.3797  0.2357
12217TIP3    H158142   2.737   4.272  33.171  0.6266  0.5983  1.6198
12217TIP3    H258143   2.633   4.338  33.261  2.1242  0.2660  3.6758
12218TIP3   OH258144   3.514   2.631  12.829 -0.7874 -0.3772 -0.2993
12218TIP3    H158145   3.583   2.689  12.860 -0.7983 -0.1607 -0.6843
12218TIP3    H258146   3.489   2.665  12.744 -0.3448 -1.3149 -0.8286
12219TIP3   OH258147   1.227   2.050  37.828  0.6015 -0.0206  0.4807
12219TIP3    H158148   1.133   2.039  37.816  0.5217  1.5105 -0.6073
12219TIP3    H258149   1.254   1.974  37.879 -1.4577  0.2152  2.0615
12220TIP3   OH258150   0.990   1.693  36.286 -0.4239  0.9890 -0.0096
12220TIP3    H158151   0.912   1.642  36.262  0.2652  0.0005 -0.2294
12220TIP3    H258152   0.956   1.778  36.314 -1.6997  0.0594  1.3891
12221TIP3   OH258153   0.697   3.071  39.004 -0.3777  0.1716 -0.0012
12221TIP3    H158154   0.742   3.003  39.055  0.5796  0.5963 -0.2729
12221TIP3    H258155   0.638   3.113  39.067 -1.3913 -1.2368  0.0593
12222TIP3   OH258156   3.168   4.272  27.772  0.1287  0.0316 -0.0117
12222TIP3    H158157   3.134   4.268  27.862 -2.5401 -2.5047 -0.9870
12222TIP3    H258158   3.262   4.287  27.783  0.3352 -2.5719  3.3697
12223TIP3   OH258159   4.059   1.605  12.129 -0.3999  0.2826  0.4547
12223TIP3    H158160   4.082   1.690  12.092  0.5773  0.1302  0.6960
12223TIP3    H258161   4.130   1.585  12.190 -1.0785 -0.2907  1.0776
12224TIP3   OH258162   0.824   1.935  35.583 -0.5482 -0.2178  0.0532
12224TIP3    H158163   0.783   2.013  35.546 -0.4978 -0.3100 -0.1964
12224TIP3    H258164   0.755   1.896  35.638  0.1391  1.2559  2.0748
12225TIP3   OH258165   4.360   2.359  36.189  0.1304  0.0604  0.7837
12225TIP3    H158166   4.328   2.330  36.274  0.4550 -0.3879  0.7588
12225TIP3    H258167   4.455   2.362  36.199  0.4474 -2.8979 -0.4080
12226TIP3   OH258168   1.861   0.119  31.363  0.1277  0.2946 -0.1229
12226TIP3    H158169   1.862   0.034  31.406  0.2569  0.1315 -0.4432
12226TIP3    H258170   1.885   0.100  31.272 -0.2574  0.6166 -0.2952
12227TIP3   OH258171   3.984   1.789  36.177 -0.3446 -0.3304  0.0082
12227TIP3    H158172   4.045   1.806  36.249 -0.7500 -2.0698  0.8136
12227TIP3    H258173   4.009   1.703  36.144 -0.5194  0.2025 -1.6101
12228TIP3   OH258174   1.727   3.576   3.623  0.3287  0.4468  0.1229
12228TIP3    H158175   1.778   3.655   3.602  1.8645 -0.8702 -1.3702
12228TIP3    H258176   1.741   3.564   3.717 -1.7693  3.1241  0.9221
12229TIP3   OH258177   1.527   3.969   0.687  0.0780 -0.4730  0.2610
12229TIP3    H158178   1.584   4.043   0.664  0.5311  0.4975  3.8607
12229TIP3    H258179   1.588   3.898   0.706 -0.3036 -1.4566 -1.9701
12230TIP3   OH258180   4.386   1.009  22.693  0.2377  0.3120 -0.2715
12230TIP3    H158181   4.402   1.059  22.614  0.9284  0.8266  0.1795
12230TIP3    H258182   4.356   0.923  22.662  0.4193  0.5325 -1.0744
12231TIP3   OH258183   1.339   3.004  12.006  0.0530 -0.0032 -0.5054
12231TIP3    H158184   1.397   3.024  11.933  1.9726 -0.7158  0.7663
12231TIP3    H258185   1.391   3.022  12.084 -0.7662 -2.4458  0.6952
12232TIP3   OH258186   3.930   0.590  35.055 -0.1880  0.1309 -0.0928
12232TIP3    H158187   3.994   0.592  35.126 -0.2076 -1.3136 -0.0005
12232TIP3    H258188   3.979   0.621  34.978  0.0361  1.0061  0.4003
12233TIP3   OH258189   3.004   2.967  35.651 -0.3037 -0.4692  0.5772
12233TIP3    H158190   3.010   3.055  35.689 -1.9482  0.8381 -1.9097
12233TIP3    H258191   2.910   2.947  35.653 -0.1772 -1.2760 -0.7076
12234TIP3   OH258192   2.612   2.667  34.460  0.0412  0.2989  0.2902
12234TIP3    H158193   2.602   2.658  34.366 -1.4295 -1.1293  0.5442
12234TIP3    H258194   2.573   2.587  34.497 -1.6052  1.8633  2.1965
12235TIP3   OH258195   2.605   3.074  12.691 -0.3778 -0.1135 -0.4267
12235TIP3    H158196   2.517   3.100  12.719 -0.5952 -0.2376 -0.9857
12235TIP3    H258197   2.642   3.030  12.767 -0.9828 -0.5020 -0.3513
12236TIP3   OH258198   2.370   3.816   4.364  0.3464 -0.0675 -0.0184
12236TIP3    H158199   2.464   3.806   4.383  0.5070 -0.4653 -0.9872
12236TIP3    H258200   2.366   3.832   4.270 -0.4232  2.1138  0.3267
12237TIP3   OH258201   0.266   2.282  11.421  0.4071  0.1015 -0.2493
12237TIP3    H158202   0.338   2.231  11.384  1.2503  0.4974  0.7976
12237TIP3    H258203   0.193   2.220  11.427  1.3204 -0.9290  0.7144
12238TIP3   OH258204   4.081   0.656  31.389 -0.1352 -0.0629 -0.4497
12238TIP3    H158205   4.153   0.644  31.450 -0.6518  0.0185  0.1864
12238TIP3    H258206   4.062   0.568  31.356 -0.8634 -0.3553  0.6886
12239TIP3   OH258207   2.305   2.583  41.453  0.0689  0.3237 -0.4339
12239TIP3    H158208   2.287   2.621  41.539  1.7510 -0.4070  0.2897
12239TIP3    H258209   2.277   2.651  41.391  1.4111  2.0851  0.7675
12240TIP3   OH258210   0.031   3.908   5.861  0.5384  0.0207  0.1435
12240TIP3    H158211   0.078   3.825   5.866 -1.9528 -1.4261  3.6689
12240TIP3    H258212   0.065   3.961   5.933  0.6048  1.2626 -0.7562
12241TIP3   OH258213   2.434   3.762   2.705 -0.0279  0.0944 -0.4686
12241TIP3    H158214   2.414   3.754   2.799  2.5006 -3.2592 -0.0240
12241TIP3    H258215   2.386   3.689   2.665 -0.7738  1.2726 -1.8007
12242TIP3   OH258216   2.631   2.918  10.179 -0.1442 -0.1379 -0.3470
12242TIP3    H158217   2.724   2.922  10.201  0.0273  1.8121 -1.2030
12242TIP3    H258218   2.627   2.864  10.100  0.1528 -0.8427  0.1092
12243TIP3   OH258219   2.437   0.556  32.961  0.0312  0.4492  0.5265
12243TIP3    H158220   2.381   0.506  32.902  0.4169  0.3583  0.2365
12243TIP3    H258221   2.459   0.635  32.912 -0.3112  0.7529  0.8612
12244TIP3   OH258222   3.883   1.426  29.716 -0.3909  0.1194  0.0827
12244TIP3    H158223   3.956   1.478  29.681 -1.6639  1.8474 -0.0986
12244TIP3    H258224   3.807   1.452  29.664 -1.1950 -1.6035  0.3015
12245TIP3   OH258225   3.774   1.961  29.038  0.5499  0.1333 -0.2553
12245TIP3    H158226   3.781   1.922  29.125  0.0921  3.3037  1.3351
12245TIP3    H258227   3.683   1.989  29.032 -0.0215 -1.8778 -2.7303
12246TIP3   OH258228   4.310   1.524   0.609  0.1203  0.0928  0.0679
12246TIP3    H158229   4.399   1.556   0.592 -0.5885  1.9970 -0.2949
12246TIP3    H258230   4.303   1.520   0.704  0.6439 -0.2480  0.0944
12247TIP3   OH258231   3.829   3.178   7.576 -0.4856 -0.2413 -0.3131
12247TIP3    H158232   3.804   3.132   7.656  0.8701  0.7143  0.6947
12247TIP3    H258233   3.839   3.269   7.602 -1.0783  0.2841 -1.8211
12248TIP3   OH258234   2.840   0.126   2.695  0.0576  0.1866  0.3523
12248TIP3    H158235   2.812   0.160   2.610 -1.3726 -0.3656  0.5795
12248TIP3    H258236   2.773   0.063   2.719  0.4880  0.2679  1.8670
12249TIP3   OH258237   1.242   3.539  13.837 -0.2383 -0.2051 -0.4296
12249TIP3    H158238   1.291   3.470  13.881  0.4723  0.7009  0.2443
12249TIP3    H258239   1.308   3.605  13.816 -0.5640 -0.5240 -2.7365
12250TIP3   OH258240   1.316   2.792  15.866  0.2726 -0.9777  0.3261
12250TIP3    H158241   1.294   2.716  15.812  0.6969  0.0888 -1.4299
12250TIP3    H258242   1.233   2.819  15.905 -0.1327 -1.5285 -0.1396
12251TIP3   OH258243   1.194   0.103  35.695  0.0394 -0.5730  0.0157
12251TIP3    H158244   1.111   0.079  35.738 -0.5734 -0.9366 -1.3197
12251TIP3    H258245   1.171   0.173  35.635  1.4016  1.8714  2.1702
12252TIP3   OH258246   0.345   4.196  29.722  0.2769 -0.5780 -0.3595
12252TIP3    H158247   0.336   4.146  29.640 -0.4572 -0.3137 -0.4469
12252TIP3    H258248   0.429   4.241  29.714  0.4498 -0.9638 -0.7440
12253TIP3   OH258249   1.501   0.736  39.506  0.9485  0.3363 -0.0915
12253TIP3    H158250   1.595   0.744  39.492  1.4450 -0.4400  2.2916
12253TIP3    H258251   1.488   0.646  39.535  0.0612  1.2973  2.9509
12254TIP3   OH258252   3.188   2.339  37.051 -0.2377  0.0817  0.2443
12254TIP3    H158253   3.181   2.362  36.959  0.2906  1.8907  0.6188
12254TIP3    H258254   3.103   2.299  37.072 -0.7978  0.7156 -0.7449
12255TIP3   OH258255   3.751   1.443  31.992  0.3095  0.4666 -0.1242
12255TIP3    H158256   3.810   1.472  31.923  0.4516  0.2151 -0.1060
12255TIP3    H258257   3.735   1.351  31.974 -0.6863  0.7066 -0.5760
12256TIP3   OH258258   2.636   0.608  38.203 -0.4051 -0.0132  0.2540
12256TIP3    H158259   2.648   0.660  38.123  0.8768 -1.1574 -0.3302
12256TIP3    H258260   2.659   0.668  38.274  0.5284  0.3999 -0.3731
12257TIP3   OH258261   1.272   3.588  32.753 -0.5663  0.3014 -0.0467
12257TIP3    H158262   1.303   3.506  32.715 -0.7336  0.4353 -0.4776
12257TIP3    H258263   1.253   3.643  32.677 -0.1154  0.8637  0.2397
12258TIP3   OH258264   4.298   1.075   3.437  0.3067 -0.2323 -0.2270
12258TIP3    H158265   4.390   1.052   3.448  0.5044  1.1980  1.4511
12258TIP3    H258266   4.250   1.000   3.472  0.7974 -1.0500 -1.2492
12259TIP3   OH258267   1.633   1.103   0.963  0.1037 -0.0949 -0.4402
12259TIP3    H158268   1.547   1.130   0.932 -0.6567 -1.3718  0.4591
12259TIP3    H258269   1.685   1.093   0.883 -0.4247  1.1282 -0.9612
12260TIP3   OH258270   2.817   3.530   4.545 -0.1985  0.0304 -0.0954
12260TIP3    H158271   2.883   3.529   4.476 -0.1137  0.1680 -0.0160
12260TIP3    H258272   2.868   3.531   4.627 -0.2658 -2.0373  0.0245
12261TIP3   OH258273   1.313   2.239  11.921 -0.2229 -0.0652 -0.8066
12261TIP3    H158274   1.226   2.278  11.920  0.0650  0.6767  0.4808
12261TIP3    H258275   1.345   2.253  12.010  1.9523  1.4104 -1.6953
12262TIP3   OH258276   2.491   4.378   2.040  0.1419 -0.0836 -0.1209
12262TIP3    H158277   2.463   4.296   1.999 -1.8634  1.0529 -1.2072
12262TIP3    H258278   2.413   4.410   2.085  0.7401  1.4682 -0.1431
12263TIP3   OH258279   1.999   1.519   2.327 -0.0920 -0.0500  0.4087
12263TIP3    H158280   2.010   1.482   2.414  0.7031 -1.1709 -0.1374
12263TIP3    H258281   1.905   1.508   2.308  0.2418 -2.7910 -0.0961
12264TIP3   OH258282   2.168   2.083  10.360 -0.1549 -0.3784  0.2186
12264TIP3    H158283   2.229   2.012  10.339  1.7181  1.4920 -1.0270
12264TIP3    H258284   2.131   2.058  10.444  2.7721 -1.3680  1.3403
12265TIP3   OH258285   3.889   3.992   3.293  0.1667 -0.1053 -0.1937
12265TIP3    H158286   3.864   3.901   3.274  1.4390 -0.5687  0.1962
12265TIP3    H258287   3.983   3.987   3.309  0.0859  1.1408  0.7901
12266TIP3   OH258288   0.547   4.118   9.281  0.6188 -0.3737  0.6645
12266TIP3    H158289   0.583   4.202   9.308  2.1095 -0.8418  0.1978
12266TIP3    H258290   0.503   4.084   9.359  2.1455 -0.2962  1.5845
12267TIP3   OH258291   0.872   3.059  33.986 -0.1382  0.6831  0.3486
12267TIP3    H158292   0.865   3.095  33.897  0.2587 -1.1093 -0.4746
12267TIP3    H258293   0.878   2.964  33.972 -0.8762  0.2895  2.3470
12268TIP3   OH258294   3.254   3.706  29.807 -0.2819  0.1090  0.8147
12268TIP3    H158295   3.167   3.679  29.836 -1.5254  0.9626 -1.7505
12268TIP3    H258296   3.272   3.785  29.858 -1.1259  0.0412  1.2433
12269TIP3   OH258297   3.753   2.260  30.674  0.1144 -0.0851  0.3973
12269TIP3    H158298   3.815   2.188  30.660 -0.0430 -0.3964  1.2259
12269TIP3    H258299   3.788   2.307  30.750  0.2142  0.7248 -0.1381
12270TIP3   OH258300   1.246   0.609   5.621 -0.3669  0.0658 -0.0412
12270TIP3    H158301   1.243   0.705   5.622  0.6804  0.1323  2.4258
12270TIP3    H258302   1.337   0.588   5.638 -0.8447 -1.3803  0.8549
12271TIP3   OH258303   1.585   2.151  17.541  0.1399  0.3760  0.0967
12271TIP3    H158304   1.545   2.116  17.461 -0.8399  1.4944  0.0542
12271TIP3    H258305   1.546   2.101  17.612  1.2643 -0.8501 -0.1162
12272TIP3   OH258306   1.480   4.356  33.931 -0.1725  0.4439  0.3621
12272TIP3    H158307   1.415   4.344  34.001  0.2156  0.0718  0.6632
12272TIP3    H258308   1.449   4.301  33.859 -0.0701  0.0840  0.5904
12273TIP3   OH258309   3.538   2.052  30.674 -0.0422 -0.8527  0.6086
12273TIP3    H158310   3.597   2.127  30.661  0.7277 -1.7660 -1.7976
12273TIP3    H258311   3.496   2.069  30.758  0.6105  1.9186  0.4856
12274TIP3   OH258312   0.711   2.766   1.660  0.1852  0.1568  0.2305
12274TIP3    H158313   0.777   2.826   1.625 -0.9137  0.8170 -0.8047
12274TIP3    H258314   0.731   2.682   1.620  0.0522  0.4900 -0.5475
12275TIP3   OH258315   1.104   2.030  13.534  0.4264 -0.9774  0.7480
12275TIP3    H158316   1.148   2.115  13.544 -1.1530 -0.0801  0.4521
12275TIP3    H258317   1.158   1.983  13.470  0.5391  0.4077 -0.2366
12276TIP3   OH258318   2.617   1.659  36.366  0.5199 -0.6732 -0.7450
12276TIP3    H158319   2.705   1.690  36.344  1.5918 -3.6296 -1.0416
12276TIP3    H258320   2.627   1.620  36.453 -1.0795  0.8596  0.1966
12277TIP3   OH258321   2.241   2.857   3.154 -0.4673 -0.0201  1.2586
12277TIP3    H158322   2.153   2.855   3.116  0.0886  2.2278 -0.3620
12277TIP3    H258323   2.298   2.821   3.085  0.1056  0.3136  1.5499
12278TIP3   OH258324   3.896   4.138   8.271 -0.2636 -0.3194  0.2070
12278TIP3    H158325   3.806   4.150   8.239  0.5639 -1.9196 -3.1979
12278TIP3    H258326   3.912   4.044   8.264  2.3134  0.1383 -1.3490
12279TIP3   OH258327   3.857   2.232   5.926  0.1779 -1.2409 -0.8052
12279TIP3    H158328   3.765   2.257   5.939  0.6098 -0.7751  1.9067
12279TIP3    H258329   3.857   2.137   5.936  0.0423 -1.1846 -0.2021
12280TIP3   OH258330   4.350   2.235  29.750 -0.7819  0.2718 -0.0950
12280TIP3    H158331   4.380   2.209  29.663 -2.4608  0.9637 -0.9279
12280TIP3    H258332   4.266   2.191  29.761 -0.3245 -0.3094  1.4703
12281TIP3   OH258333   2.495   1.826  41.624 -0.1661 -0.1896  0.8814
12281TIP3    H158334   2.562   1.803  41.688  1.0386 -0.5317 -0.4417
12281TIP3    H258335   2.530   1.904  41.580  0.5865 -1.7327 -1.4605
12282TIP3   OH258336   3.695   0.509   6.542 -0.0492 -0.2561  0.1679
12282TIP3    H158337   3.641   0.499   6.464  1.8160 -0.0068 -1.2437
12282TIP3    H258338   3.767   0.566   6.514  0.3101  0.4247  2.2923
12283TIP3   OH258339   3.319   3.385   5.586 -0.4037 -0.1431 -0.0113
12283TIP3    H158340   3.397   3.348   5.628 -0.2296 -0.3508 -0.5051
12283TIP3    H258341   3.246   3.352   5.638 -0.2984 -1.7445 -0.8187
12284TIP3   OH258342   1.464   3.793   1.754  0.1433  0.1525  0.1414
12284TIP3    H158343   1.382   3.763   1.793 -0.6101 -1.0052 -2.1931
12284TIP3    H258344   1.529   3.782   1.824 -1.0351 -2.2177  0.9544
12285TIP3   OH258345   4.374   0.263  26.659  0.4081 -0.2396  0.3182
12285TIP3    H158346   4.360   0.295  26.749  0.2997 -0.6126  0.4373
12285TIP3    H258347   4.430   0.186  26.669  1.4519  0.4493 -0.0489
12286TIP3   OH258348   3.446   2.718  28.269 -0.4762  0.3145 -0.0195
12286TIP3    H158349   3.398   2.679  28.342 -0.8998  2.4401  0.9169
12286TIP3    H258350   3.422   2.664  28.193 -2.1413 -0.3602  0.9240
12287TIP3   OH258351   4.147   3.022  13.708  0.2157 -0.0185  0.0770
12287TIP3    H158352   4.070   3.062  13.667 -1.2302 -1.6519  1.0484
12287TIP3    H258353   4.166   2.946  13.653 -0.6263 -1.1941  1.3475
12288TIP3   OH258354   0.662   3.567  10.955  0.8395  0.3879 -0.4261
12288TIP3    H158355   0.681   3.491  10.900  0.1449 -0.1148  0.0196
12288TIP3    H258356   0.734   3.628  10.936  1.8693 -0.7052 -0.1615
12289TIP3   OH258357   2.413   3.978  32.943  0.4732  0.2174 -0.8937
12289TIP3    H158358   2.365   3.894  32.943 -0.9924  1.0116  0.1376
12289TIP3    H258359   2.462   3.978  33.025 -0.5864  0.9041 -0.2302
12290TIP3   OH258360   1.750   0.813  34.626 -0.1263 -0.1291  0.0751
12290TIP3    H158361   1.767   0.873  34.698  1.0956 -0.8616  0.4201
12290TIP3    H258362   1.796   0.850  34.551  0.2887 -0.4167  0.1861
12291TIP3   OH258363   1.120   3.848  13.011  0.4893 -0.2122 -0.0269
12291TIP3    H158364   1.160   3.827  13.095  2.3350 -0.3004 -0.8726
12291TIP3    H258365   1.026   3.842  13.027  0.7174 -4.3858  1.0390
12292TIP3   OH258366   0.239   2.053  36.082 -0.8480  0.1375  0.1611
12292TIP3    H158367   0.192   2.099  36.013  1.0206  1.7193 -0.1548
12292TIP3    H258368   0.326   2.093  36.083 -0.9574  0.7060  3.9019
12293TIP3   OH258369   2.710   1.351  28.671  0.0008  0.2372  0.0773
12293TIP3    H158370   2.625   1.311  28.689 -0.9563  1.9451 -0.4811
12293TIP3    H258371   2.696   1.407  28.594  2.6108 -2.4842 -2.6750
12294TIP3   OH258372   1.069   0.673   2.671 -0.0601  0.4342  0.0429
12294TIP3    H158373   0.975   0.664   2.686 -0.2697  0.4523 -1.2142
12294TIP3    H258374   1.100   0.583   2.658  0.0082  0.4692 -0.0396
12295TIP3   OH258375   3.955   1.270  41.026 -0.1970 -0.2305  0.1882
12295TIP3    H158376   3.990   1.187  40.993  1.9506  0.6675  0.0535
12295TIP3    H258377   4.009   1.289  41.102 -0.9305  0.8771  0.4462
12296TIP3   OH258378   1.148   1.652  11.679  0.1649 -0.0399  0.5886
12296TIP3    H158379   1.225   1.670  11.624 -0.4648  1.4436  0.1344
12296TIP3    H258380   1.184   1.632  11.765  1.1659 -2.1700 -0.2659
12297TIP3   OH258381   3.031   2.507  12.382  0.1242  0.4440  0.2657
12297TIP3    H158382   3.111   2.557  12.366  0.1925  0.2339 -0.0518
12297TIP3    H258383   3.058   2.436  12.441  0.1604  0.3973  0.1918
12298TIP3   OH258384   4.245   1.406  30.431 -0.1692 -0.4314  0.3476
12298TIP3    H158385   4.316   1.411  30.495  0.4314 -0.3182 -0.3105
12298TIP3    H258386   4.205   1.320  30.446  2.4520 -2.1724 -1.6294
12299TIP3   OH258387   3.198   0.715   0.490 -0.0813 -1.2636 -0.0536
12299TIP3    H158388   3.178   0.773   0.417 -1.2106 -0.3796  0.9181
12299TIP3    H258389   3.284   0.743   0.520 -0.5467 -0.1654  0.3047
12300TIP3   OH258390   0.571   3.281  33.394  0.2386 -0.4089 -0.2017
12300TIP3    H158391   0.648   3.275  33.338 -0.2111  2.5972 -1.3265
12300TIP3    H258392   0.560   3.375  33.409 -1.9383 -0.8925  1.7701
12301TIP3   OH258393   1.890   3.716  41.110 -0.0794  0.2995 -0.5385
12301TIP3    H158394   1.835   3.678  41.042 -1.5310  1.4459 -0.0644
12301TIP3    H258395   1.837   3.712  41.189  0.5063  1.4601 -0.0657
12302TIP3   OH258396   1.924   1.146   5.485 -0.6449 -0.0326 -0.4304
12302TIP3    H158397   1.862   1.153   5.558 -1.0409 -1.7347 -0.5797
12302TIP3    H258398   2.010   1.164   5.525 -0.9848  0.2004  0.2134
12303TIP3   OH258399   0.126   2.859  40.983  0.5678  0.4570 -0.5358
12303TIP3    H158400   0.043   2.898  41.011  1.1219  0.5637  1.0892
12303TIP3    H258401   0.108   2.766  40.978  0.1967  0.5393 -0.7705
12304TIP3   OH258402   1.416   4.127  34.971  0.3647  0.5602 -0.4081
12304TIP3    H158403   1.427   4.152  34.879  0.2181  1.5145 -0.1768
12304TIP3    H258404   1.371   4.202  35.010  0.3846  0.1365  0.4316
12305TIP3   OH258405   3.761   3.320  29.855 -0.1522 -0.0712  0.2362
12305TIP3    H158406   3.688   3.351  29.908  0.0487 -1.8569  1.6646
12305TIP3    H258407   3.783   3.234  29.892  2.4156  0.2340 -0.3905
12306TIP3   OH258408   1.267   4.261  13.170  0.5900 -0.2427  0.3257
12306TIP3    H158409   1.299   4.199  13.104  0.4554 -0.4110  0.4159
12306TIP3    H258410   1.202   4.313  13.124 -0.3410 -1.1154  0.6076
12307TIP3   OH258411   2.636   1.146   5.302  0.0322  0.3407  0.5261
12307TIP3    H158412   2.652   1.053   5.314  1.1675  0.5786  0.9548
12307TIP3    H258413   2.543   1.152   5.280 -0.0376 -0.8889  0.4434
12308TIP3   OH258414   1.707   0.907  29.642  0.2724  0.3540 -0.1393
12308TIP3    H158415   1.757   0.920  29.723  1.3802  0.2456 -0.7722
12308TIP3    H258416   1.765   0.941  29.574  0.8123 -2.4796 -1.2424
12309TIP3   OH258417   0.978   2.391  12.682 -0.0273 -0.8828  0.0126
12309TIP3    H158418   0.998   2.469  12.629 -0.6160  0.0436  1.1270
12309TIP3    H258419   0.970   2.320  12.617 -1.2704  0.3113 -1.2047
12310TIP3   OH258420   0.271   3.572  28.617 -0.2724  0.2791  0.0978
12310TIP3    H158421   0.267   3.582  28.522  2.4998  0.6267 -0.0671
12310TIP3    H258422   0.354   3.528  28.633 -1.0342 -0.4868  2.3423
12311TIP3   OH258423   3.264   1.852  28.047 -0.3266  0.3574  0.1084
12311TIP3    H158424   3.292   1.865  28.138 -0.2620 -0.9867  0.2940
12311TIP3    H258425   3.326   1.789  28.011  0.0379  1.3540 -1.0836
12312TIP3   OH258426   1.327   3.960  30.172  0.2886 -0.3218  0.2274
12312TIP3    H158427   1.419   3.932  30.166 -0.1270 -1.8813  0.6820
12312TIP3    H258428   1.329   4.052  30.146  2.0523 -0.1913  0.6483
12313TIP3   OH258429   0.176   4.260  13.002 -0.3354  0.1250  0.3739
12313TIP3    H158430   0.255   4.226  13.045 -0.3556  0.3455  0.5896
12313TIP3    H258431   0.181   4.355  13.015  0.5512  0.3913 -1.6326
12314TIP3   OH258432   1.901   3.028  18.540  0.1853  0.0220 -0.7168
12314TIP3    H158433   1.955   2.978  18.478  1.8654 -0.6269  1.1388
12314TIP3    H258434   1.845   2.962  18.581  4.6462 -1.4935  4.1413
12315TIP3   OH258435   3.856   2.665   6.731  0.0583 -0.7909 -0.2085
12315TIP3    H158436   3.951   2.667   6.747 -0.0210 -1.2335  0.3406
12315TIP3    H258437   3.848   2.678   6.637  0.5376  2.1338  0.0640
12316TIP3   OH258438   2.828   2.665  12.285  0.7013 -0.2590 -0.7613
12316TIP3    H158439   2.841   2.753  12.320 -2.6804 -0.7645  2.3257
12316TIP3    H258440   2.898   2.614  12.324 -0.5347  0.0774  2.1704
12317TIP3   OH258441   2.167   4.298  19.265 -0.3140 -0.8367 -0.1774
12317TIP3    H158442   2.130   4.295  19.354  0.9267 -1.3033  0.3474
12317TIP3    H258443   2.196   4.209  19.249  0.1876 -0.5700 -0.7466
12318TIP3   OH258444   2.457   3.636  10.005  0.6896  0.1455 -0.1574
12318TIP3    H158445   2.544   3.602   9.984  1.9735  1.9360  1.7877
12318TIP3    H258446   2.454   3.637  10.100 -0.8758  1.5042 -0.1718
12319TIP3   OH258447   3.156   2.246   9.130  0.4498 -0.6028  0.2193
12319TIP3    H158448   3.159   2.151   9.117  0.1673 -0.8453  1.8057
12319TIP3    H258449   3.074   2.261   9.176  0.8499  0.3285  0.6384
12320TIP3   OH258450   1.416   1.213  12.583  0.0811  0.2293 -0.5374
12320TIP3    H158451   1.413   1.306  12.606  0.4297 -0.1760  1.3382
12320TIP3    H258452   1.382   1.209  12.494 -2.9197  1.8231  0.4066
12321TIP3   OH258453   4.335   1.381  31.384  0.6203 -0.0436  0.1352
12321TIP3    H158454   4.277   1.422  31.320  0.0376 -0.8417  0.1242
12321TIP3    H258455   4.280   1.313  31.425  1.1259  0.1392  1.1384
12322TIP3   OH258456   2.389   1.444  10.269 -0.0613 -0.7297  0.1814
12322TIP3    H158457   2.442   1.507  10.220 -2.5924  0.3927 -1.3442
12322TIP3    H258458   2.398   1.362  10.221  0.8216 -0.7506  0.3697
12323TIP3   OH258459   2.536   2.572   4.504 -0.1090 -0.1191 -0.0775
12323TIP3    H158460   2.537   2.565   4.408  0.6891  0.5071 -0.1294
12323TIP3    H258461   2.572   2.488   4.534 -2.0831 -1.0853 -0.2363
12324TIP3   OH258462   2.174   0.380  33.953  0.0293  0.4689 -0.2164
12324TIP3    H158463   2.208   0.337  34.032 -1.1855 -1.4388 -0.6673
12324TIP3    H258464   2.167   0.473  33.977  0.1292  0.0025  1.7539
12325TIP3   OH258465   1.680   3.690  16.771  0.3801  0.0178 -0.1289
12325TIP3    H158466   1.693   3.744  16.849 -1.8347 -0.0367  0.3448
12325TIP3    H258467   1.685   3.751  16.698 -0.9426  0.7101  0.3268
12326TIP3   OH258468   3.542   4.356  34.017 -0.0358  0.0790  0.7689
12326TIP3    H158469   3.528   4.341  34.111  0.1686  1.9280  1.1370
12326TIP3    H258470   3.620   4.305  33.996  0.1878  0.0041  1.7096
12327TIP3   OH258471   2.703   0.844   4.355  0.4248 -0.1523 -0.5239
12327TIP3    H158472   2.798   0.854   4.358  0.2929  1.2967  0.4138
12327TIP3    H258473   2.679   0.820   4.445 -0.1005 -0.3208 -0.7061
12328TIP3   OH258474   1.850   1.969  18.019  0.2111 -0.2589 -0.1845
12328TIP3    H158475   1.889   1.883  18.035 -1.3331 -1.5509 -2.7974
12328TIP3    H258476   1.760   1.951  17.994 -0.6197  2.2763  0.6669
12329TIP3   OH258477   0.104   0.657  34.104  0.0031  0.8957 -0.5313
12329TIP3    H158478   0.023   0.645  34.053  0.6989  0.7754 -1.6469
12329TIP3    H258479   0.143   0.570  34.107 -0.3406  0.7713  0.7904
12330TIP3   OH258480   0.425   1.576  39.483  0.1631 -0.5688 -0.2249
12330TIP3    H158481   0.359   1.624  39.433  0.3800  0.9978  0.9253
12330TIP3    H258482   0.422   1.614  39.571  1.5477 -1.5039  0.2713
12331TIP3   OH258483   4.396   3.798   7.872  0.0731  0.1948 -0.1228
12331TIP3    H158484   4.478   3.820   7.828  1.0039 -0.1860  1.3226
12331TIP3    H258485   4.390   3.860   7.944 -0.2923 -0.5299  0.4925
12332TIP3   OH258486   0.893   0.447   8.733 -0.2039 -0.7720  0.8058
12332TIP3    H158487   0.891   0.454   8.828  0.8771 -3.5503  1.1407
12332TIP3    H258488   0.984   0.425   8.712  0.2754  2.4553 -1.2106
12333TIP3   OH258489   3.066   3.220  39.948  0.2962 -1.0077  0.0488
12333TIP3    H158490   3.055   3.238  40.042  0.7425 -2.1013  0.3253
12333TIP3    H258491   3.067   3.307  39.908 -3.3034 -0.5424  0.5989
12334TIP3   OH258492   3.564   0.464  32.316  0.3896  0.0283  0.5085
12334TIP3    H158493   3.568   0.556  32.292  0.9839  0.6160  2.6505
12334TIP3    H258494   3.653   0.442  32.345  0.1953 -1.1433  0.3005
12335TIP3   OH258495   3.836   0.502  38.686 -0.1594  0.1279  0.4403
12335TIP3    H158496   3.900   0.502  38.757 -0.1130  0.0532  0.3994
12335TIP3    H258497   3.843   0.414  38.647 -0.2449  0.1393  0.3984
12336TIP3   OH258498   2.385   1.649  31.050  0.2382  0.0437 -0.4357
12336TIP3    H158499   2.446   1.722  31.060 -0.4737  1.0092 -2.4758
12336TIP3    H258500   2.307   1.677  31.098  0.0889  0.4981 -0.9322
12337TIP3   OH258501   3.280   1.896   0.443  0.2593 -0.1365  0.8037
12337TIP3    H158502   3.279   1.985   0.406  2.8744 -0.6579 -0.7760
12337TIP3    H258503   3.352   1.898   0.506  0.2152 -1.0805  0.8900
12338TIP3   OH258504   1.942   3.010  34.330 -0.5829  0.5453  0.3832
12338TIP3    H158505   1.908   2.924  34.354  2.0820 -0.3429  1.2799
12338TIP3    H258506   1.912   3.068  34.401  1.5101 -0.6776  2.4050
12339TIP3   OH258507   1.311   1.234  33.706 -0.1141 -0.3953 -0.2257
12339TIP3    H158508   1.348   1.181  33.777  0.1762  0.8895  0.6060
12339TIP3    H258509   1.216   1.229  33.720 -0.0480  0.0970  0.4566
12340TIP3   OH258510   1.038   1.326  12.322  0.1344 -0.3469 -0.1648
12340TIP3    H158511   1.118   1.368  12.290 -0.2351 -1.2733 -2.4964
12340TIP3    H258512   1.056   1.232  12.316 -0.5739 -0.5595  0.8247
12341TIP3   OH258513   2.101   2.630  12.603 -0.0230  0.4595  0.5072
12341TIP3    H158514   2.015   2.667  12.582 -0.3256  0.2628  1.3453
12341TIP3    H258515   2.141   2.612  12.518 -1.7683 -1.6804  0.0465
12342TIP3   OH258516   2.021   2.784   6.016  0.6031 -0.0716 -0.5895
12342TIP3    H158517   2.069   2.789   6.099 -0.3567 -0.7778  0.0378
12342TIP3    H258518   2.083   2.745   5.955  1.0150 -0.4454  0.0557
12343TIP3   OH258519   1.587   0.753  16.343  0.3228  0.7619 -0.4350
12343TIP3    H158520   1.501   0.776  16.378 -0.2531 -0.7526 -0.7911
12343TIP3    H258521   1.646   0.759  16.419 -0.4491 -0.0438  0.2489
12344TIP3   OH258522   3.905   0.642   3.723  0.1959 -0.2785  0.4688
12344TIP3    H158523   3.999   0.655   3.714  0.0559  0.3623 -0.1230
12344TIP3    H258524   3.887   0.660   3.815  0.6332 -0.3243  0.5650
12345TIP3   OH258525   3.221   0.848  26.959  0.2815 -0.1028 -0.4532
12345TIP3    H158526   3.179   0.893  26.886  0.4168  1.4937  0.4284
12345TIP3    H258527   3.275   0.914  27.002  0.2585 -1.0115  1.0738
12346TIP3   OH258528   1.815   1.205  28.580  0.2407  0.4475 -0.5213
12346TIP3    H158529   1.821   1.112  28.558 -0.1857  0.1702  0.4738
12346TIP3    H258530   1.851   1.251  28.504  0.1309 -0.5186 -1.1653
12347TIP3   OH258531   1.493   1.695   5.630  0.3218  0.2974 -0.2697
12347TIP3    H158532   1.433   1.628   5.663  0.2859 -0.2526 -1.4002
12347TIP3    H258533   1.519   1.745   5.707 -0.2771 -0.5216  0.4720
12348TIP3   OH258534   0.030   1.851  37.185  0.2014  0.9066 -0.2429
12348TIP3    H158535   0.049   1.888  37.099  1.9558 -1.4612 -0.9739
12348TIP3    H258536   0.114   1.815  37.215 -0.2711  1.9641  2.6556
12349TIP3   OH258537   2.902   2.372  10.048  0.2664 -0.2783  0.2724
12349TIP3    H158538   2.893   2.441   9.982  1.0731 -0.3327  0.0929
12349TIP3    H258539   2.826   2.316  10.035 -0.3530  0.5193  0.3562
12350TIP3   OH258540   3.667   1.087  21.669 -0.3777 -0.1267  0.2178
12350TIP3    H158541   3.625   1.111  21.752  0.3158 -0.7007  0.7460
12350TIP3    H258542   3.675   0.992  21.673  0.5996 -0.0661 -0.0602
12351TIP3   OH258543   1.002   0.078  35.456 -0.8169 -0.2134  0.2878
12351TIP3    H158544   0.955   0.161  35.455 -1.2011 -0.4090  1.5061
12351TIP3    H258545   0.948   0.019  35.403 -0.0364  0.5513 -1.4495
12352TIP3   OH258546   3.615   2.089   5.202  0.2717 -0.3676  0.1948
12352TIP3    H158547   3.649   2.126   5.120  0.0051  0.6710  0.5294
12352TIP3    H258548   3.682   2.029   5.232  0.9832  0.2612 -0.1049
12353TIP3   OH258549   1.816   0.061  29.874  0.4497 -0.1594 -0.8440
12353TIP3    H158550   1.749   0.096  29.815  1.1635  3.5659  0.2776
12353TIP3    H258551   1.899   0.075  29.828  0.7143 -1.2045 -0.6937
12354TIP3   OH258552   3.106   0.729  32.289 -0.0309  0.4890 -0.5169
12354TIP3    H158553   3.129   0.642  32.321 -1.6309  0.0518 -0.4815
12354TIP3    H258554   3.171   0.787  32.330  0.1975 -0.5035  0.5974
12355TIP3   OH258555   3.855   4.152  28.671  0.0432 -0.0770 -0.0034
12355TIP3    H158556   3.783   4.098  28.705  1.2022 -1.0244  1.0556
12355TIP3    H258557   3.812   4.215  28.614 -1.5347 -1.1907 -0.1367
12356TIP3   OH258558   1.831   2.783  33.186 -0.5274 -0.1217  0.3280
12356TIP3    H158559   1.909   2.782  33.130 -0.3640 -0.4384  0.5575
12356TIP3    H258560   1.835   2.868  33.230  0.0337 -0.3904  0.8128
12357TIP3   OH258561   1.205   4.312   9.711 -0.5064 -0.0281  0.0219
12357TIP3    H158562   1.195   4.391   9.765  2.2206  0.7462 -0.4331
12357TIP3    H258563   1.291   4.277   9.737 -0.5346 -1.3960 -1.6084
12358TIP3   OH258564   3.144   3.654  33.873  0.5193  0.1850  0.1712
12358TIP3    H158565   3.076   3.589  33.857  1.0170  0.1851 -2.3830
12358TIP3    H258566   3.225   3.614  33.841  1.6666  0.4551  2.5127
12359TIP3   OH258567   0.750   1.436  33.732 -0.0339  0.0393 -0.7173
12359TIP3    H158568   0.730   1.503  33.667 -0.1645 -0.2061 -0.9307
12359TIP3    H258569   0.835   1.462  33.768 -0.9699  1.4207  0.6277
12360TIP3   OH258570   3.699   1.465  27.992 -0.4959 -0.3618  0.6026
12360TIP3    H158571   3.661   1.427  28.071 -0.2596  0.8371  1.3138
12360TIP3    H258572   3.765   1.527  28.025  0.1394 -0.4022 -0.5515
12361TIP3   OH258573   4.019   2.583   5.522 -0.8546  0.6368  0.2191
12361TIP3    H158574   3.984   2.636   5.594 -1.2974 -0.9060  1.2018
12361TIP3    H258575   4.010   2.493   5.553 -1.8068 -0.1522 -2.0947
12362TIP3   OH258576   1.935   1.667  36.973  0.2747  0.6866 -0.3976
12362TIP3    H158577   1.931   1.597  36.908 -1.0915 -0.7031  1.0657
12362TIP3    H258578   1.866   1.728  36.946 -0.6402 -0.1445 -0.0326
12363TIP3   OH258579   2.750   1.787  32.169  0.6096  0.6925  0.1300
12363TIP3    H158580   2.772   1.866  32.119  0.8052  0.9651  0.6473
12363TIP3    H258581   2.689   1.740  32.112  2.6566 -0.2165 -1.4736
12364TIP3   OH258582   2.685   1.544  37.926  0.2249  0.2675  0.2725
12364TIP3    H158583   2.747   1.537  37.853 -0.1020 -1.2359  0.1231
12364TIP3    H258584   2.632   1.465  37.921 -1.8558  1.5765  0.2823
12365TIP3   OH258585   0.577   1.365  28.017  0.3755 -0.0936 -0.6059
12365TIP3    H158586   0.557   1.435  27.954  0.1648 -0.6183 -1.1341
12365TIP3    H258587   0.644   1.402  28.074 -0.1608  0.7440 -0.5109
12366TIP3   OH258588   1.681   3.675   1.594 -0.1948  0.2583  0.1871
12366TIP3    H158589   1.602   3.721   1.623  0.7500  2.3801 -0.4576
12366TIP3    H258590   1.752   3.711   1.647  0.8060  0.7066 -1.3832
12367TIP3   OH258591   1.670   0.483  28.015 -0.0509 -0.6853 -0.0923
12367TIP3    H158592   1.629   0.528  28.089  1.4877  0.5825  0.0359
12367TIP3    H258593   1.735   0.425  28.054 -0.3515 -1.2292 -0.3848
12368TIP3   OH258594   0.411   0.374  29.949 -0.1266  0.0842 -0.3224
12368TIP3    H158595   0.505   0.386  29.961 -0.3745  1.3320  0.4900
12368TIP3    H258596   0.387   0.309  30.016 -0.0671  0.7691  0.3712
12369TIP3   OH258597   1.654   3.742  27.963  0.3755 -0.4535 -0.0320
12369TIP3    H158598   1.577   3.729  27.907  1.0949  0.5679 -1.3209
12369TIP3    H258599   1.620   3.789  28.039 -0.2227  0.3735 -0.7888
12370TIP3   OH258600   3.936   4.071  12.333  0.2589 -0.0909  0.5374
12370TIP3    H158601   3.946   3.999  12.394  1.4808  0.1774  0.6736
12370TIP3    H258602   3.845   4.066  12.304  0.2340 -1.4654  0.8082
12371TIP3   OH258603   1.075   0.922  27.934  0.1244 -0.0608 -0.2449
12371TIP3    H158604   1.030   0.841  27.911 -0.9001  0.2376  0.6517
12371TIP3    H258605   1.005   0.983  27.959  0.9934  0.4589  1.0370
12372TIP3   OH258606   3.360   1.812  31.165 -0.8295 -0.3514 -0.0690
12372TIP3    H158607   3.269   1.782  31.156 -1.0585  0.7443 -1.8084
12372TIP3    H258608   3.355   1.907  31.159  0.2608 -0.1189  1.8559
12373TIP3   OH258609   1.235   4.020   5.197  0.0310 -0.5423  0.4596
12373TIP3    H158610   1.267   3.968   5.123 -0.5592  0.5526 -0.5805
12373TIP3    H258611   1.268   4.108   5.181 -1.9855  0.2211  0.3024
12374TIP3   OH258612   2.159   2.411   6.129 -0.0848  0.1971  1.1925
12374TIP3    H158613   2.158   2.450   6.042  4.2791  1.6102  1.5144
12374TIP3    H258614   2.068   2.386   6.145 -1.2566  0.6039 -3.3537
12375TIP3   OH258615   0.240   0.284   5.938  0.0431  0.2711 -0.3455
12375TIP3    H158616   0.261   0.372   5.968  2.3820  0.0050 -0.9853
12375TIP3    H258617   0.289   0.275   5.856  0.7066 -1.9497  0.2251
12376TIP3   OH258618   3.475   1.997  32.384 -0.1026 -0.1629  0.0042
12376TIP3    H158619   3.531   2.054  32.436  0.2772 -0.6444  0.1285
12376TIP3    H258620   3.504   1.908  32.405  1.6929 -0.3864 -2.7613
12377TIP3   OH258621   1.663   4.163  37.377  0.4117 -0.1270  0.1052
12377TIP3    H158622   1.705   4.124  37.300 -1.0027  0.3501 -0.9592
12377TIP3    H258623   1.573   4.178  37.349 -0.8163 -2.1092  2.6530
12378TIP3   OH258624   3.048   4.380   6.648  0.2506  0.1883  0.1242
12378TIP3    H158625   3.003   4.300   6.620  0.2219 -0.2430  1.3153
12378TIP3    H258626   2.977   4.437   6.680  0.5017 -0.4268  1.8542
12379TIP3   OH258627   1.219   1.581   1.474  0.2134 -0.0182 -0.0517
12379TIP3    H158628   1.249   1.581   1.383  0.1975 -1.0556 -0.0706
12379TIP3    H258629   1.133   1.540   1.470 -0.1667  0.7363  0.3247
12380TIP3   OH258630   2.080   4.378   0.062 -0.4260 -0.0491  0.2636
12380TIP3    H158631   2.064   4.319  -0.011 -0.4020 -1.1617  1.1274
12380TIP3    H258632   2.031   4.339   0.135  0.9249  0.0957  1.2740
12381TIP3   OH258633   1.181   1.902  41.024  0.0571 -0.2074 -0.3436
12381TIP3    H158634   1.254   1.910  40.963  1.2245 -0.5373  0.9646
12381TIP3    H258635   1.110   1.864  40.972  1.4683 -1.8394 -1.1517
12382TIP3   OH258636   3.044   0.432   9.529  0.1388  0.0615 -0.1090
12382TIP3    H158637   3.131   0.469   9.515  0.6698 -1.3096 -0.6173
12382TIP3    H258638   3.036   0.363   9.463 -0.0947 -1.8969  1.8375
12383TIP3   OH258639   0.640   3.709  41.440  0.5491  0.6544  0.1263
12383TIP3    H158640   0.705   3.646  41.411  0.5907  1.1297 -0.8375
12383TIP3    H258641   0.563   3.656  41.462  0.4790  0.2785 -0.9677
12384TIP3   OH258642   1.102   4.241   5.653  0.5901 -0.6245 -0.0104
12384TIP3    H158643   1.190   4.277   5.660  0.3117  0.3127 -0.9517
12384TIP3    H258644   1.069   4.276   5.570 -1.7369  1.4810  1.6574
12385TIP3   OH258645   1.142   3.121  35.277 -0.4493  0.0719 -0.5096
12385TIP3    H158646   1.178   3.172  35.349 -0.0984 -1.0849  0.1717
12385TIP3    H258647   1.076   3.178  35.238  0.0625  1.1075  0.0822
12386TIP3   OH258648   4.120   1.617  33.707  0.5041 -0.7315 -0.3319
12386TIP3    H158649   4.196   1.675  33.711 -0.3866  0.5146 -1.1240
12386TIP3    H258650   4.158   1.529  33.706  1.8841 -0.1799  0.5203
12387TIP3   OH258651   1.713   2.153  40.873 -0.2124  0.5732  0.3438
12387TIP3    H158652   1.704   2.220  40.941  0.6367  1.5477 -0.4844
12387TIP3    H258653   1.703   2.070  40.921  1.8360  1.1680  1.9694
12388TIP3   OH258654   1.621   0.988  35.852 -0.2757  0.1055 -0.1594
12388TIP3    H158655   1.530   0.968  35.873 -0.7875  0.0259 -2.2220
12388TIP3    H258656   1.629   1.082  35.869 -0.2073 -0.1952  1.6831
12389TIP3   OH258657   3.554   3.938  27.554  0.3181  0.8199 -0.1774
12389TIP3    H158658   3.635   3.964  27.599 -0.3960  0.0391  1.6450
12389TIP3    H258659   3.575   3.854  27.514  1.0016  1.5831 -1.4750
12390TIP3   OH258660   2.768   1.509  40.883  0.0133  0.1114 -0.7555
12390TIP3    H158661   2.713   1.430  40.882  2.7745 -2.0270 -3.3588
12390TIP3    H258662   2.759   1.545  40.795 -2.0693  3.6115  0.6659
12391TIP3   OH258663   1.960   0.903  31.734  0.2360  0.1200 -0.4276
12391TIP3    H158664   1.865   0.890  31.737 -0.0610  1.9412 -1.0107
12391TIP3    H258665   1.988   0.852  31.658 -0.5334  0.9455 -1.2831
12392TIP3   OH258666   4.337   3.527  31.604  0.3445 -0.2997  0.6086
12392TIP3    H158667   4.293   3.526  31.519 -0.3493  0.0301  0.9521
12392TIP3    H258668   4.357   3.436  31.622  1.6825 -0.2488 -0.4996
12393TIP3   OH258669   3.213   0.885   7.385  0.0861 -0.4182  0.2041
12393TIP3    H158670   3.194   0.978   7.395  0.8537 -0.3816  1.4790
12393TIP3    H258671   3.126   0.843   7.383 -0.2549  0.2912 -0.1982
12394TIP3   OH258672   2.198   3.408  12.798  0.4135 -0.0966  0.4305
12394TIP3    H158673   2.117   3.421  12.748 -0.2191 -1.6658  0.9619
12394TIP3    H258674   2.267   3.442  12.742 -0.5306  0.4299 -0.4399
12395TIP3   OH258675   0.452   1.469   8.003 -0.0216 -0.0796 -0.0780
12395TIP3    H158676   0.537   1.510   7.985 -0.2923  0.3975 -0.2881
12395TIP3    H258677   0.396   1.496   7.930 -0.0919 -1.1670 -0.4382
12396TIP3   OH258678   4.163   1.675  31.471  0.1824  0.1950  0.1791
12396TIP3    H158679   4.183   1.740  31.538 -1.4626 -0.2778  1.1615
12396TIP3    H258680   4.184   1.720  31.388  2.2434  0.7799  0.9456
12397TIP3   OH258681   3.857   3.347  41.570  0.2785 -0.0405  0.1678
12397TIP3    H158682   3.823   3.429  41.606 -0.8410 -0.2248 -0.4156
12397TIP3    H258683   3.895   3.372  41.485  0.7419  0.0042  0.3833
12398TIP3   OH258684   2.265   3.367  32.519  0.1416  0.3866 -0.4913
12398TIP3    H158685   2.296   3.327  32.438 -0.7533 -0.4268 -0.4537
12398TIP3    H258686   2.171   3.352  32.519 -0.1559  2.0023 -0.1829
12399TIP3   OH258687   0.739   3.002  36.904 -0.3446  0.0373 -0.6487
12399TIP3    H158688   0.739   3.017  36.809 -0.4704  0.9306 -0.5142
12399TIP3    H258689   0.668   3.057  36.936 -0.4369 -0.4238 -0.0511
12400TIP3   OH258690   1.836   3.594  39.732  0.4373 -0.0096  0.5262
12400TIP3    H158691   1.759   3.649  39.722  0.3008 -0.3701 -0.4671
12400TIP3    H258692   1.881   3.599  39.648 -0.6489 -2.9829 -0.3722
12401TIP3   OH258693   4.116   4.205   3.094 -0.1433  0.0403 -0.0406
12401TIP3    H158694   4.075   4.220   3.180  0.4998 -0.3002  0.3328
12401TIP3    H258695   4.043   4.200   3.033 -0.5852  0.7366  0.4219
12402TIP3   OH258696   2.171   0.981  27.067  0.3000 -0.4634 -0.0650
12402TIP3    H158697   2.109   1.054  27.067 -0.2684 -0.9155 -1.2798
12402TIP3    H258698   2.136   0.920  27.002  2.8891 -0.0038 -2.0630
12403TIP3   OH258699   2.015   3.697   5.481 -0.0044  0.5776  0.0253
12403TIP3    H158700   2.008   3.650   5.398 -1.8855 -3.4382  2.1492
12403TIP3    H258701   1.938   3.754   5.484 -0.3038  0.2166 -0.6865
12404TIP3   OH258702   3.705   3.002  25.910 -0.5081  0.2450  0.4054
12404TIP3    H158703   3.775   3.005  25.975  0.2422  0.5179 -0.3933
12404TIP3    H258704   3.625   2.999  25.961  0.0183  1.5662  1.3539
12405TIP3   OH258705   1.046   1.208   1.264 -0.4999  0.3783 -0.7253
12405TIP3    H158706   1.099   1.135   1.295 -0.2313  0.4837 -0.9273
12405TIP3    H258707   1.052   1.274   1.333  0.1018  0.6154 -0.9969
12406TIP3   OH258708   4.275   3.021  28.942  0.6688  0.1745 -0.5005
12406TIP3    H158709   4.281   3.114  28.966  1.2520  0.8084 -2.8591
12406TIP3    H258710   4.185   2.997  28.965  0.2414  1.5765 -0.5768
12407TIP3   OH258711   1.095   0.733  28.323 -0.6432  0.1785  0.1782
12407TIP3    H158712   1.133   0.813  28.287 -0.4354  0.1214  0.2657
12407TIP3    H258713   1.119   0.665  28.260  0.0861  0.0045  0.6267
12408TIP3   OH258714   2.509   0.977  41.497 -0.0675  0.9048 -0.0548
12408TIP3    H158715   2.570   0.955  41.427 -0.3025 -0.0187  0.0094
12408TIP3    H258716   2.565   1.000  41.571  0.1814  2.7274 -0.7668
12409TIP3   OH258717   3.314   0.277  40.069  0.2960 -0.4648  0.2616
12409TIP3    H158718   3.341   0.194  40.110 -0.5207 -0.3862  0.9740
12409TIP3    H258719   3.387   0.337  40.086 -0.6977  0.0637  3.1464
12410TIP3   OH258720   2.887   0.800  10.109  0.1088  0.0102  0.1378
12410TIP3    H158721   2.901   0.707  10.129 -1.3303 -0.6781 -1.7457
12410TIP3    H258722   2.822   0.828  10.172 -0.3371 -0.6054 -0.0378
12411TIP3   OH258723   1.236   3.721   9.610 -0.7214  0.3974  0.1837
12411TIP3    H158724   1.298   3.737   9.682 -0.6787 -0.2002  0.2928
12411TIP3    H258725   1.154   3.760   9.639 -0.6371  0.3805  0.4497
12412TIP3   OH258726   1.159   3.251   0.159 -0.6989  0.1979  0.1712
12412TIP3    H158727   1.109   3.169   0.156  0.0605 -0.3034  0.9201
12412TIP3    H258728   1.183   3.261   0.251 -0.1532  0.8853 -0.0425
12413TIP3   OH258729   2.527   0.697   4.937  0.2772 -0.1406 -0.5219
12413TIP3    H158730   2.433   0.685   4.925  0.6361 -1.0971 -3.0164
12413TIP3    H258731   2.550   0.770   4.880  1.0346  0.1934  0.1929
12414TIP3   OH258732   1.662   1.615  16.049 -0.4503  0.1802  0.2674
12414TIP3    H158733   1.657   1.557  16.125  0.5158 -0.2126  0.0584
12414TIP3    H258734   1.653   1.556  15.974 -1.6496  0.5957  0.0648
12415TIP3   OH258735   0.532   1.586  21.013 -0.2097 -0.2947 -0.7022
12415TIP3    H158736   0.519   1.586  21.108 -2.1346  2.4580 -0.8512
12415TIP3    H258737   0.574   1.671  20.995  0.8981 -1.1190 -2.2778
12416TIP3   OH258738   4.159   3.277  10.584 -0.1246  0.1937 -0.2892
12416TIP3    H158739   4.188   3.299  10.495  1.8836  2.0054  0.7201
12416TIP3    H258740   4.104   3.351  10.610  0.6088  0.4700  0.5161
12417TIP3   OH258741   1.291   1.694  17.341 -0.2096 -0.4110  0.1283
12417TIP3    H158742   1.329   1.609  17.317  0.2399 -0.4223  0.8516
12417TIP3    H258743   1.224   1.673  17.407  1.0304 -0.0816  1.5454
12418TIP3   OH258744   0.328   2.297   5.105  0.2539 -0.5910 -0.0343
12418TIP3    H158745   0.403   2.343   5.067  0.2667 -0.4885  0.1152
12418TIP3    H258746   0.281   2.263   5.029  0.3525 -0.5013 -0.1376
12419TIP3   OH258747   1.281   0.871  36.507  0.3543  0.1060  0.1748
12419TIP3    H158748   1.370   0.891  36.478  0.2430 -0.2587 -0.4340
12419TIP3    H258749   1.243   0.956  36.529  1.0203  0.2171  0.9559
12420TIP3   OH258750   3.011   4.281   2.531  0.3737 -0.0766  0.2354
12420TIP3    H158751   3.067   4.359   2.527 -0.8904  1.0319  2.0807
12420TIP3    H258752   3.034   4.240   2.615 -0.7176 -0.2717  0.4508
12421TIP3   OH258753   2.019   0.056  34.652 -0.2507 -0.7960  0.4796
12421TIP3    H158754   1.991   0.134  34.605  0.6479  0.0931  1.3588
12421TIP3    H258755   1.988   0.070  34.742  0.6310 -1.0530  0.8373
12422TIP3   OH258756   2.539   3.308   3.888  0.4126  0.0049 -0.4284
12422TIP3    H158757   2.499   3.223   3.906  0.3739  0.3674  1.4191
12422TIP3    H258758   2.467   3.362   3.855  0.0961 -0.2722 -0.1964
12423TIP3   OH258759   1.794   0.254   8.149  0.2829  0.0684  0.0290
12423TIP3    H158760   1.866   0.201   8.181  1.4026  0.7557 -1.2328
12423TIP3    H258761   1.781   0.224   8.059 -0.0207  0.9565 -0.2330
12424TIP3   OH258762   3.296   4.208   3.954 -1.1003 -0.2652  0.2774
12424TIP3    H158763   3.373   4.223   4.009 -1.0894  1.1518 -0.0942
12424TIP3    H258764   3.222   4.229   4.011 -1.0589  2.5448 -0.5479
12425TIP3   OH258765   1.210   0.282   9.230 -0.2517 -0.0213  0.6796
12425TIP3    H158766   1.190   0.369   9.197 -1.5471 -0.9179 -1.0031
12425TIP3    H258767   1.251   0.298   9.316  1.9676  2.3265 -0.6844
12426TIP3   OH258768   3.408   1.170  40.906  0.2689 -0.0083 -0.6705
12426TIP3    H158769   3.382   1.251  40.949  1.1382 -0.1706  0.2007
12426TIP3    H258770   3.374   1.101  40.963  0.9445 -0.2352 -0.5342
12427TIP3   OH258771   0.789   0.230  37.163 -0.3373 -0.6301  0.1344
12427TIP3    H158772   0.780   0.278  37.245  0.1019 -0.8609  0.3173
12427TIP3    H258773   0.857   0.166  37.179 -1.4060 -1.8148  0.1103
12428TIP3   OH258774   3.198   0.295   0.743  0.0190 -0.5329 -0.1835
12428TIP3    H158775   3.285   0.282   0.782  0.0106  0.0463  0.0327
12428TIP3    H258776   3.186   0.218   0.687  1.2751  0.0648 -1.3386
12429TIP3   OH258777   1.243   2.636  17.339  0.2220 -0.0780  0.0327
12429TIP3    H158778   1.177   2.634  17.270 -2.3235 -2.1121  2.3202
12429TIP3    H258779   1.235   2.723  17.378 -0.7060 -0.0840 -0.1218
12430TIP3   OH258780   0.933   3.540  39.216  0.1181 -0.7430  0.2247
12430TIP3    H158781   1.010   3.488  39.196 -0.6152 -0.9850 -2.2907
12430TIP3    H258782   0.954   3.627  39.182  1.1202  0.6393  3.8977
12431TIP3   OH258783   2.619   1.613   2.541 -0.4469 -0.2468  0.1165
12431TIP3    H158784   2.574   1.575   2.466  0.9027 -2.1898  0.2164
12431TIP3    H258785   2.550   1.656   2.591 -2.1112 -2.5242 -0.0758
12432TIP3   OH258786   0.696   1.081  30.531  0.3705  0.1947 -0.9484
12432TIP3    H158787   0.616   1.100  30.482 -0.6448  1.1738  0.9978
12432TIP3    H258788   0.694   0.987  30.546 -0.5360  0.2399 -0.7491
12433TIP3   OH258789   3.208   0.422   7.757  0.4717  0.1632 -0.0294
12433TIP3    H158790   3.175   0.397   7.844  0.9713  0.2074  0.1748
12433TIP3    H258791   3.182   0.513   7.747  0.6113  0.2263  0.1711
12434TIP3   OH258792   1.847   4.231  11.413 -0.2967 -0.4243  0.5169
12434TIP3    H158793   1.938   4.230  11.385 -0.1462 -0.7437  1.0069
12434TIP3    H258794   1.851   4.233  11.509 -0.8042 -0.4861  0.5429
12435TIP3   OH258795   0.921   3.683  40.750 -0.3117 -0.3201 -0.2417
12435TIP3    H158796   0.920   3.778  40.765 -0.7520 -0.4050  0.2834
12435TIP3    H258797   0.911   3.645  40.837 -0.2728 -0.8480 -0.4673
12436TIP3   OH258798   3.432   2.552  27.780 -0.2230  0.0250  0.0281
12436TIP3    H158799   3.422   2.457  27.789 -1.1405  0.1848  0.9548
12436TIP3    H258800   3.526   2.567  27.778 -0.0712 -0.9135 -0.2967
12437TIP3   OH258801   2.684   3.251  38.337  0.4420  0.1722  0.1154
12437TIP3    H158802   2.716   3.209  38.417  1.3146 -0.4319 -0.5343
12437TIP3    H258803   2.589   3.248  38.345  0.4970 -0.9721  0.5784
12438TIP3   OH258804   2.428   4.387  28.038  0.5296 -0.1135 -0.0038
12438TIP3    H158805   2.388   4.428  27.961 -0.5983  1.1690  1.2222
12438TIP3    H258806   2.428   4.455  28.104  2.9438 -0.6857  0.7004
12439TIP3   OH258807   0.420   4.228  27.712 -0.7356  0.4705  0.1761
12439TIP3    H158808   0.514   4.217  27.699 -0.5243  0.2751  1.7566
12439TIP3    H258809   0.405   4.208  27.804 -1.9659  2.7544  0.5625
12440TIP3   OH258810   3.367   2.388  30.259 -0.5059  0.2892 -0.0211
12440TIP3    H158811   3.450   2.393  30.211  0.2474 -2.0439  0.8636
12440TIP3    H258812   3.350   2.478  30.288  1.2409  0.9841 -0.9936
12441TIP3   OH258813   2.942   3.130  32.380  0.3099  0.6058 -0.5088
12441TIP3    H158814   2.873   3.066  32.397  0.8958  0.0415 -0.1862
12441TIP3    H258815   2.927   3.199  32.445  0.7364 -0.0804  0.3418
12442TIP3   OH258816   3.470   1.624  31.021  0.1022  0.3040 -0.4253
12442TIP3    H158817   3.436   1.695  31.076 -0.9311  0.9919 -1.8563
12442TIP3    H258818   3.565   1.626  31.034 -0.1592 -0.1822  1.9882
12443TIP3   OH258819   3.012   3.479   7.957 -0.2536  0.2839  0.0251
12443TIP3    H158820   3.103   3.458   7.938 -0.1153 -0.4091  1.2973
12443TIP3    H258821   2.998   3.566   7.919  1.7774  1.6680  2.1305
12444TIP3   OH258822   1.231   4.281  29.200  0.2126 -0.0817  0.0199
12444TIP3    H158823   1.243   4.198  29.153 -1.4129  0.7433 -2.0338
12444TIP3    H258824   1.239   4.258  29.292  1.4240 -2.1999 -0.5498
12445TIP3   OH258825   0.289   2.547  29.988  0.3564 -0.4221  0.0157
12445TIP3    H158826   0.224   2.541  29.918  1.1896  0.0161 -0.8156
12445TIP3    H258827   0.284   2.462  30.032  0.6620 -1.1787 -1.3499
12446TIP3   OH258828   2.779   0.202  10.109 -0.0252  0.3585 -0.7755
12446TIP3    H158829   2.740   0.203  10.021 -0.4382  0.0807 -0.5929
12446TIP3    H258830   2.843   0.274  10.106 -0.6710  0.9435 -1.0175
12447TIP3   OH258831   4.355   1.704  25.355 -0.1582 -0.2023  0.0285
12447TIP3    H158832   4.292   1.632  25.351  0.7270 -0.9773 -0.5510
12447TIP3    H258833   4.361   1.726  25.448 -1.5420  0.1399  0.0566
12448TIP3   OH258834   0.676   0.741   3.582 -0.1134 -0.4240  0.0414
12448TIP3    H158835   0.629   0.783   3.654  1.0716  0.6654  0.2310
12448TIP3    H258836   0.625   0.762   3.504 -0.3509  0.0948  0.3309
12449TIP3   OH258837   4.034   2.808  21.715  0.4623  0.0775 -0.0506
12449TIP3    H158838   4.018   2.716  21.736  0.9964 -0.3825 -1.5889
12449TIP3    H258839   4.086   2.840  21.789 -1.0911 -0.3901  1.3061
12450TIP3   OH258840   2.184   0.672  38.530 -0.4568  0.3115 -0.5373
12450TIP3    H158841   2.123   0.671  38.604 -0.2136  2.8792 -0.1936
12450TIP3    H258842   2.133   0.641  38.456 -1.4297  0.0051  0.2447
12451TIP3   OH258843   4.095   1.498  11.473 -0.1309 -0.2820  0.7921
12451TIP3    H158844   4.051   1.435  11.416  0.2594 -0.5819  0.8227
12451TIP3    H258845   4.187   1.495  11.446 -0.1646  0.5540  0.5299
12452TIP3   OH258846   0.452   4.038  12.588 -0.7232  0.0385  0.0412
12452TIP3    H158847   0.410   4.065  12.669  0.5706  0.5343  0.5641
12452TIP3    H258848   0.544   4.058  12.600  0.1059 -3.1028 -0.1825
12453TIP3   OH258849   3.467   0.014   0.276 -0.0306 -0.7490 -0.0823
12453TIP3    H158850   3.541   0.038   0.332 -0.6889  0.2296  0.3943
12453TIP3    H258851   3.486   0.056   0.192 -0.8569  1.0138  0.5521
12454TIP3   OH258852   2.684   2.659  35.256  0.1737  0.2045  0.5917
12454TIP3    H158853   2.640   2.743  35.262  0.3574  0.2762  0.9593
12454TIP3    H258854   2.620   2.600  35.216  0.0578  0.5260  0.3064
12455TIP3   OH258855   2.057   2.035  16.156 -0.5596  0.2313  0.2155
12455TIP3    H158856   2.113   2.021  16.232  0.0390  1.6959  0.0783
12455TIP3    H258857   2.109   2.089  16.096 -1.9509  1.3292 -0.0791
12456TIP3   OH258858   0.504   1.038  40.220 -0.2307  0.3288 -0.3573
12456TIP3    H158859   0.515   1.011  40.129  3.3232  0.5811 -0.1267
12456TIP3    H258860   0.548   0.970  40.271  0.2253  1.5525  0.9478
12457TIP3   OH258861   2.142   0.150   3.097 -0.1426  0.4290 -0.1759
12457TIP3    H158862   2.184   0.065   3.081  0.4152  0.1851  2.1830
12457TIP3    H258863   2.211   0.214   3.080  0.1414  0.2421  0.2453
12458TIP3   OH258864   4.348   1.574  26.753  0.2317  0.1722 -0.0355
12458TIP3    H158865   4.311   1.660  26.734  0.5936  0.1570 -0.8617
12458TIP3    H258866   4.353   1.531  26.667  1.9174  0.0843  0.0708
12459TIP3   OH258867   1.009   2.885  14.242  0.4935  0.1123  0.0631
12459TIP3    H158868   0.962   2.934  14.310 -1.9923 -1.8513 -0.0929
12459TIP3    H258869   0.953   2.808  14.225  2.6106 -1.1020 -1.9522
12460TIP3   OH258870   0.429   4.200   4.167 -0.9156  0.2345 -0.4936
12460TIP3    H158871   0.467   4.115   4.190  0.4825  0.9853  0.0469
12460TIP3    H258872   0.359   4.213   4.232 -1.4532 -0.6841 -0.8598
12461TIP3   OH258873   3.245   3.215  33.386 -0.2021 -0.2452 -0.1002
12461TIP3    H158874   3.245   3.310  33.378  0.6126 -0.3765 -2.2468
12461TIP3    H258875   3.160   3.189  33.351  0.3353 -0.3917 -1.3407
12462TIP3   OH258876   3.406   0.751  33.844  0.4821  0.2873 -0.2040
12462TIP3    H158877   3.422   0.840  33.878 -0.1099  0.0485  0.7574
12462TIP3    H258878   3.319   0.756  33.805 -0.3863 -0.2995  1.5372
12463TIP3   OH258879   2.007   4.154  39.360 -0.4385  0.3153 -0.1209
12463TIP3    H158880   2.021   4.093  39.433 -2.2140  1.1540  1.0100
12463TIP3    H258881   1.986   4.098  39.285 -1.2908 -0.5047  0.7065
12464TIP3   OH258882   3.650   0.008  38.093 -0.2417 -0.5074 -0.0829
12464TIP3    H158883   3.712   0.072  38.128 -0.1411 -0.2698 -0.6766
12464TIP3    H258884   3.695  -0.076  38.100 -0.5449 -0.5925  1.1146
12465TIP3   OH258885   0.810   1.649   8.158  0.4520 -0.3654 -0.3338
12465TIP3    H158886   0.846   1.563   8.180 -0.8396 -1.0272 -0.6343
12465TIP3    H258887   0.759   1.633   8.078 -0.7891  0.3937  0.2641
12466TIP3   OH258888   3.082   3.866  36.986 -0.1313  0.7108  0.3966
12466TIP3    H158889   3.147   3.921  37.029 -0.0054  0.9439 -0.0839
12466TIP3    H258890   3.001   3.916  36.992 -0.0210  0.9446 -0.0209
12467TIP3   OH258891   0.831   1.031   0.257  0.3295  0.0908 -0.1681
12467TIP3    H158892   0.896   0.971   0.295 -0.6379  0.3825  2.1542
12467TIP3    H258893   0.857   1.118   0.287 -0.5625  0.3228 -0.0156
12468TIP3   OH258894   3.094   4.147  35.687  0.7005 -0.1110  0.0555
12468TIP3    H158895   3.152   4.115  35.757  2.6290  2.0077 -0.4514
12468TIP3    H258896   3.132   4.111  35.607  0.0912 -0.3505 -0.1278
12469TIP3   OH258897   2.029   1.568  10.200 -0.4995  0.7378 -0.5356
12469TIP3    H158898   2.070   1.553  10.285 -0.4309 -0.0190 -0.6929
12469TIP3    H258899   2.021   1.663  10.193 -2.3175  0.7845  1.1937
12470TIP3   OH258900   3.958   1.654   2.274  0.4654 -0.2304  0.1751
12470TIP3    H158901   3.974   1.719   2.206  1.1367 -0.3550  0.2078
12470TIP3    H258902   3.977   1.570   2.232 -1.3264 -0.5190 -0.1645
12471TIP3   OH258903   0.443   0.303  36.484  0.4900  0.5567 -0.2024
12471TIP3    H158904   0.489   0.386  36.498 -0.8083  1.7939 -2.5461
12471TIP3    H258905   0.443   0.292  36.389 -1.5144 -0.8386 -0.1031
12472TIP3   OH258906   3.976   2.858  27.900 -0.8313  0.5701 -0.1097
12472TIP3    H158907   3.902   2.919  27.899 -0.2772  1.2565 -0.6287
12472TIP3    H258908   4.047   2.906  27.857 -0.0862 -0.0774  0.3680
12473TIP3   OH258909   1.040   1.968  10.636 -0.2670 -0.9473 -0.1692
12473TIP3    H158910   0.992   1.951  10.717  0.1629 -0.6568  0.1552
12473TIP3    H258911   1.106   2.033  10.661  0.9057 -2.0130 -0.3633
12474TIP3   OH258912   4.336   0.740   4.299  0.1127 -0.0386  0.2761
12474TIP3    H158913   4.347   0.646   4.285 -0.3657 -0.1710  0.7903
12474TIP3    H258914   4.272   0.747   4.369  0.0784  0.6758  0.1802
12475TIP3   OH258915   0.248   2.723  10.965 -0.0990  0.2956  0.0957
12475TIP3    H158916   0.246   2.813  10.934  0.0152  0.8135  1.5067
12475TIP3    H258917   0.173   2.681  10.922  1.3522  0.3091 -2.6097
12476TIP3   OH258918   4.177   0.663   3.706 -0.2945  0.2318 -0.0263
12476TIP3    H158919   4.237   0.606   3.753 -0.5432  1.7342  2.2566
12476TIP3    H258920   4.206   0.658   3.615  3.1648  0.6891  0.9075
12477TIP3   OH258921   0.054   4.024   2.846 -0.0774 -0.5231  0.4867
12477TIP3    H158922   0.139   4.048   2.809 -0.0907 -0.6457  0.3726
12477TIP3    H258923   0.019   4.105   2.882  0.5272 -0.6602  1.4250
12478TIP3   OH258924   0.753   4.116  40.431  0.1565  0.2812  0.5059
12478TIP3    H158925   0.723   4.028  40.407  1.7442 -0.1430 -0.0038
12478TIP3    H258926   0.848   4.109  40.434  0.4996  2.5639 -1.9177
12479TIP3   OH258927   0.175   3.655  31.564 -0.4844  0.2410  0.4131
12479TIP3    H158928   0.120   3.729  31.539 -0.9853 -0.5544 -0.9024
12479TIP3    H258929   0.115   3.581  31.568  0.2763 -0.3974  0.1783
12480TIP3   OH258930   3.351   1.206  29.668 -0.1874  0.2447  0.0888
12480TIP3    H158931   3.282   1.243  29.723 -2.1424 -1.4432 -1.0914
12480TIP3    H258932   3.424   1.190  29.727 -1.3061  0.7683  1.6619
12481TIP3   OH258933   2.044   0.730   3.209 -0.2811 -0.0791  0.3097
12481TIP3    H158934   2.012   0.775   3.131  0.2610 -0.9898 -0.4543
12481TIP3    H258935   1.968   0.724   3.267 -0.3665  1.8366  0.4658
12482TIP3   OH258936   2.499   2.930  30.670 -0.2036  0.0370  0.3174
12482TIP3    H158937   2.466   2.927  30.580  1.5131  3.3628 -0.6020
12482TIP3    H258938   2.487   2.841  30.703 -3.3443 -0.7016 -2.2375
12483TIP3   OH258939   0.201   2.628   5.840  0.0297 -0.1784  0.2547
12483TIP3    H158940   0.294   2.614   5.857  0.0350 -0.3541  0.0803
12483TIP3    H258941   0.165   2.541   5.825 -0.2263 -0.1409  0.6314
12484TIP3   OH258942   2.592   1.820   0.931  0.4111  0.1621 -0.6162
12484TIP3    H158943   2.581   1.893   0.870  0.0508  0.7425  0.1243
12484TIP3    H258944   2.649   1.854   1.000 -0.0713 -0.1284 -0.0622
12485TIP3   OH258945   3.756   1.648   4.729  0.4847  0.1523  0.4656
12485TIP3    H158946   3.841   1.606   4.715  0.2102 -0.2668  0.0138
12485TIP3    H258947   3.764   1.733   4.687  0.7473  0.1998  0.6077
12486TIP3   OH258948   3.251   4.353  37.807  0.3161 -0.4124  0.7168
12486TIP3    H158949   3.188   4.359  37.736  0.2300 -0.0180  0.8242
12486TIP3    H258950   3.285   4.264  37.802  0.2004 -0.4336  0.2795
12487TIP3   OH258951   3.226   1.953  36.664 -0.2163 -0.0614  0.3579
12487TIP3    H158952   3.295   2.018  36.650 -1.1697  1.0320  0.5404
12487TIP3    H258953   3.231   1.933  36.758 -0.2837  0.1731  0.4136
12488TIP3   OH258954   3.266   4.393   4.308  0.1940 -0.4362 -0.8717
12488TIP3    H158955   3.199   4.379   4.241 -0.1181 -1.9518 -0.2687
12488TIP3    H258956   3.335   4.331   4.286  1.5352  1.1965 -1.5670
12489TIP3   OH258957   4.353   2.895  29.417  0.1209 -0.0387 -0.4107
12489TIP3    H158958   4.397   2.976  29.390  0.7327 -0.5083 -0.8553
12489TIP3    H258959   4.401   2.826  29.371  1.3864 -0.9056  2.0611
12490TIP3   OH258960   4.061   1.292  23.213  0.4631  0.0378 -0.3313
12490TIP3    H158961   3.990   1.316  23.272  1.0192 -2.3192  1.4426
12490TIP3    H258962   4.141   1.322  23.257  0.7515  0.3690 -1.0554
12491TIP3   OH258963   4.155   4.213   2.712 -0.5690  0.4034 -0.0502
12491TIP3    H158964   4.066   4.246   2.705 -0.3576  1.0464  0.2411
12491TIP3    H258965   4.208   4.274   2.660 -0.3763 -0.3161 -0.7253
12492TIP3   OH258966   2.995   0.579   2.571 -0.2226 -0.7316 -0.1265
12492TIP3    H158967   2.921   0.548   2.623 -0.1288 -0.6440  0.0593
12492TIP3    H258968   2.999   0.673   2.588  0.7997 -0.9522  0.9809
12493TIP3   OH258969   4.202   3.826   4.641 -0.5271  0.1663 -0.3538
12493TIP3    H158970   4.189   3.894   4.708 -1.1664  0.4594 -0.7696
12493TIP3    H258971   4.291   3.795   4.657 -0.0938  1.3452 -0.3689
12494TIP3   OH258972   0.329   3.843  22.940  0.0498 -0.2958  0.4735
12494TIP3    H158973   0.242   3.875  22.963 -0.3401 -1.0254  0.0551
12494TIP3    H258974   0.333   3.754  22.976  0.4681 -0.4166  0.1383
12495TIP3   OH258975   3.777   3.094  28.723 -0.3395  0.2294 -0.6552
12495TIP3    H158976   3.864   3.134  28.719  0.7642 -2.0378 -0.8240
12495TIP3    H258977   3.794   3.000  28.721 -2.7619 -0.2986  0.3987
12496TIP3   OH258978   4.214   0.894  13.447  0.3223  0.0161 -0.3153
12496TIP3    H158979   4.182   0.975  13.409 -2.7742 -1.1954 -0.5509
12496TIP3    H258980   4.221   0.912  13.541 -1.4631  0.2799 -0.2045
12497TIP3   OH258981   2.295   3.424  34.140 -0.2179  0.2041 -0.7355
12497TIP3    H158982   2.348   3.362  34.189 -2.3675 -2.9964 -2.1203
12497TIP3    H258983   2.357   3.470  34.084  1.6091  0.1640  1.1459
12498TIP3   OH258984   3.719   1.269  26.544  0.1173 -0.2897  0.0760
12498TIP3    H158985   3.707   1.267  26.449 -1.8449  1.1259  0.2315
12498TIP3    H258986   3.811   1.249  26.557  0.7185  0.7040 -2.2078
12499TIP3   OH258987   4.215   3.582  23.153  0.8315 -0.1734  0.0529
12499TIP3    H158988   4.212   3.611  23.244 -1.3051  1.3048 -0.4130
12499TIP3    H258989   4.167   3.650  23.105  2.5590 -0.4927 -2.3202
12500TIP3   OH258990   3.467   0.509   3.259 -0.6597 -0.0243  0.3387
12500TIP3    H158991   3.543   0.461   3.292 -0.6907  0.8443  1.7630
12500TIP3    H258992   3.502   0.593   3.232 -0.8514 -0.2641 -0.6829
12501TIP3   OH258993   0.526   2.983   1.547  0.7244  0.3621  0.0665
12501TIP3    H158994   0.565   2.900   1.573  0.9744  0.1774 -0.8706
12501TIP3    H258995   0.444   2.987   1.597 -0.5324 -1.6176 -1.6742
12502TIP3   OH258996   4.331   4.361  32.772  1.2125  0.0063  0.4312
12502TIP3    H158997   4.359   4.270  32.779  0.6856 -0.1718  0.2657
12502TIP3    H258998   4.284   4.377  32.854  0.9965  0.0219  0.3032
12503TIP3   OH258999   3.710   4.208   3.195  0.0662 -0.1715  0.2284
12503TIP3    H159000   3.774   4.143   3.223  2.2478  1.6471 -0.2116
12503TIP3    H259001   3.717   4.278   3.261 -0.0938  0.8613 -0.8071
12504TIP3   OH259002   3.866   2.845   2.850 -0.1141  0.0187 -0.8878
12504TIP3    H159003   3.943   2.847   2.908  0.3911 -2.3265 -1.3665
12504TIP3    H259004   3.902   2.854   2.762 -0.7290  1.9279 -0.9864
12505TIP3   OH259005   0.048   0.988  31.310  0.4018  0.1244 -0.1635
12505TIP3    H159006  -0.001   1.005  31.230  0.6171 -0.0348 -0.3354
12505TIP3    H259007  -0.004   0.923  31.357  0.0104  0.6085  0.0822
12506TIP3   OH259008   4.252   2.779  31.082  0.0066  0.1098  0.2969
12506TIP3    H159009   4.304   2.855  31.107 -0.3417  0.4494 -0.0114
12506TIP3    H259010   4.250   2.724  31.161  0.3124  0.3846  0.4958
12507TIP3   OH259011   1.698   1.926  30.902 -0.3896 -0.1284  0.1197
12507TIP3    H159012   1.671   1.951  30.990 -1.2393 -1.6266  0.3098
12507TIP3    H259013   1.621   1.939  30.848 -0.1373 -0.0585 -0.2279
12508TIP3   OH259014   3.375   3.118  35.421  0.4547  0.3372  0.2976
12508TIP3    H159015   3.465   3.085  35.422  0.0750 -0.7858  2.0491
12508TIP3    H259016   3.337   3.083  35.341  1.4072  0.3260 -0.1566
12509TIP3   OH259017   3.927   2.807  27.201 -0.6653 -0.6716 -0.3912
12509TIP3    H159018   4.003   2.856  27.168 -0.2494 -0.0663  1.3423
12509TIP3    H259019   3.871   2.796  27.124  0.0264  1.0584 -1.2198
12510TIP3   OH259020   3.510   1.236   8.481 -0.2427  0.4225 -0.2895
12510TIP3    H159021   3.487   1.269   8.394 -0.2594  1.7061  0.1888
12510TIP3    H259022   3.541   1.146   8.465 -0.8816  0.4039 -1.5304
12511TIP3   OH259023   3.208   3.825   4.333  0.0018  0.3566 -0.0760
12511TIP3    H159024   3.212   3.901   4.391  2.2144  0.4302 -0.2404
12511TIP3    H259025   3.267   3.761   4.373 -0.2326 -0.4818 -1.0310
12512TIP3   OH259026   0.728   3.096  39.417 -0.4963 -0.1751 -0.0858
12512TIP3    H159027   0.730   3.042  39.496  0.3962  0.7784  0.5763
12512TIP3    H259028   0.663   3.164  39.437 -2.0321 -1.2766 -1.1303
12513TIP3   OH259029   1.029   1.480  34.996  0.0283  0.1973 -0.2748
12513TIP3    H159030   1.052   1.440  35.080  1.2675 -1.4472 -1.3271
12513TIP3    H259031   1.103   1.537  34.975 -0.9403  1.7828  0.3780
12514TIP3   OH259032   2.653   1.121   1.271 -0.8471 -0.2096  0.2112
12514TIP3    H159033   2.580   1.180   1.250 -0.3628  0.8457  1.3198
12514TIP3    H259034   2.612   1.046   1.314 -1.5943 -1.2999 -2.2285
12515TIP3   OH259035   0.744   2.161  11.929 -0.1309 -0.3888  0.1086
12515TIP3    H159036   0.749   2.246  11.973 -1.1448 -0.7268  0.9060
12515TIP3    H259037   0.817   2.162  11.867  1.1458  0.2337  1.5590
12516TIP3   OH259038   1.297   3.348   5.777 -0.0748  0.2247  0.1025
12516TIP3    H159039   1.360   3.418   5.792 -0.9862  1.1730 -0.3978
12516TIP3    H259040   1.306   3.327   5.684  1.3499 -1.5099  0.5551
12517TIP3   OH259041   0.101   1.537  32.141  0.4176 -0.3899  0.4943
12517TIP3    H159042   0.087   1.616  32.193  0.9620 -0.5097  0.8321
12517TIP3    H259043   0.034   1.476  32.171  0.1862 -0.1599  0.4436
12518TIP3   OH259044   0.490   2.034  31.497  0.3691 -0.5053  0.1731
12518TIP3    H159045   0.477   2.008  31.589  0.6824 -0.2846  0.2819
12518TIP3    H259046   0.432   1.976  31.448  0.1146 -0.5538  0.5211
12519TIP3   OH259047   1.649   0.970   4.860 -0.2647  0.0473 -0.6528
12519TIP3    H159048   1.734   0.978   4.817  0.4976  1.7790  1.0321
12519TIP3    H259049   1.587   1.010   4.798  0.4028  0.2690 -1.1902
12520TIP3   OH259050   3.602   0.720  36.915  0.3059  0.2215  0.3996
12520TIP3    H159051   3.632   0.666  36.842 -0.8032  0.3510 -0.1760
12520TIP3    H259052   3.508   0.732  36.899 -0.1551 -0.4734  2.3088
12521TIP3   OH259053   2.315   2.503  30.915 -0.4397  0.0899  0.7329
12521TIP3    H159054   2.304   2.467  30.827 -1.7320 -0.6303  1.1669
12521TIP3    H259055   2.382   2.448  30.956  1.2392  1.3365 -0.2639
12522TIP3   OH259056   0.980   4.000   8.838 -0.0888 -1.3510 -0.1132
12522TIP3    H159057   1.060   4.048   8.815 -0.7652 -0.3423 -0.4249
12522TIP3    H259058   0.977   3.927   8.775  0.2578 -1.0346 -0.5008
12523TIP3   OH259059   1.743   3.031  26.935  0.1538  0.3127 -0.0030
12523TIP3    H159060   1.826   2.985  26.949  0.7966  1.5170  0.2018
12523TIP3    H259061   1.765   3.105  26.879 -0.8553  0.4575 -0.2337
12524TIP3   OH259062   2.700   3.643  27.744 -0.4266  0.2357  0.1828
12524TIP3    H159063   2.744   3.573  27.793 -1.7172  0.2183  1.3907
12524TIP3    H259064   2.731   3.724  27.785 -0.7078  0.2622  0.3485
12525TIP3   OH259065   1.437   2.555  31.874  0.3647 -0.1356 -0.0779
12525TIP3    H159066   1.502   2.604  31.924 -1.6647  1.5663  1.0698
12525TIP3    H259067   1.427   2.604  31.792 -0.5874  0.6031  0.4455
12526TIP3   OH259068   0.246   2.429  35.884  0.2239  0.0334  0.0359
12526TIP3    H159069   0.335   2.458  35.867  0.5539  0.1418  1.8183
12526TIP3    H259070   0.239   2.424  35.979 -1.2903 -1.1761 -0.0886
12527TIP3   OH259071   1.319   3.967   0.891  0.0734 -0.1454 -0.1820
12527TIP3    H159072   1.390   3.944   0.830  1.2311  0.9368  0.7208
12527TIP3    H259073   1.239   3.947   0.842  0.9547  1.0597 -2.2424
12528TIP3   OH259074   3.950   1.995  32.369 -0.8666 -0.0172 -0.4386
12528TIP3    H159075   3.937   1.926  32.434  0.6570  0.6192  0.6010
12528TIP3    H259076   3.927   1.954  32.285 -1.9217 -1.1530  0.3880
12529TIP3   OH259077   3.329   3.109   4.048 -0.2017  0.2823 -0.1400
12529TIP3    H159078   3.256   3.061   4.088 -0.2972 -1.1951 -1.9778
12529TIP3    H259079   3.407   3.074   4.091 -0.3576 -0.6976 -0.6330
12530TIP3   OH259080   2.187   3.738  40.198 -0.4289  0.1730  0.1503
12530TIP3    H159081   2.224   3.650  40.191 -2.6469 -0.9931  1.8329
12530TIP3    H259082   2.231   3.777  40.273 -0.2024  0.0838  0.0637
12531TIP3   OH259083   3.889   3.670  12.049  0.0114  0.5399  0.5047
12531TIP3    H159084   3.942   3.731  12.101  0.4728 -1.8997  3.1533
12531TIP3    H259085   3.951   3.631  11.987  0.3528  0.6973  0.7444
12532TIP3   OH259086   3.537   1.765  35.104 -0.1022  0.2185 -0.4442
12532TIP3    H159087   3.596   1.815  35.160 -0.2801  1.5229 -1.3758
12532TIP3    H259088   3.450   1.802  35.121 -0.5745 -1.1352  0.3105
12533TIP3   OH259089   3.441   0.526  27.415  0.3561  0.0192  0.2497
12533TIP3    H159090   3.469   0.463  27.481 -2.8591 -0.2711  1.5362
12533TIP3    H259091   3.478   0.610  27.444 -3.5502  0.6226  4.6307
12534TIP3   OH259092   1.928   1.311  32.944  0.1819 -0.6087 -0.8582
12534TIP3    H159093   2.006   1.262  32.970  0.6542 -0.0065 -1.1160
12534TIP3    H259094   1.957   1.403  32.940 -0.6120 -0.3390 -0.6604
12535TIP3   OH259095   0.295   2.700  13.837 -0.5498 -0.6525  0.6740
12535TIP3    H159096   0.388   2.708  13.819 -0.1745  0.3263  2.7742
12535TIP3    H259097   0.290   2.661  13.925 -2.0402  1.2228  1.5012
12536TIP3   OH259098   4.021   0.188  32.784  0.2719 -0.3962  0.1012
12536TIP3    H159099   4.074   0.151  32.713  0.8498  0.2382  0.1932
12536TIP3    H259100   3.977   0.113  32.823  2.6349 -1.2623  1.2984
12537TIP3   OH259101   3.035   1.495  37.546  0.5377 -0.4349  0.0729
12537TIP3    H159102   3.077   1.424  37.499  2.9469  0.9810 -0.0884
12537TIP3    H259103   3.045   1.572  37.490  0.1382  0.5268  1.2479
12538TIP3   OH259104   0.606   0.085   5.478  0.4644  0.2324  0.4669
12538TIP3    H159105   0.588  -0.004   5.448  2.3430 -0.0716  0.0705
12538TIP3    H259106   0.575   0.087   5.568 -1.9262  0.0103 -0.2887
12539TIP3   OH259107   0.579   2.028  28.167  0.2589  0.5502 -0.0599
12539TIP3    H159108   0.489   2.054  28.187 -0.5082 -0.4776 -1.9206
12539TIP3    H259109   0.576   1.933  28.161  1.2571  0.5578 -1.0537
12540TIP3   OH259110   1.489   4.099  17.039 -0.3941  0.2634  0.5450
12540TIP3    H159111   1.436   4.065  16.967 -0.3612 -2.1929  1.5527
12540TIP3    H259112   1.565   4.139  16.996 -0.9333 -0.1135 -0.8203
12541TIP3   OH259113   1.834   0.792   1.194  0.2731  1.5804  0.5934
12541TIP3    H159114   1.787   0.797   1.278  0.4021 -4.4750  1.4796
12541TIP3    H259115   1.925   0.813   1.216  0.1106  1.1560  1.7329
12542TIP3   OH259116   2.648   3.866  37.851  0.3225 -0.1605 -0.0856
12542TIP3    H159117   2.672   3.856  37.759 -0.6608  1.1331 -0.5117
12542TIP3    H259118   2.576   3.804  37.864 -0.7164  0.8661 -0.6933
12543TIP3   OH259119   3.516   3.628   4.802 -0.1876 -0.3302  0.0470
12543TIP3    H159120   3.560   3.675   4.873 -0.9441 -0.5322  0.6679
12543TIP3    H259121   3.487   3.697   4.743 -1.6822  0.0815  1.1795
12544TIP3   OH259122   1.705   2.074   8.550  0.3560 -0.3264 -0.1267
12544TIP3    H159123   1.656   2.140   8.599  0.1686  0.0839 -0.8661
12544TIP3    H259124   1.792   2.074   8.590 -0.3054 -1.3214  1.4537
12545TIP3   OH259125   4.294   2.850  26.212  0.1056  0.0366  0.4870
12545TIP3    H159126   4.303   2.945  26.203  1.8631 -0.1448 -0.2603
12545TIP3    H259127   4.229   2.826  26.147  0.2703  0.6547  0.0808
12546TIP3   OH259128   4.105   0.513   2.108 -0.0016  0.3966  0.2372
12546TIP3    H159129   4.137   0.423   2.104  1.8878  1.0540 -1.0555
12546TIP3    H259130   4.030   0.514   2.048 -0.8390 -0.5796  1.2421
12547TIP3   OH259131   2.364   0.801   5.200  0.1463  0.0144  0.1895
12547TIP3    H159132   2.315   0.773   5.123  0.9375  0.6273 -0.5589
12547TIP3    H259133   2.455   0.803   5.170  0.4039  0.7624  0.9949
12548TIP3   OH259134   3.039   2.599  41.512 -0.3901 -0.3274  0.1229
12548TIP3    H159135   2.945   2.590  41.494 -0.4307 -0.9511  0.6166
12548TIP3    H259136   3.057   2.692  41.501 -1.3983  0.0698  1.6074
12549TIP3   OH259137   3.997   2.879   1.866  0.1141 -0.6560 -0.2006
12549TIP3    H159138   4.091   2.897   1.862  0.8246 -3.7017  0.1328
12549TIP3    H259139   3.962   2.947   1.923  2.2368  0.1108  0.2893
12550TIP3   OH259140   3.979   3.466   1.758  0.6463 -0.0231 -0.1319
12550TIP3    H159141   3.980   3.371   1.764  1.1871 -0.0744 -0.8237
12550TIP3    H259142   4.071   3.490   1.742  0.5577  0.6313  0.2941
12551TIP3   OH259143   1.779   3.613  10.327  0.4022  0.0344  0.5903
12551TIP3    H159144   1.817   3.650  10.407 -0.5972  0.8849  0.6864
12551TIP3    H259145   1.729   3.684  10.289  1.7660 -0.0163 -1.4381
12552TIP3   OH259146   1.447   1.928  39.671 -0.4867 -0.2705  0.3948
12552TIP3    H159147   1.438   1.902  39.763  0.5716  1.6806  1.1015
12552TIP3    H259148   1.359   1.955  39.645 -1.0642 -1.9884  0.3949
12553TIP3   OH259149   2.797   2.172   4.595  0.9246 -0.0239  0.0569
12553TIP3    H159150   2.805   2.090   4.645 -0.3870 -0.4397 -0.3615
12553TIP3    H259151   2.844   2.155   4.513 -1.7884 -1.5098 -1.3258
12554TIP3   OH259152   0.275   1.456  38.803  0.1352 -0.4412 -0.3616
12554TIP3    H159153   0.297   1.518  38.873  0.5251 -1.9610  0.9204
12554TIP3    H259154   0.211   1.502  38.750  2.2085  2.0284 -0.9467
12555TIP3   OH259155   3.140   3.568  12.800 -0.5524 -0.0220 -0.1857
12555TIP3    H159156   3.058   3.611  12.825 -0.9995 -0.0554 -1.5173
12555TIP3    H259157   3.118   3.474  12.798 -0.4598 -0.0365 -0.4821
12556TIP3   OH259158   3.082   0.841   9.450  0.1432  0.2159  0.5761
12556TIP3    H159159   3.113   0.921   9.407 -1.0022  0.2235 -0.2818
12556TIP3    H259160   3.027   0.872   9.522  1.3258  0.1967  1.5090
12557TIP3   OH259161   1.140   0.229  39.571  0.0792 -0.1655 -0.3037
12557TIP3    H159162   1.232   0.241  39.546  0.2134 -0.0498  0.2288
12557TIP3    H259163   1.090   0.256  39.494  0.5217 -1.7015 -1.1658
12558TIP3   OH259164   4.222   2.549   1.380 -0.2512  0.3401  0.0368
12558TIP3    H159165   4.200   2.539   1.473  1.3303  1.7543  0.6232
12558TIP3    H259166   4.312   2.581   1.381 -0.0643 -0.0263 -2.0250
12559TIP3   OH259167   1.512   2.006  31.734 -0.1443  0.0843 -0.0216
12559TIP3    H159168   1.538   2.071  31.668 -0.2322 -0.1240 -0.2628
12559TIP3    H259169   1.594   1.983  31.778 -0.0853  0.2262 -0.0560
12560TIP3   OH259170   4.105   1.956   5.706 -0.1170 -0.1552  0.3712
12560TIP3    H159171   4.066   1.869   5.697  2.1406 -1.1008 -1.2936
12560TIP3    H259172   4.037   2.016   5.674 -1.7280 -1.2499  1.5742
12561TIP3   OH259173   1.467   0.854   4.084  0.4285  0.2627 -0.1566
12561TIP3    H159174   1.552   0.824   4.052  0.6010  2.2354 -1.7176
12561TIP3    H259175   1.487   0.909   4.159  0.2801 -1.3603  1.1394
12562TIP3   OH259176   2.357   3.553  33.874 -0.4571 -0.0673 -0.2547
12562TIP3    H159177   2.348   3.611  33.950 -1.0682 -1.4955  0.8152
12562TIP3    H259178   2.275   3.563  33.826  0.0028  0.9761 -0.8645
12563TIP3   OH259179   1.261   1.243  34.068  0.0679 -0.0614  0.5389
12563TIP3    H159180   1.306   1.216  34.148 -0.6416  0.4880  1.1411
12563TIP3    H259181   1.215   1.165  34.038  0.5320 -0.3341  0.5205
12564TIP3   OH259182   1.768   1.211  41.298 -0.5655  0.0845  0.2202
12564TIP3    H159183   1.683   1.220  41.341  0.4971  0.8271  2.3002
12564TIP3    H259184   1.828   1.187  41.368  1.5793  2.9810 -0.4311
12565TIP3   OH259185   2.028   0.057  19.454 -0.3414  0.7474  0.0208
12565TIP3    H159186   2.097   0.047  19.519  0.4607  2.8957 -0.4044
12565TIP3    H259187   1.947   0.053  19.505  0.2326  1.3152  1.0196
12566TIP3   OH259188   4.240   0.451  38.268 -0.4591  0.2497 -0.1303
12566TIP3    H159189   4.256   0.371  38.218  0.2720  0.4930 -0.3050
12566TIP3    H259190   4.210   0.421  38.354 -0.4627 -0.2056 -0.2872
12567TIP3   OH259191   3.090   2.941  39.131 -0.2948 -0.0203  0.1521
12567TIP3    H159192   3.153   2.876  39.099 -1.3622 -1.4319  0.8005
12567TIP3    H259193   3.110   2.950  39.224 -1.0418 -0.4757  0.3584
12568TIP3   OH259194   3.613   3.174   3.825 -0.0354  0.5087 -0.4222
12568TIP3    H159195   3.576   3.253   3.786  0.9708  1.5733  0.6755
12568TIP3    H259196   3.588   3.179   3.917 -2.1102 -1.7870 -0.7533
12569TIP3   OH259197   1.508   1.649  36.380 -0.0959  0.4514 -0.5299
12569TIP3    H159198   1.459   1.584  36.430  0.8254 -0.0620 -0.2712
12569TIP3    H259199   1.448   1.676  36.310 -0.1460 -1.4456 -1.2871
12570TIP3   OH259200   2.485   3.358  28.464 -0.1201  0.2731  0.1634
12570TIP3    H159201   2.470   3.343  28.557  2.2708 -0.5184  0.4812
12570TIP3    H259202   2.537   3.438  28.460 -1.0292  0.8563 -0.6033
12571TIP3   OH259203   3.496   2.516  29.760  0.0650 -0.1461 -0.0133
12571TIP3    H159204   3.468   2.430  29.790 -0.6849 -0.0998 -0.5274
12571TIP3    H259205   3.544   2.499  29.679  0.4339 -0.1249  0.2009
12572TIP3   OH259206   4.075   1.550  32.487 -0.8285  0.6478 -0.3279
12572TIP3    H159207   3.992   1.502  32.488 -1.1627  1.1186  2.2939
12572TIP3    H259208   4.139   1.486  32.456 -1.8221 -0.3974 -0.2991
12573TIP3   OH259209   2.007   2.715  34.212  0.2375  0.2558 -0.0590
12573TIP3    H159210   2.054   2.790  34.176 -0.9755  1.0392 -0.0412
12573TIP3    H259211   1.927   2.709  34.160  0.3594 -1.1003 -0.1223
12574TIP3   OH259212   3.645   3.653  39.558 -0.1625  0.6270 -0.0643
12574TIP3    H159213   3.718   3.698  39.599 -0.3514  0.0807  0.8963
12574TIP3    H259214   3.641   3.689  39.469  0.8544  1.1281  0.0858
12575TIP3   OH259215   4.329   1.074  33.519 -0.1502  0.4452  0.4167
12575TIP3    H159216   4.410   1.125  33.508 -0.3661  1.0216  1.3586
12575TIP3    H259217   4.318   1.028  33.436  1.2789  0.1617  0.3595
12576TIP3   OH259218   4.295   1.774   5.394  0.2440 -0.4102  0.4797
12576TIP3    H159219   4.370   1.737   5.346  0.4629 -0.1864  0.6519
12576TIP3    H259220   4.308   1.745   5.484  1.2329  1.3307  0.9362
12577TIP3   OH259221   3.034   0.573  30.733  0.1407  0.2197  0.6808
12577TIP3    H159222   2.982   0.499  30.763  0.2211 -0.0429  0.1814
12577TIP3    H259223   2.979   0.617  30.668  1.3678 -1.3807 -1.5782
12578TIP3   OH259224   2.232   4.110  27.673  0.0971  0.4667  0.5158
12578TIP3    H159225   2.184   4.147  27.747 -1.0172 -0.0366  0.0632
12578TIP3    H259226   2.304   4.062  27.713 -0.7907 -0.2300  1.3116
12579TIP3   OH259227   3.479   3.043  40.587  0.0510  0.2840 -0.1863
12579TIP3    H159228   3.537   3.018  40.516  0.0288  2.1189 -0.8985
12579TIP3    H259229   3.523   3.014  40.666  1.1794  0.2458 -0.8186
12580TIP3   OH259230   2.599   1.732  33.451 -0.2008 -0.1230  0.2862
12580TIP3    H159231   2.590   1.703  33.360 -1.1203 -0.4199  0.4598
12580TIP3    H259232   2.577   1.825  33.450  0.4403  0.0311  0.1042
12581TIP3   OH259233   2.483   2.723   9.035 -0.4631 -0.0138  0.6403
12581TIP3    H159234   2.551   2.684   8.980 -1.0741  1.1848 -1.0657
12581TIP3    H259235   2.530   2.761   9.109  0.4446 -1.2802  0.7434
12582TIP3   OH259236   1.336   1.440  14.670  0.3650  0.2631  0.2486
12582TIP3    H159237   1.342   1.370  14.736 -0.6603  1.8257  2.0959
12582TIP3    H259238   1.282   1.403  14.600  1.2853 -1.3608  0.3455
12583TIP3   OH259239   2.692   1.716  35.713  0.4464  0.6386  0.2526
12583TIP3    H159240   2.650   1.782  35.657 -0.3313  0.3037  0.4215
12583TIP3    H259241   2.618   1.670  35.754  1.0026  0.5761  1.1974
12584TIP3   OH259242   4.194   1.136  31.851  0.3729  0.2275  0.1115
12584TIP3    H159243   4.213   1.055  31.898 -0.2141 -0.3613 -0.6305
12584TIP3    H259244   4.207   1.205  31.916 -0.0269 -0.5242  1.0236
12585TIP3   OH259245   2.543   1.354   8.175 -0.1022 -0.1808 -0.7102
12585TIP3    H159246   2.490   1.434   8.169  0.3188  0.0837 -0.9736
12585TIP3    H259247   2.520   1.317   8.260 -1.1722 -0.3989 -1.0768
12586TIP3   OH259248   0.244   3.576  33.539 -0.1028 -0.4405  0.6992
12586TIP3    H159249   0.270   3.484  33.533  0.5786 -0.4064  2.4971
12586TIP3    H259250   0.303   3.613  33.604 -0.9329  1.0732  0.6291
12587TIP3   OH259251   1.809   3.883  11.412 -0.7020  0.1309 -0.1922
12587TIP3    H159252   1.823   3.917  11.324 -0.9463 -0.5245 -0.4844
12587TIP3    H259253   1.721   3.844  11.409 -0.5757 -0.1906  0.2472
12588TIP3   OH259254   3.618   3.644   0.454  0.1772 -0.4176  0.1376
12588TIP3    H159255   3.632   3.703   0.379 -0.0236 -0.7418 -0.1539
12588TIP3    H259256   3.611   3.557   0.415 -0.8568 -0.4818  0.4437
12589TIP3   OH259257   1.019   2.713  31.894 -0.3757  0.4318  0.5630
12589TIP3    H159258   0.999   2.620  31.908  1.0541 -0.2746 -1.5279
12589TIP3    H259259   0.970   2.758  31.962 -0.7118 -1.8873  1.9969
12590TIP3   OH259260   1.566   0.902  28.183  0.0704  0.4173 -0.1047
12590TIP3    H159261   1.652   0.919  28.144  0.1008  0.3735 -0.0567
12590TIP3    H259262   1.505   0.949  28.127  0.1109  0.3243 -0.2281
12591TIP3   OH259263   3.084   2.649   0.770  0.1871  0.0070  0.5316
12591TIP3    H159264   3.064   2.579   0.708  1.0807  0.5870 -0.4630
12591TIP3    H259265   2.999   2.684   0.795 -0.2595 -1.3053  0.9064
12592TIP3   OH259266   1.162   3.091  13.348  0.0461 -0.3430 -0.8284
12592TIP3    H159267   1.099   3.162  13.356  1.0813  0.3862  2.5314
12592TIP3    H259268   1.109   3.011  13.347 -1.0349  0.3166 -2.9733
12593TIP3   OH259269   0.752   3.968  14.151 -0.3306 -0.4383  0.2952
12593TIP3    H159270   0.724   4.059  14.139 -1.8445 -0.6846  1.5626
12593TIP3    H259271   0.679   3.916  14.117 -0.4997 -1.1389  1.6416
12594TIP3   OH259272   3.956   1.249  37.478 -0.8608  0.0288 -0.0160
12594TIP3    H159273   3.924   1.165  37.512 -2.0119  0.8137  0.8959
12594TIP3    H259274   3.905   1.315  37.524  1.0671  1.3069  0.4143
12595TIP3   OH259275   4.165   2.489  31.738  0.9777 -0.1278  0.4864
12595TIP3    H159276   4.149   2.563  31.795  1.2621  0.1713  0.1837
12595TIP3    H259277   4.149   2.412  31.793  0.5086  0.1543  0.7510
12596TIP3   OH259278   3.012   2.291  41.215 -0.3531  0.3177 -0.6733
12596TIP3    H159279   3.077   2.278  41.147 -1.9288 -1.0077 -2.0009
12596TIP3    H259280   2.985   2.383  41.205  1.1931  0.8639 -0.1439
12597TIP3   OH259281   1.157   2.511  40.697 -0.0952 -0.5121 -0.1117
12597TIP3    H159282   1.119   2.431  40.733  0.5972 -1.1256 -0.7120
12597TIP3    H259283   1.152   2.574  40.769  1.8318 -1.8694  1.3403
12598TIP3   OH259284   0.476   3.670  38.309 -0.2773 -0.0356  0.0336
12598TIP3    H159285   0.523   3.752  38.327  0.5842 -0.5269  0.0936
12598TIP3    H259286   0.384   3.695  38.305  0.0123  1.0044 -0.3463
12599TIP3   OH259287   2.115   2.225  40.516 -0.2932  0.7087  0.2156
12599TIP3    H159288   2.133   2.132  40.530  1.5193  1.1909  1.5024
12599TIP3    H259289   2.038   2.243  40.569 -2.0684 -0.4582 -1.7760
12600TIP3   OH259290   3.681   3.280  24.354 -0.2445  0.0788 -0.2312
12600TIP3    H159291   3.747   3.328  24.404 -0.8042  0.4125  0.1930
12600TIP3    H259292   3.598   3.302  24.396 -0.6134 -0.4560 -0.6693
12601TIP3   OH259293   4.107   0.811  37.494 -0.1453 -0.8367 -0.1825
12601TIP3    H159294   4.060   0.728  37.505  1.1447 -1.5250  0.3439
12601TIP3    H259295   4.159   0.820  37.573 -0.5665  0.7155 -0.0438
12602TIP3   OH259296   3.259   3.541  39.356 -0.2814 -0.6732 -0.7258
12602TIP3    H159297   3.307   3.555  39.274  0.0667 -1.4510 -0.6681
12602TIP3    H259298   3.323   3.501  39.415 -0.4833  0.0257 -0.0213
12603TIP3   OH259299   4.117   3.321  34.923 -0.0729 -0.2016  0.1651
12603TIP3    H159300   4.073   3.246  34.962 -2.0043  1.0229  0.4701
12603TIP3    H259301   4.113   3.306  34.829 -0.4073 -0.5056  0.2294
12604TIP3   OH259302   4.162   0.527   6.718 -0.2898  0.0632  0.0765
12604TIP3    H159303   4.119   0.500   6.636 -1.0561 -1.3721  0.9232
12604TIP3    H259304   4.202   0.447   6.752 -0.8081  0.4211  1.5949
12605TIP3   OH259305   3.126   3.856  10.290  0.4801 -0.0756  0.3117
12605TIP3    H159306   3.154   3.769  10.265  0.7681  0.3759 -1.0017
12605TIP3    H259307   3.207   3.905  10.305  0.3494  0.3251 -0.2624
12606TIP3   OH259308   2.977   2.331   1.512  0.2245 -0.2536  0.4613
12606TIP3    H159309   3.022   2.410   1.543  0.7074 -0.4982  0.3955
12606TIP3    H259310   3.003   2.323   1.420  1.4210 -1.3361  0.8692
12607TIP3   OH259311   3.388   0.331   2.066  0.5867 -0.4714 -0.1868
12607TIP3    H159312   3.455   0.265   2.049 -0.5325 -1.7350  0.0979
12607TIP3    H259313   3.309   0.280   2.083 -0.3124  0.9622  0.0626
12608TIP3   OH259314   0.227   0.058   8.051 -0.1938 -0.6965  0.7829
12608TIP3    H159315   0.241   0.098   8.137  3.3503  0.5554 -0.1846
12608TIP3    H259316   0.299  -0.005   8.042  0.4877  0.3229 -1.8048
12609TIP3   OH259317   0.558   2.613  39.075 -0.5617  0.2567  0.0848
12609TIP3    H159318   0.556   2.697  39.121 -0.3582  0.7394 -0.7776
12609TIP3    H259319   0.498   2.623  39.002 -0.1211 -0.1516 -0.3467
12610TIP3   OH259320   2.630   4.230  31.935  0.0566  0.1560 -0.6886
12610TIP3    H159321   2.724   4.215  31.921  0.8985  0.9650  3.1814
12610TIP3    H259322   2.600   4.153  31.983 -0.8222  0.7584 -0.2406
12611TIP3   OH259323   3.855   3.866  38.111 -0.2829 -0.1749 -0.0315
12611TIP3    H159324   3.936   3.864  38.161 -0.7355 -0.2103  0.7222
12611TIP3    H259325   3.789   3.897  38.173 -0.6672  0.7744 -0.8895
12612TIP3   OH259326   0.139   1.145   5.940 -0.2490 -0.1322 -0.4994
12612TIP3    H159327   0.070   1.090   5.979 -0.3327  0.5779  0.3892
12612TIP3    H259328   0.093   1.225   5.914  0.1789  0.1941 -0.2465
12613TIP3   OH259329   1.341   3.096  26.795  0.2508  0.6054  0.1479
12613TIP3    H159330   1.417   3.059  26.838  0.2859  1.7562  1.1080
12613TIP3    H259331   1.293   3.142  26.864 -0.9182  0.5363 -0.5814
12614TIP3   OH259332   3.801   4.274   3.700  0.6061 -0.2287  0.5402
12614TIP3    H159333   3.797   4.365   3.730  0.4728  1.1095 -3.0062
12614TIP3    H259334   3.886   4.268   3.656 -0.1656 -1.1654 -0.9046
12615TIP3   OH259335   1.664   1.036  16.647 -0.3537 -0.2631 -0.2440
12615TIP3    H159336   1.695   0.945  16.648 -1.7113 -0.7503  1.4228
12615TIP3    H259337   1.670   1.065  16.738  1.1744  1.7689 -0.9182
12616TIP3   OH259338   0.672   3.107   7.688 -0.7400 -0.4152 -0.6406
12616TIP3    H159339   0.742   3.144   7.633  0.3544  0.2276  1.1125
12616TIP3    H259340   0.718   3.069   7.762 -2.2826  0.5339  0.8606
12617TIP3   OH259341   2.825   1.146   7.825 -0.0023 -0.6160  0.0727
12617TIP3    H159342   2.842   1.179   7.913 -0.9457 -1.7627  0.7215
12617TIP3    H259343   2.797   1.222   7.775 -0.7383 -0.1842  1.1300
12618TIP3   OH259344   1.917   4.112  11.966  0.3485 -0.6433 -0.2735
12618TIP3    H159345   1.915   4.064  12.049 -1.2186  0.4169  0.3596
12618TIP3    H259346   1.974   4.187  11.983 -0.3987 -0.1297  0.0643
12619TIP3   OH259347   3.845   2.922  39.729  0.3250 -0.2913  0.1694
12619TIP3    H159348   3.750   2.926  39.741  0.6162 -0.5742  3.4633
12619TIP3    H259349   3.881   2.958  39.810  3.0345 -1.3784 -0.4331
12620TIP3   OH259350   0.189   3.427  35.352  0.5110  0.2329 -0.2584
12620TIP3    H159351   0.127   3.356  35.337  0.6191  0.1183 -0.1709
12620TIP3    H259352   0.140   3.507  35.334 -0.3684  0.2854  2.0109
12621TIP3   OH259353   4.035   3.830  37.310 -0.2156 -0.1453  0.9084
12621TIP3    H159354   4.060   3.807  37.400  1.5114  0.8535  0.7131
12621TIP3    H259355   4.113   3.869  37.272 -0.2859 -2.1946 -1.6604
12622TIP3   OH259356   3.217   3.177   3.313  0.3982  0.3853  0.4096
12622TIP3    H159357   3.296   3.231   3.317  2.2339 -2.1372  0.5637
12622TIP3    H259358   3.236   3.111   3.247  0.1314 -2.6992  3.1371
12623TIP3   OH259359   4.350   0.396   5.163  0.3098 -0.0869 -0.3075
12623TIP3    H159360   4.375   0.329   5.100  0.7441 -0.1080 -0.1186
12623TIP3    H259361   4.306   0.348   5.233 -1.9210  0.1437 -1.4658
12624TIP3   OH259362   4.033   1.880  40.164 -0.7084 -0.1579 -0.3568
12624TIP3    H159363   4.122   1.888  40.128 -0.5563 -0.5778 -0.0876
12624TIP3    H259364   4.009   1.969  40.189  0.0974 -0.1931  0.6448
12625TIP3   OH259365   1.494   2.538  40.904 -0.0918 -0.4766  0.4491
12625TIP3    H159366   1.435   2.525  40.979 -1.0270  1.9450  0.2309
12625TIP3    H259367   1.570   2.582  40.940  0.2301 -0.8565  0.2430
12626TIP3   OH259368   1.756   1.364   9.798 -0.4485 -0.1062 -0.5249
12626TIP3    H159369   1.820   1.329   9.736  0.2361  0.4845 -0.1598
12626TIP3    H259370   1.770   1.314   9.878 -0.7155 -0.2492 -0.5666
12627TIP3   OH259371   2.383   1.584  41.008 -0.6525  0.3914  0.0582
12627TIP3    H159372   2.364   1.577  40.914 -0.1918 -2.2476  0.0701
12627TIP3    H259373   2.457   1.644  41.013  0.4620 -0.7424 -1.5160
12628TIP3   OH259374   0.800   3.451  11.748  0.0380 -0.3771 -0.4364
12628TIP3    H159375   0.863   3.409  11.806  1.4014  1.2696 -0.6427
12628TIP3    H259376   0.758   3.519  11.801  0.4346  0.3439 -1.0189
12629TIP3   OH259377   3.947   2.734   5.758  0.3103 -0.0314  0.2032
12629TIP3    H159378   3.915   2.817   5.724  2.6536  1.6548  1.8380
12629TIP3    H259379   3.894   2.718   5.836  0.7174  0.6078  0.6125
12630TIP3   OH259380   4.280   4.372   0.894  0.1305  0.0697 -0.1254
12630TIP3    H159381   4.255   4.282   0.871 -0.0971 -0.1320  0.8488
12630TIP3    H259382   4.262   4.378   0.988  0.3951  1.0561 -0.1290
12631TIP3   OH259383   3.069   3.389  39.467 -0.2950 -0.0235 -0.0313
12631TIP3    H159384   3.013   3.334  39.412  1.5293 -2.7484  0.6622
12631TIP3    H259385   3.120   3.440  39.405  1.0687 -2.3746 -0.9853
12632TIP3   OH259386   0.660   3.474  36.859  0.0946  0.1895 -0.2243
12632TIP3    H159387   0.662   3.497  36.766  2.6518 -1.5664 -0.7152
12632TIP3    H259388   0.581   3.422  36.868 -0.3958  0.6989 -1.3336
12633TIP3   OH259389   1.994   2.568  13.558  0.2201 -0.5162 -0.2653
12633TIP3    H159390   2.048   2.647  13.553  1.1766 -1.0728  0.8694
12633TIP3    H259391   1.921   2.593  13.616  2.4889 -1.4710  3.2964
12634TIP3   OH259392   1.011   1.854   3.244  0.0029  0.0694  0.6218
12634TIP3    H159393   0.997   1.766   3.278  0.0754 -0.2356 -0.1182
12634TIP3    H259394   1.031   1.841   3.152 -2.0607  1.0060 -0.0096
12635TIP3   OH259395   2.578   1.497  34.670 -0.0899 -0.1459  0.1669
12635TIP3    H159396   2.504   1.526  34.722  0.5142  0.0270  0.9486
12635TIP3    H259397   2.606   1.415  34.710  0.1334 -0.2206 -0.1317
12636TIP3   OH259398   1.865   0.371  11.863  0.2955 -0.8472 -0.2716
12636TIP3    H159399   1.851   0.321  11.783  2.0903 -1.3888 -0.2979
12636TIP3    H259400   1.867   0.304  11.932  2.2138 -0.8339 -0.2483
12637TIP3   OH259401   3.047   0.243   9.320 -0.3913  0.4240 -0.0833
12637TIP3    H159402   3.134   0.242   9.280  0.7924  1.4779  2.2941
12637TIP3    H259403   3.002   0.169   9.280  0.5081  1.5592 -3.5608
12638TIP3   OH259404   4.307   1.953  25.689  0.0180  0.3258  0.0326
12638TIP3    H159405   4.214   1.951  25.665 -0.6492 -0.6986  2.3509
12638TIP3    H259406   4.334   1.861  25.685 -0.2622 -0.0196  3.1529
12639TIP3   OH259407   4.001   1.505  38.200 -0.9344 -0.0444  0.0776
12639TIP3    H159408   3.928   1.470  38.251 -0.6852 -1.0350 -0.2234
12639TIP3    H259409   4.033   1.430  38.150  0.3977  0.3417  0.3292
12640TIP3   OH259410   2.199   0.947  34.717 -0.2460 -0.2282  0.4406
12640TIP3    H159411   2.161   0.870  34.673  0.3712 -0.9230  1.1044
12640TIP3    H259412   2.195   1.016  34.650 -0.3466 -0.9657 -0.3387
12641TIP3   OH259413   4.181   3.610  11.185  0.0396 -0.2851  0.2100
12641TIP3    H159414   4.252   3.662  11.147 -0.4295  0.1856 -0.0293
12641TIP3    H259415   4.102   3.643  11.143 -0.3578 -0.5849  0.7109
12642TIP3   OH259416   0.277   1.413   7.122 -0.0948 -0.1218 -0.1429
12642TIP3    H159417   0.185   1.411   7.099  0.2114  0.8714 -1.5900
12642TIP3    H259418   0.298   1.323   7.147 -1.3107 -0.4709 -0.3280
12643TIP3   OH259419   2.302   3.745  33.232  0.2281  0.0436 -0.4689
12643TIP3    H159420   2.247   3.745  33.310 -0.7988 -0.6177 -1.1694
12643TIP3    H259421   2.365   3.815  33.246 -0.5291  0.5285  0.5445
12644TIP3   OH259422   3.942   0.449   6.240  0.3654  0.1286 -0.1132
12644TIP3    H159423   3.922   0.540   6.219 -1.7109 -0.0898  0.6102
12644TIP3    H259424   3.856   0.406   6.243  1.3998 -2.3326 -2.3729
12645TIP3   OH259425   0.561   2.818   0.461 -0.0287 -0.0510  0.5079
12645TIP3    H159426   0.632   2.766   0.500 -0.4200 -0.6733  0.4042
12645TIP3    H259427   0.571   2.805   0.367 -1.3927 -1.6876  0.5352
12646TIP3   OH259428   0.001   0.823  22.937 -0.4306  0.1944 -0.6543
12646TIP3    H159429   0.030   0.833  23.027  2.5640  0.4576 -1.5501
12646TIP3    H259430  -0.025   0.731  22.930 -1.2682  0.3096  0.5725
12647TIP3   OH259431   4.034   0.569  34.417 -0.1418 -0.2590 -0.0673
12647TIP3    H159432   3.946   0.571  34.454 -0.1931 -2.7331  0.1106
12647TIP3    H259433   4.024   0.531  34.330  0.6467  0.4182 -0.4799
12648TIP3   OH259434   2.586   3.307   1.264 -1.1591 -0.2035  0.3191
12648TIP3    H159435   2.615   3.309   1.355 -1.0391 -2.3659  0.3891
12648TIP3    H259436   2.573   3.214   1.245  0.2660  0.0521 -2.3296
12649TIP3   OH259437   3.566   3.411  28.136 -0.0612 -0.0488 -0.0700
12649TIP3    H159438   3.550   3.432  28.228 -0.0288  1.6088 -0.4034
12649TIP3    H259439   3.595   3.320  28.137  1.3644  0.3615  1.7223
12650TIP3   OH259440   4.146   2.377   8.587 -0.2818  0.2607  0.0494
12650TIP3    H159441   4.241   2.371   8.598 -0.0935  1.6690 -0.6068
12650TIP3    H259442   4.114   2.288   8.603  0.8312  0.2803  3.1136
12651TIP3   OH259443   1.587   0.719   3.207  0.0545  0.7923 -0.2679
12651TIP3    H159444   1.600   0.758   3.293 -0.4076  1.6592 -0.5698
12651TIP3    H259445   1.620   0.630   3.215  1.7784  1.4388  0.2813
12652TIP3   OH259446   4.183   1.784  35.015  0.1628 -0.4979  0.0294
12652TIP3    H159447   4.223   1.732  35.085  0.1631  1.0939  1.2701
12652TIP3    H259448   4.110   1.730  34.985  1.0051 -1.8196  0.2792
12653TIP3   OH259449   3.891   1.400   6.712 -0.0016 -0.1049  0.2402
12653TIP3    H159450   3.835   1.475   6.733 -1.8202 -1.6400  1.2117
12653TIP3    H259451   3.944   1.388   6.791 -2.0040 -1.7113  1.4547
12654TIP3   OH259452   2.266   0.568  28.347  0.2801  0.0699  0.0626
12654TIP3    H159453   2.300   0.526  28.426  2.3762 -1.7596 -1.6769
12654TIP3    H259454   2.174   0.588  28.369  0.0995 -2.4584  2.1777
12655TIP3   OH259455   3.111   0.096  30.978 -0.2980 -0.3256  0.2837
12655TIP3    H159456   3.161   0.154  30.921 -0.1308  1.0197  1.7253
12655TIP3    H259457   3.033   0.072  30.927 -0.2313  0.9513 -0.4457
12656TIP3   OH259458   2.304   0.798  10.379 -0.6896 -0.0798 -0.0310
12656TIP3    H159459   2.223   0.750  10.396  0.2256 -1.6837  0.0508
12656TIP3    H259460   2.354   0.739  10.322  0.4677  0.8239  0.0284
12657TIP3   OH259461   1.729   1.860  40.860  1.1760  0.2566 -0.2175
12657TIP3    H159462   1.790   1.791  40.884  0.9659 -0.2307 -1.0382
12657TIP3    H259463   1.667   1.818  40.801 -0.1939  0.6531  0.8853
12658TIP3   OH259464   3.692   2.427  10.230  0.0529  0.4042 -0.1004
12658TIP3    H159465   3.597   2.428  10.216 -0.2518  0.5429  1.6746
12658TIP3    H259466   3.707   2.502  10.288  0.9260 -0.8332  1.3499
12659TIP3   OH259467   3.784   0.096   1.838 -0.0983 -0.1048 -0.1327
12659TIP3    H159468   3.832   0.158   1.783 -0.1001  1.1128  1.1803
12659TIP3    H259469   3.726   0.051   1.777  1.6132 -0.5624 -1.5173
12660TIP3   OH259470   2.801   0.752  27.240 -0.3291 -0.4151 -0.0526
12660TIP3    H159471   2.837   0.782  27.324  1.1301 -1.6522 -0.1875
12660TIP3    H259472   2.850   0.802  27.174  0.1939 -1.0989 -0.2020
12661TIP3   OH259473   0.553   1.426   5.679 -0.0061 -0.8644 -0.2961
12661TIP3    H159474   0.530   1.336   5.702  0.5035 -1.0194 -0.3724
12661TIP3    H259475   0.640   1.419   5.640 -0.1070 -0.3799 -0.6167
12662TIP3   OH259476   0.556   0.263  24.251  0.2433 -0.3145  0.2306
12662TIP3    H159477   0.587   0.175  24.229 -2.5681 -1.4740  0.5278
12662TIP3    H259478   0.547   0.308  24.167  0.8738 -0.5841  0.0138
12663TIP3   OH259479   2.746   1.463   0.208 -0.4441  0.8905 -0.1118
12663TIP3    H159480   2.760   1.537   0.267 -0.2421  1.5996 -1.0271
12663TIP3    H259481   2.651   1.463   0.193 -0.4671  0.8543  0.0327
12664TIP3   OH259482   2.171   1.688  31.975 -0.1456 -0.5190 -0.0282
12664TIP3    H159483   2.120   1.620  31.930 -0.3233 -1.1359  1.0869
12664TIP3    H259484   2.124   1.769  31.956 -0.3774 -0.8025 -0.7148
12665TIP3   OH259485   3.098   1.021  34.754  0.0250  0.0890 -0.8202
12665TIP3    H159486   3.040   0.997  34.682  1.0059  1.5291 -2.1541
12665TIP3    H259487   3.140   1.102  34.725  3.3796 -1.3438 -0.3308
12666TIP3   OH259488   0.526   0.518  21.246  0.5124 -0.0294 -1.0109
12666TIP3    H159489   0.451   0.480  21.201 -1.3443 -0.2339  2.0011
12666TIP3    H259490   0.488   0.574  21.313  3.0818  0.2788  0.3217
12667TIP3   OH259491   2.198   0.699  40.662  0.0558 -0.2975  0.8568
12667TIP3    H159492   2.139   0.765  40.698  1.2415  1.5905 -0.5022
12667TIP3    H259493   2.143   0.650  40.600 -1.1311 -1.4350  2.7059
12668TIP3   OH259494   3.405   0.473  12.913 -0.0353 -0.1562 -0.4014
12668TIP3    H159495   3.453   0.448  12.834  0.1711 -0.9367 -0.0351
12668TIP3    H259496   3.345   0.401  12.929  0.3659 -0.2980  0.5129
12669TIP3   OH259497   4.144   1.087  35.915 -0.0587 -0.5371 -0.3408
12669TIP3    H159498   4.123   1.134  35.834 -0.8094 -1.6661 -0.8208
12669TIP3    H259499   4.148   1.155  35.982 -1.3130  0.2023 -0.9790
12670TIP3   OH259500   3.279   0.458  10.821 -0.5075 -0.3472 -0.0050
12670TIP3    H159501   3.263   0.479  10.729  1.9272  0.4919 -0.3155
12670TIP3    H259502   3.368   0.489  10.838 -1.1312  0.1862  2.8587
12671TIP3   OH259503   3.830   1.648  24.783  0.2780 -0.0613  0.4808
12671TIP3    H159504   3.883   1.723  24.757 -0.6589  0.3277 -0.3639
12671TIP3    H259505   3.802   1.608  24.700 -2.3572  0.9030  0.8085
12672TIP3   OH259506   0.349   0.289  29.375 -0.1854 -0.2163 -0.2849
12672TIP3    H159507   0.371   0.318  29.464 -1.0017  1.3348 -0.5588
12672TIP3    H259508   0.363   0.194  29.377 -1.6435 -0.4571  1.9641
12673TIP3   OH259509   0.316   1.657  35.603  0.0661 -0.9903 -0.5663
12673TIP3    H159510   0.292   1.715  35.675 -0.8461 -0.8216 -0.9989
12673TIP3    H259511   0.410   1.673  35.591  0.2174 -0.9536  0.5102
12674TIP3   OH259512   1.995   0.427  38.115 -0.0135 -0.1207 -0.2196
12674TIP3    H159513   2.065   0.394  38.171  0.4489 -1.2721 -1.4199
12674TIP3    H259514   1.979   0.356  38.053 -0.9749  0.8456 -1.1056
12675TIP3   OH259515   2.778   1.754  30.773  0.1569 -0.0920 -0.2658
12675TIP3    H159516   2.800   1.839  30.735  2.6052 -0.4963  0.0906
12675TIP3    H259517   2.800   1.763  30.866 -0.1348 -0.9458 -0.1053
12676TIP3   OH259518   4.029   3.033   6.286  0.2224  0.4623  0.5140
12676TIP3    H159519   4.095   3.030   6.355  0.2980 -0.8053  0.4247
12676TIP3    H259520   4.078   3.042   6.205  0.1542  1.5762  0.5830
12677TIP3   OH259521   1.130   4.004  35.140  0.4725  0.2700  0.3400
12677TIP3    H159522   1.200   4.042  35.087 -0.5529  0.5876 -0.8468
12677TIP3    H259523   1.154   3.912  35.150  0.3598  0.0202 -1.3336
12678TIP3   OH259524   0.788   2.888  11.263  0.2228 -0.0712 -0.5639
12678TIP3    H159525   0.784   2.792  11.269 -1.1054  0.0252  0.3938
12678TIP3    H259526   0.727   2.919  11.330  0.0942  1.4460 -1.3514
12679TIP3   OH259527   2.620   3.705  30.585 -0.1002  0.2902 -0.1333
12679TIP3    H159528   2.676   3.756  30.644 -1.4781  4.3161 -1.9456
12679TIP3    H259529   2.543   3.684  30.638  0.1227  0.8791  0.4474
12680TIP3   OH259530   4.095   3.806  23.013 -0.3729  0.2875 -0.6302
12680TIP3    H159531   4.080   3.786  22.921  0.5831 -0.5223 -0.6237
12680TIP3    H259532   4.138   3.892  23.012 -1.4586  0.8430 -0.8549
12681TIP3   OH259533   3.147   3.365  35.147 -0.0459  0.3634 -0.5648
12681TIP3    H159534   3.130   3.448  35.191 -1.2898 -0.9534  1.6362
12681TIP3    H259535   3.080   3.306  35.180  1.8851 -2.0291 -0.6128
12682TIP3   OH259536   3.109   0.518  11.853 -0.6318 -0.3868  0.5856
12682TIP3    H159537   3.165   0.502  11.777  2.0436  1.3114  2.0262
12682TIP3    H259538   3.060   0.596  11.831  2.0911  1.7133  1.4190
12683TIP3   OH259539   3.202   3.487  33.173  0.3244  0.0068  0.2057
12683TIP3    H159540   3.253   3.532  33.240  1.1556  0.3598 -0.6430
12683TIP3    H259541   3.175   3.557  33.113 -1.1240 -0.1769  0.5889
12684TIP3   OH259542   1.865   3.748  37.702 -0.0155  0.2289  0.7656
12684TIP3    H159543   1.883   3.839  37.678  0.8201  0.5846  2.5432
12684TIP3    H259544   1.771   3.738  37.691 -0.4979  2.0190  2.5617
12685TIP3   OH259545   2.502   2.816  31.565 -0.5036  0.2898 -0.2445
12685TIP3    H159546   2.458   2.778  31.489 -0.7728 -0.1394  0.1221
12685TIP3    H259547   2.592   2.833  31.536 -0.1157 -1.4693 -0.1529
12686TIP3   OH259548   2.953   1.190  29.370 -0.3789  0.3402 -0.0715
12686TIP3    H159549   2.997   1.241  29.437  1.5038 -0.0427 -0.9455
12686TIP3    H259550   2.910   1.256  29.314  0.6628  0.8798 -0.2585
12687TIP3   OH259551   2.741   2.231   7.395  0.3842  0.4543  0.2300
12687TIP3    H159552   2.776   2.305   7.346  0.7925 -0.5667 -1.0764
12687TIP3    H259553   2.818   2.191   7.436  0.4042 -0.2600 -0.4938
12688TIP3   OH259554   3.262   2.625  30.899  0.3334 -0.4741 -0.1126
12688TIP3    H159555   3.321   2.624  30.974  1.4496 -0.1917 -0.9418
12688TIP3    H259556   3.210   2.704  30.910  1.1677  0.0904 -0.1151
12689TIP3   OH259557   3.705   2.156   9.719  0.0299  0.2939  0.2728
12689TIP3    H159558   3.745   2.231   9.763  2.1262 -0.8908  0.4993
12689TIP3    H259559   3.759   2.143   9.641 -0.6948 -0.5984 -0.0870
12690TIP3   OH259560   4.104   1.890  25.985  0.6291  0.0875 -0.1058
12690TIP3    H159561   4.027   1.844  26.017 -0.8431  0.8980 -2.2410
12690TIP3    H259562   4.178   1.834  26.011 -0.6366 -0.7800  1.8853
12691TIP3   OH259563   0.975   3.954   4.262  0.3728  0.0675  0.3426
12691TIP3    H159564   1.046   3.891   4.270  1.1368  0.9620  0.8796
12691TIP3    H259565   1.008   4.033   4.305 -1.1848  0.3072  1.1787
12692TIP3   OH259566   0.409   2.658  38.139  0.2401  0.3264  0.7168
12692TIP3    H159567   0.452   2.729  38.092 -0.0832 -0.8904 -1.5650
12692TIP3    H259568   0.322   2.652  38.099 -0.1095 -0.6767  1.5741
12693TIP3   OH259569   1.805   4.116  37.618  0.1617 -0.1719  0.0412
12693TIP3    H159570   1.841   4.152  37.537 -0.5107  0.6724  0.1037
12693TIP3    H259571   1.718   4.085  37.594  0.6985 -1.7065  0.0132
12694TIP3   OH259572   3.848   1.281  38.944 -0.2035 -0.6927  0.0367
12694TIP3    H159573   3.850   1.341  38.869  0.3822  0.0876  0.6643
12694TIP3    H259574   3.780   1.317  39.002 -0.8654 -1.4616 -0.2435
12695TIP3   OH259575   0.975   2.225  12.984  0.1252  0.3182 -0.4460
12695TIP3    H159576   0.942   2.314  12.997 -0.1483  0.1331  0.1865
12695TIP3    H259577   0.908   2.169  13.024  0.1594 -0.1884 -1.0891
12696TIP3   OH259578   0.207   3.723  35.527  0.9447  0.0799  0.0946
12696TIP3    H159579   0.191   3.629  35.531  0.0185  0.2485  0.5200
12696TIP3    H259580   0.297   3.732  35.560  1.0014 -0.6425  0.1675
12697TIP3   OH259581   0.293   1.733   5.450  0.1736  0.0639 -0.2902
12697TIP3    H159582   0.211   1.744   5.402  0.6304  1.8412 -0.7146
12697TIP3    H259583   0.266   1.723   5.542 -0.5542 -0.3673 -0.5404
12698TIP3   OH259584   2.716   1.194   0.908 -0.3884  0.1274  0.0598
12698TIP3    H159585   2.762   1.271   0.876  0.8003 -0.3554  0.5727
12698TIP3    H259586   2.696   1.143   0.829  3.2214 -1.4508  0.0009
12699TIP3   OH259587   1.133   3.348  13.162  0.8813 -0.7090 -0.1485
12699TIP3    H159588   1.114   3.327  13.253  1.2007 -2.3443 -0.4387
12699TIP3    H259589   1.129   3.444  13.159 -0.6639 -0.6764  1.2290
12700TIP3   OH259590   1.908   1.805  31.141  0.0208 -0.1846 -0.1941
12700TIP3    H159591   1.843   1.874  31.148  1.0164  0.6361  2.8982
12700TIP3    H259592   1.948   1.816  31.055 -0.4846  2.5233 -0.1392
12701TIP3   OH259593   0.345   2.208  37.829 -0.1470 -0.1797  0.3104
12701TIP3    H159594   0.264   2.239  37.871  0.1114  1.6378 -0.4480
12701TIP3    H259595   0.321   2.195  37.737  0.6157  1.2581 -0.1144
12702TIP3   OH259596   3.855   3.527  33.520 -0.1214  0.4788 -0.3946
12702TIP3    H159597   3.850   3.536  33.425  0.1984  1.2733 -0.3469
12702TIP3    H259598   3.944   3.554  33.542  0.0012 -0.2935  0.0686
12703TIP3   OH259599   3.047   1.295   9.775  0.2937  0.3106 -0.4211
12703TIP3    H159600   3.132   1.334   9.796  0.4563 -0.4197  0.3125
12703TIP3    H259601   2.985   1.342   9.831  0.4516 -0.2667  0.2550
12704TIP3   OH259602   1.741   3.436   2.221 -0.0715 -0.4133 -0.2343
12704TIP3    H159603   1.782   3.468   2.302 -0.0861 -0.8505 -0.0547
12704TIP3    H259604   1.672   3.376   2.251 -1.3912  0.9044 -0.4963
12705TIP3   OH259605   4.351   0.985  40.363 -0.1636  0.8276  0.0826
12705TIP3    H159606   4.280   0.921  40.374 -0.3639  1.1037  0.4473
12705TIP3    H259607   4.336   1.049  40.433 -0.7749  2.0157 -1.0969
12706TIP3   OH259608   4.195   2.377  33.572 -0.3892  0.2605 -0.5613
12706TIP3    H159609   4.103   2.403  33.566 -0.3525  0.0788 -2.1543
12706TIP3    H259610   4.214   2.380  33.666 -2.4891 -1.3586 -0.0184
12707TIP3   OH259611   0.339   3.355   3.958 -0.5284 -0.2707 -0.6084
12707TIP3    H159612   0.296   3.328   4.040 -0.5995  2.1508  0.2134
12707TIP3    H259613   0.380   3.274   3.926 -0.9155 -1.4156  1.5512
12708TIP3   OH259614   1.756   0.370   2.572 -0.4093 -0.5620 -0.5196
12708TIP3    H159615   1.666   0.340   2.587 -0.0544 -1.4254  0.0053
12708TIP3    H259616   1.766   0.446   2.629 -0.6176 -0.8464 -0.0979
12709TIP3   OH259617   0.551   2.850  31.886  0.0639 -0.1344 -0.1746
12709TIP3    H159618   0.618   2.816  31.826  0.8040 -1.7848  1.4725
12709TIP3    H259619   0.601   2.880  31.962 -1.0079 -0.8012  0.8181
12710TIP3   OH259620   1.478   3.670  27.398 -0.1811  0.0101 -0.3132
12710TIP3    H159621   1.505   3.761  27.387  1.5629 -0.4287  0.1405
12710TIP3    H259622   1.546   3.619  27.354 -0.5381 -1.1286  0.4187
12711TIP3   OH259623   4.334   0.926   1.034 -0.5219 -0.1300 -0.3100
12711TIP3    H159624   4.331   1.015   1.069 -0.8602 -0.0704 -0.4905
12711TIP3    H259625   4.425   0.914   1.007 -0.8983  0.9168 -2.2465
12712TIP3   OH259626   0.870   1.619  31.415 -0.1489  0.4001 -0.7375
12712TIP3    H159627   0.800   1.566  31.454 -1.1471  1.3009 -1.2235
12712TIP3    H259628   0.904   1.564  31.344 -1.0663  0.3194 -1.1423
12713TIP3   OH259629   4.226   0.813  34.398 -0.4996  0.8292  0.2642
12713TIP3    H159630   4.180   0.730  34.385  0.6018  0.4555 -1.8034
12713TIP3    H259631   4.280   0.799  34.475 -0.7309 -0.2036  0.2523
12714TIP3   OH259632   1.103   2.864   2.569 -0.2607 -0.1044 -0.5887
12714TIP3    H159633   1.075   2.892   2.482 -0.3052  0.8821 -0.2653
12714TIP3    H259634   1.043   2.908   2.629  0.7095  0.4177  0.0095
12715TIP3   OH259635   0.922   2.638   6.702  0.3205  0.1493  0.1472
12715TIP3    H159636   0.881   2.641   6.788 -0.6283  0.8602 -0.3107
12715TIP3    H259637   0.904   2.550   6.670  1.1346 -0.3022  0.8656
12716TIP3   OH259638   2.355   3.144  41.634 -0.5329 -0.1395  0.1634
12716TIP3    H159639   2.371   3.177  41.545  0.8154 -1.6141 -0.2006
12716TIP3    H259640   2.400   3.206  41.691 -0.9138  0.5022 -0.2180
12717TIP3   OH259641   2.247   4.011  34.118  0.8207 -0.1995 -0.1296
12717TIP3    H159642   2.215   4.086  34.067  0.9924 -0.3117 -0.4025
12717TIP3    H259643   2.296   4.051  34.190 -0.4901 -0.0016  0.6943
12718TIP3   OH259644   1.945   0.035  12.698  0.5577  0.2890  0.3845
12718TIP3    H159645   2.002   0.089  12.643  0.1298 -0.8301 -1.2452
12718TIP3    H259646   1.861   0.032  12.651  0.7478 -2.2667  0.0393
12719TIP3   OH259647   2.973   1.040  40.846 -0.6315  0.3820  0.0612
12719TIP3    H159648   3.006   1.070  40.931  1.1728 -3.2633  0.8584
12719TIP3    H259649   3.040   1.068  40.784 -0.4802  0.5638  0.3053
12720TIP3   OH259650   0.632   4.266  10.427  0.2901  0.2783 -0.3915
12720TIP3    H159651   0.646   4.229  10.514  1.3423  0.2094 -0.5783
12720TIP3    H259652   0.695   4.338  10.422  0.0472  0.4506 -0.9975
12721TIP3   OH259653   3.374   4.272   7.684  1.3915 -0.1304  0.2418
12721TIP3    H159654   3.466   4.246   7.678  1.4677 -1.0134  3.3578
12721TIP3    H259655   3.376   4.367   7.690  2.1958 -0.1908  1.1476
12722TIP3   OH259656   1.674   1.333  30.134  0.1419  0.5278 -0.9205
12722TIP3    H159657   1.617   1.407  30.111 -0.9768 -0.7149 -2.3865
12722TIP3    H259658   1.616   1.269  30.174  0.9477  0.1181 -0.3760
12723TIP3   OH259659   2.567   0.843  35.416 -1.2454 -0.3539 -0.2155
12723TIP3    H159660   2.476   0.852  35.386 -0.4941  1.4082 -2.2263
12723TIP3    H259661   2.595   0.933  35.434  0.8770 -0.5130 -2.2690
12724TIP3   OH259662   0.962   0.221  17.932  0.0942 -0.4309 -0.4044
12724TIP3    H159663   0.965   0.240  17.838  2.1101 -0.1505 -0.3260
12724TIP3    H259664   0.889   0.160  17.942  0.3643 -1.1176 -2.2826
12725TIP3   OH259665   3.545   4.151  10.202 -0.0555 -0.5922  0.2839
12725TIP3    H159666   3.490   4.211  10.150 -0.3999 -0.2344  1.0502
12725TIP3    H259667   3.632   4.161  10.164 -0.1233  0.3277  0.3311
12726TIP3   OH259668   1.933   3.374  13.839  0.8436 -0.2392 -0.1153
12726TIP3    H159669   1.958   3.293  13.797  1.5708 -0.5213  0.8236
12726TIP3    H259670   1.953   3.360  13.932 -1.1585  0.1582  0.4366
12727TIP3   OH259671   2.837   0.577   4.580  0.1744  0.0413 -0.4576
12727TIP3    H159672   2.883   0.594   4.662  0.2197  0.7515 -0.6240
12727TIP3    H259673   2.903   0.536   4.524 -0.1667 -1.5079  0.2293
12728TIP3   OH259674   3.887   3.337  34.680  0.3427 -0.2217 -0.0491
12728TIP3    H159675   3.858   3.311  34.768 -1.1172  0.6532 -0.2241
12728TIP3    H259676   3.808   3.330  34.626  1.2786 -1.0068 -1.3789
12729TIP3   OH259677   4.125   2.323   3.128 -0.2641 -0.4803 -0.5188
12729TIP3    H159678   4.114   2.262   3.056 -0.5266 -0.8027 -0.2114
12729TIP3    H259679   4.164   2.270   3.198 -0.3718 -0.2683 -0.2945
12730TIP3   OH259680   0.479   2.103  11.962 -0.2275 -0.3907 -0.3085
12730TIP3    H159681   0.571   2.108  11.939  0.0540  2.8416  0.9404
12730TIP3    H259682   0.433   2.136  11.885 -0.0888  0.4601 -0.0434
12731TIP3   OH259683   1.233   0.439  33.639 -0.5610  0.2565 -0.3421
12731TIP3    H159684   1.178   0.385  33.696  0.7230  0.3823  1.0981
12731TIP3    H259685   1.173   0.477  33.575 -1.9590 -0.4508  0.5091
12732TIP3   OH259686   0.807   2.438  37.881  0.3785 -0.2541 -0.4968
12732TIP3    H159687   0.748   2.512  37.865  0.6929 -0.0973 -0.9557
12732TIP3    H259688   0.868   2.469  37.947  1.3343  0.3760 -1.6321
12733TIP3   OH259689   1.958   2.574  35.053  0.0140  0.2579 -0.8630
12733TIP3    H159690   1.957   2.651  34.996 -0.8003  1.1428  0.2969
12733TIP3    H259691   1.972   2.610  35.140 -0.0390 -0.9530 -0.3452
12734TIP3   OH259692   1.152   2.989  37.767  0.5713  0.4013  0.4131
12734TIP3    H159693   1.090   3.016  37.699  0.2710  0.7539  0.8217
12734TIP3    H259694   1.121   2.903  37.796 -1.7085  1.9137  2.8987
12735TIP3   OH259695   1.127   1.707  14.578  0.1489 -1.0488  0.1481
12735TIP3    H159696   1.173   1.791  14.574 -1.0277 -0.4335 -1.1911
12735TIP3    H259697   1.188   1.645  14.537 -0.2016 -0.2230 -1.7201
12736TIP3   OH259698   3.904   0.699  37.286 -0.3791  0.0364 -0.0374
12736TIP3    H159699   3.969   0.649  37.238  2.0470  0.1034  2.8582
12736TIP3    H259700   3.828   0.641  37.292  0.1733 -0.9067 -1.7063
12737TIP3   OH259701   1.149   1.151  32.369  0.1457  0.5811 -0.5859
12737TIP3    H159702   1.096   1.072  32.373  0.1266  0.6322  0.3028
12737TIP3    H259703   1.163   1.166  32.275  0.1579 -0.4712 -0.7595
12738TIP3   OH259704   1.501   2.108  17.063  0.2396 -0.1867  0.2447
12738TIP3    H159705   1.409   2.113  17.035  0.2787  0.8447  0.2503
12738TIP3    H259706   1.501   2.046  17.136 -0.6334  0.5285  0.8805
12739TIP3   OH259707   2.445   3.604  40.858 -0.2661  0.0278 -0.2071
12739TIP3    H159708   2.420   3.627  40.948  0.6439  1.2285 -0.2238
12739TIP3    H259709   2.465   3.688  40.817 -0.3336 -0.5370 -1.4382
12740TIP3   OH259710   3.215   3.886  33.717 -0.0228  0.4255  0.1281
12740TIP3    H159711   3.214   3.857  33.808  1.9791 -0.1675  0.0010
12740TIP3    H259712   3.122   3.894  33.694 -0.7003 -2.9079  1.1530
12741TIP3   OH259713   0.857   0.340  32.015 -0.3288 -0.0250  0.1356
12741TIP3    H159714   0.889   0.428  32.037 -0.3724  0.0470 -0.0848
12741TIP3    H259715   0.799   0.316  32.088 -3.2020  1.5949 -1.4628
12742TIP3   OH259716   1.286   0.845   2.694  0.8204 -0.2106 -0.7518
12742TIP3    H159717   1.338   0.789   2.751  1.5736 -0.4704 -1.6706
12742TIP3    H259718   1.199   0.804   2.692  0.1196  0.9232  1.8103
12743TIP3   OH259719   0.009   1.710  26.376  0.0706 -1.0537 -0.1003
12743TIP3    H159720  -0.037   1.632  26.404  0.6633 -2.1824 -2.0262
12743TIP3    H259721   0.050   1.685  26.293 -0.1574  1.4614 -1.0735
12744TIP3   OH259722   3.933   4.274  35.197  0.5987 -0.3557  0.2338
12744TIP3    H159723   4.005   4.223  35.232  0.8695  0.1795  0.4718
12744TIP3    H259724   3.969   4.362  35.184 -0.5220  0.5014  2.3553
12745TIP3   OH259725   0.266   0.288  24.666  0.6332  0.5968  0.1171
12745TIP3    H159726   0.299   0.276  24.755  0.5179 -2.0928 -0.1197
12745TIP3    H259727   0.180   0.329  24.677  0.3400 -0.2890  1.3062
12746TIP3   OH259728   3.677   2.348  36.939 -0.1510 -0.2575  0.1008
12746TIP3    H159729   3.610   2.280  36.943 -0.0883 -0.3797 -0.7625
12746TIP3    H259730   3.635   2.421  36.894  0.0816 -0.0857  0.1577
12747TIP3   OH259731   2.315   2.381  32.950 -0.3321  0.7130  0.2452
12747TIP3    H159732   2.374   2.341  33.014  0.2537 -0.9063 -1.2203
12747TIP3    H259733   2.334   2.474  32.955  0.6005  0.4834  1.5375
12748TIP3   OH259734   4.260   1.742  10.594  0.0012 -0.5004 -0.6512
12748TIP3    H159735   4.189   1.803  10.575 -0.0252  1.0693  3.6298
12748TIP3    H259736   4.243   1.710  10.683  3.0110 -2.5109 -0.6101
12749TIP3   OH259737   0.687   1.567   3.020  0.0542  0.4209 -0.5528
12749TIP3    H159738   0.626   1.613   3.077  0.7415  0.0740  0.4920
12749TIP3    H259739   0.662   1.594   2.931 -0.9325  1.0918 -0.0889
12750TIP3   OH259740   1.006   1.464   5.334  0.0993  0.2308  0.1527
12750TIP3    H159741   1.097   1.480   5.360  0.6884 -2.5682  0.1499
12750TIP3    H259742   0.954   1.514   5.397  1.6177  0.1593  1.5450
12751TIP3   OH259743   4.402   1.402   6.603  0.0458 -0.1729  0.7982
12751TIP3    H159744   4.449   1.485   6.601  0.3263 -0.3426  0.2003
12751TIP3    H259745   4.313   1.426   6.628  0.2556  0.2423  1.1643
12752TIP3   OH259746   1.636   0.110   2.355  0.1058 -0.3913 -0.8217
12752TIP3    H159747   1.669   0.042   2.295 -1.1312 -0.2770 -1.6640
12752TIP3    H259748   1.640   0.191   2.303 -1.5167 -0.3857 -0.9792
12753TIP3   OH259749   2.870   1.197  36.321  0.0927  0.2363 -0.6004
12753TIP3    H159750   2.880   1.105  36.348  0.6353  0.8850  1.6080
12753TIP3    H259751   2.781   1.201  36.285 -0.3892 -0.9170  0.3623
12754TIP3   OH259752   1.294   2.411  12.474  0.0732 -0.7144 -0.3081
12754TIP3    H159753   1.304   2.326  12.430  2.7314 -0.0910 -1.0912
12754TIP3    H259754   1.234   2.461  12.417  0.7042 -1.1222 -1.3606
12755TIP3   OH259755   4.263   1.803  30.224  0.0016  0.4310  0.2287
12755TIP3    H159756   4.297   1.822  30.311  1.3622  0.7833 -0.3379
12755TIP3    H259757   4.335   1.757  30.180 -0.7291  0.0960 -0.6482
12756TIP3   OH259758   1.779   3.410  34.257  0.2192 -0.1052  0.4170
12756TIP3    H159759   1.749   3.501  34.249  1.1019  0.2106  0.5112
12756TIP3    H259760   1.709   3.358  34.219 -1.3676  0.4265  2.4466
12757TIP3   OH259761   0.769   3.851  35.849  0.0714 -1.3668  0.3621
12757TIP3    H159762   0.832   3.780  35.837  0.4912 -0.6297 -2.6384
12757TIP3    H259763   0.691   3.822  35.801  0.1248 -0.0232 -0.5938
12758TIP3   OH259764   1.251   0.226   0.094  0.1127  0.3771  0.2168
12758TIP3    H159765   1.198   0.147   0.088  0.5732 -0.0494  1.4954
12758TIP3    H259766   1.337   0.200   0.061  0.5452  0.0465  1.5377
12759TIP3   OH259767   3.620   3.013  29.707  0.4727 -0.1289  0.2057
12759TIP3    H159768   3.677   3.028  29.783 -0.5891 -0.3763  1.0923
12759TIP3    H259769   3.531   3.026  29.742 -0.2656 -3.3576 -0.1800
12760TIP3   OH259770   2.379   3.160   8.509 -0.0216 -0.4568 -0.6835
12760TIP3    H159771   2.303   3.190   8.560  0.8110 -0.0425  0.3469
12760TIP3    H259772   2.391   3.069   8.536 -0.3099 -0.6021 -1.0431
12761TIP3   OH259773   3.560   0.602   5.218 -0.4034  0.0281 -0.4548
12761TIP3    H159774   3.474   0.561   5.211  0.1542 -1.1934 -0.5255
12761TIP3    H259775   3.604   0.553   5.287  0.6807 -0.2174 -1.2916
12762TIP3   OH259776   0.991   3.134  26.390 -0.1993  0.5225 -0.2091
12762TIP3    H159777   1.001   3.077  26.467 -1.0673  0.2804 -0.2668
12762TIP3    H259778   1.076   3.131  26.347 -0.3181 -1.0102 -0.4007
12763TIP3   OH259779   1.820   0.305   1.070 -0.0525 -0.0260 -0.5367
12763TIP3    H159780   1.860   0.244   1.007  0.5553  0.0400 -0.2251
12763TIP3    H259781   1.895   0.349   1.111 -0.4923  1.4331 -1.2351
12764TIP3   OH259782   1.597   1.802  16.594  0.3468  0.2518  0.0785
12764TIP3    H159783   1.588   1.770  16.683 -1.0750  0.6439  0.1017
12764TIP3    H259784   1.647   1.883  16.602  0.2307  0.2797  0.5145
12765TIP3   OH259785   1.380   0.069  12.310 -0.8403  0.2525  0.5050
12765TIP3    H159786   1.394   0.118  12.391  0.6392  0.1505  0.3292
12765TIP3    H259787   1.285   0.066  12.301 -0.9960  1.9776  1.1900
12766TIP3   OH259788   4.215   3.460   9.775 -0.6858 -0.1206  0.0193
12766TIP3    H159789   4.272   3.440   9.700 -0.1491  1.6737 -0.1074
12766TIP3    H259790   4.248   3.544   9.807 -2.4927  0.3425  0.7419
12767TIP3   OH259791   3.806   3.326  36.573  0.7825  0.1131 -0.2300
12767TIP3    H159792   3.751   3.329  36.495 -1.2382 -1.2387  1.0309
12767TIP3    H259793   3.749   3.357  36.644  1.1495 -2.5205  1.3654
12768TIP3   OH259794   0.320   0.134  38.333 -0.5237 -0.6469  0.2786
12768TIP3    H159795   0.397   0.077  38.325 -0.7498 -0.7077 -2.0383
12768TIP3    H259796   0.257   0.099  38.270 -1.3123  1.1602  0.0071
12769TIP3   OH259797   3.666   1.256  40.699  0.1226 -0.1853 -0.2965
12769TIP3    H159798   3.730   1.198  40.659  0.4814 -0.8329  1.1427
12769TIP3    H259799   3.716   1.334  40.724  0.1869 -0.3325  0.0483
12770TIP3   OH259800   4.302   3.387  10.382  0.0870 -0.0582 -0.4353
12770TIP3    H159801   4.329   3.438  10.305  0.8872  0.5748  0.2432
12770TIP3    H259802   4.276   3.454  10.446  1.8801 -0.4378  0.7493
12771TIP3   OH259803   3.993   1.651   7.760  0.0780  0.1216  0.6091
12771TIP3    H159804   4.070   1.707   7.754  0.3748 -0.4249 -1.5743
12771TIP3    H259805   3.919   1.712   7.767  0.6479  0.6735  4.7816
12772TIP3   OH259806   3.794   2.517   1.291 -0.1228  0.4136 -0.0720
12772TIP3    H159807   3.795   2.596   1.238  0.5204 -0.2953 -1.1352
12772TIP3    H259808   3.847   2.454   1.243  1.1225 -0.0395  1.7528
12773TIP3   OH259809   3.876   3.001   7.372 -0.1840 -0.5340  0.0677
12773TIP3    H159810   3.847   3.070   7.431 -0.8385 -0.2761 -0.5470
12773TIP3    H259811   3.972   3.008   7.373 -0.1119 -1.2049  1.8777
12774TIP3   OH259812   3.459   1.543  28.453  0.4787 -0.3592 -0.1732
12774TIP3    H159813   3.378   1.544  28.502  1.7171 -2.0744  2.0565
12774TIP3    H259814   3.516   1.606  28.498  0.1928  1.5927 -2.2965
12775TIP3   OH259815   2.424   0.637   8.358 -0.3886 -0.5759 -0.3030
12775TIP3    H159816   2.461   0.676   8.437  0.4088  0.1515 -1.0092
12775TIP3    H259817   2.499   0.598   8.313 -0.7156 -0.3499 -1.0594
12776TIP3   OH259818   0.171   4.196  30.226 -0.0678  0.6908 -0.3089
12776TIP3    H159819   0.166   4.202  30.321 -0.8977  1.9181 -0.4099
12776TIP3    H259820   0.265   4.189  30.207  0.0962  0.3830  0.5974
12777TIP3   OH259821   1.373   2.623  28.670  0.1155  0.0978  0.0658
12777TIP3    H159822   1.336   2.621  28.758  0.5622 -0.4469  0.2460
12777TIP3    H259823   1.321   2.559  28.621 -2.0670  2.4262 -0.8765
12778TIP3   OH259824   3.187   2.307  32.740 -0.3932 -0.2801 -0.3098
12778TIP3    H159825   3.227   2.394  32.745  1.5897 -1.0787 -1.3278
12778TIP3    H259826   3.251   2.254  32.692 -0.8431 -2.6827  1.5461
12779TIP3   OH259827   2.412   0.021  35.398 -0.0691 -0.3481 -0.0535
12779TIP3    H159828   2.457   0.023  35.482  2.8019 -0.3734 -1.4771
12779TIP3    H259829   2.343  -0.044  35.409  2.7606 -3.4146  1.1923
12780TIP3   OH259830   0.219   0.380   6.257 -0.4551 -0.2777  0.1687
12780TIP3    H159831   0.210   0.462   6.208  0.8159 -0.3078 -0.1471
12780TIP3    H259832   0.217   0.312   6.190  0.0892 -0.3926  0.2634
12781TIP3   OH259833   2.663   3.684  31.975 -0.1385 -0.1205 -0.5185
12781TIP3    H159834   2.696   3.673  32.064  1.4920 -0.2977 -1.1201
12781TIP3    H259835   2.648   3.778  31.966  0.5472  0.0115 -0.3320
12782TIP3   OH259836   2.657   0.642   5.506 -0.0308 -0.5638  0.1370
12782TIP3    H159837   2.738   0.673   5.546  0.7598 -2.9855  0.5193
12782TIP3    H259838   2.614   0.591   5.575 -0.3688 -1.8411 -0.9806
12783TIP3   OH259839   2.393   2.203  34.684  0.1115 -0.1345 -0.1685
12783TIP3    H159840   2.338   2.219  34.760  1.2536  2.2268  0.2607
12783TIP3    H259841   2.335   2.165  34.619 -1.0531 -1.5572  1.6067
12784TIP3   OH259842   1.186   1.923  17.861 -0.4176 -0.1869  0.8979
12784TIP3    H159843   1.188   1.952  17.952 -0.8842 -1.1060  1.2089
12784TIP3    H259844   1.224   1.835  17.864  1.8557  0.6648 -0.1574
12785TIP3   OH259845   0.654   2.768   5.711  0.3754  0.1856  0.1024
12785TIP3    H159846   0.718   2.743   5.644 -0.8952  0.5819 -1.3130
12785TIP3    H259847   0.569   2.753   5.669 -0.4630  0.0544  1.7885
12786TIP3   OH259848   0.414   3.647  38.027  0.0417  0.3038 -0.2958
12786TIP3    H159849   0.372   3.562  38.014  0.3058  0.1424 -0.1035
12786TIP3    H259850   0.478   3.632  38.097 -0.8654  0.9846  0.7024
12787TIP3   OH259851   3.678   2.386   3.665  0.3289  0.1030 -0.3993
12787TIP3    H159852   3.703   2.298   3.637 -1.8501 -0.8409  0.4770
12787TIP3    H259853   3.701   2.441   3.590  1.0061 -1.2962 -1.2759
12788TIP3   OH259854   1.152   1.091  15.373 -0.5993  0.0270 -0.2627
12788TIP3    H159855   1.116   1.166  15.420  1.3880  0.2815  0.9577
12788TIP3    H259856   1.098   1.017  15.400  0.3574  0.2078  2.3797
12789TIP3   OH259857   1.416   0.436  32.723 -0.5997  0.1057 -0.6685
12789TIP3    H159858   1.461   0.386  32.791  0.5551 -1.8438 -2.7247
12789TIP3    H259859   1.369   0.504  32.771  1.7457  0.1138  1.9049
12790TIP3   OH259860   2.810   1.418   2.191  0.2278 -0.0704  0.1488
12790TIP3    H159861   2.870   1.471   2.139  3.0587 -1.0157  2.1527
12790TIP3    H259862   2.797   1.339   2.139 -1.0892  1.0221 -1.2525
12791TIP3   OH259863   3.597   3.902  11.874  0.6761  0.3440 -0.7889
12791TIP3    H159864   3.513   3.927  11.912  0.9146  2.4408 -1.5037
12791TIP3    H259865   3.625   3.827  11.926 -1.1933  0.1585  0.0520
12792TIP3   OH259866   4.305   2.785  33.044  0.2515 -0.4753 -0.0116
12792TIP3    H159867   4.329   2.790  33.137 -0.1114 -0.8724  0.1088
12792TIP3    H259868   4.325   2.695  33.018 -4.3469 -2.1050  1.0727
12793TIP3   OH259869   0.284   4.111  12.396 -0.0800  0.1391 -0.3123
12793TIP3    H159870   0.275   4.206  12.404 -0.0008  0.0758  0.7811
12793TIP3    H259871   0.357   4.089  12.455  0.4071 -0.5128 -1.1388
12794TIP3   OH259872   1.182   3.622  40.638  0.3131 -0.5691  0.6740
12794TIP3    H159873   1.112   3.653  40.695  0.9493 -0.5913  1.4877
12794TIP3    H259874   1.233   3.701  40.618 -1.4503 -0.0140 -2.1695
12795TIP3   OH259875   3.532   0.071  34.790  0.1940  0.0890  0.2580
12795TIP3    H159876   3.464   0.137  34.780  0.2644  0.4003  1.6445
12795TIP3    H259877   3.518   0.011  34.717 -1.2033  0.4601  0.1911
12796TIP3   OH259878   4.064   3.022   0.421  0.3122 -0.3357  0.9659
12796TIP3    H159879   4.072   3.046   0.329 -0.0817  0.3163  1.1012
12796TIP3    H259880   4.022   2.936   0.419 -3.5567  1.3460  0.5930
12797TIP3   OH259881   1.185   4.303  26.983 -0.6882 -0.4525  0.4976
12797TIP3    H159882   1.211   4.387  27.019 -1.7879 -0.2153  0.7653
12797TIP3    H259883   1.259   4.245  27.002 -0.4833  0.1176  1.4919
12798TIP3   OH259884   2.278   2.540  11.724 -0.7883  0.3456  0.3760
12798TIP3    H159885   2.183   2.536  11.713 -0.6743  1.2591 -1.4611
12798TIP3    H259886   2.311   2.472  11.664 -0.2707  0.2707  0.7420
12799TIP3   OH259887   1.459   1.476  30.777 -0.8798  0.1008 -0.4996
12799TIP3    H159888   1.489   1.552  30.827  2.0039 -0.4897 -1.1955
12799TIP3    H259889   1.425   1.512  30.695  0.3743  0.6619 -0.7811
12800TIP3   OH259890   2.467   2.214  11.016  0.5000 -0.1079 -0.2950
12800TIP3    H159891   2.386   2.256  11.045  0.3590 -0.0642 -0.7333
12800TIP3    H259892   2.449   2.120  11.025  0.0019 -0.1383 -1.3742
12801TIP3   OH259893   3.780   0.635  30.213  0.1009 -0.0058  0.3093
12801TIP3    H159894   3.745   0.648  30.301  1.7665  1.4800  0.8075
12801TIP3    H259895   3.873   0.617  30.226  0.3752  0.2483 -1.1297
12802TIP3   OH259896   2.304   3.897  37.741 -0.0097 -0.2259  0.5326
12802TIP3    H159897   2.268   3.886  37.653  2.1416 -0.8747 -0.3193
12802TIP3    H259898   2.357   3.976  37.737  0.4479 -0.4911  1.1383
12803TIP3   OH259899   2.095   3.668  39.464  0.9727  0.2369  0.1003
12803TIP3    H159900   2.000   3.661  39.476  0.4605  0.6921 -2.8251
12803TIP3    H259901   2.118   3.752  39.503 -0.4231  1.5184 -1.6234
12804TIP3   OH259902   2.289   4.359   8.588  0.0149  0.2970  0.1421
12804TIP3    H159903   2.296   4.397   8.675 -2.2397 -0.8220  0.8686
12804TIP3    H259904   2.375   4.376   8.548  0.3493  2.7990  1.7189
12805TIP3   OH259905   0.040   3.599   2.088 -0.2465 -0.3784 -0.3772
12805TIP3    H159906   0.124   3.619   2.046 -1.4538 -0.4250 -3.0268
12805TIP3    H259907  -0.007   3.682   2.088 -0.5173 -0.5297  0.3177
12806TIP3   OH259908   1.099   1.724  29.368  0.3804  0.7047  0.4126
12806TIP3    H159909   1.153   1.749  29.442  1.0339  0.0124  0.1748
12806TIP3    H259910   1.113   1.630  29.357 -1.5147  0.3101  0.8636
12807TIP3   OH259911   2.148   2.825  39.093  0.2074 -0.5469  0.2484
12807TIP3    H159912   2.100   2.821  39.176  1.8775 -0.8853  1.2666
12807TIP3    H259913   2.226   2.772  39.109  0.8998 -0.0587 -1.3288
12808TIP3   OH259914   0.471   2.413   8.940 -0.2954  0.0695 -0.7163
12808TIP3    H159915   0.517   2.494   8.960  1.7625 -1.1934  0.0539
12808TIP3    H259916   0.459   2.370   9.025 -1.3322 -0.4483 -1.1053
12809TIP3   OH259917   0.828   3.355   0.802 -0.4448 -0.0104  0.3752
12809TIP3    H159918   0.806   3.310   0.721 -0.7297  1.5805 -0.4718
12809TIP3    H259919   0.796   3.297   0.872 -1.7525 -0.6118 -0.6888
12810TIP3   OH259920   0.548   0.106   5.758 -0.0286 -0.2537 -0.3748
12810TIP3    H159921   0.492   0.045   5.806 -1.0639  0.7968 -0.2060
12810TIP3    H259922   0.491   0.180   5.738  1.8012  1.8595  1.6833
12811TIP3   OH259923   1.290   0.830  38.651 -0.0008 -0.4633  0.2624
12811TIP3    H159924   1.267   0.744  38.686  0.5354 -1.5174 -1.8035
12811TIP3    H259925   1.377   0.848  38.687  0.3291 -1.2860 -0.0933
12812TIP3   OH259926   2.544   0.231  13.108  0.1247 -0.1510  0.3642
12812TIP3    H159927   2.614   0.292  13.132  0.0555  0.0416  0.0756
12812TIP3    H259928   2.555   0.217  13.014  1.4805 -2.2748  0.7625
12813TIP3   OH259929   0.054   3.322  38.170 -0.1091  0.8681  0.0000
12813TIP3    H159930  -0.025   3.374  38.182 -0.9157 -0.0050 -1.3031
12813TIP3    H259931   0.117   3.359  38.232 -1.6938  1.2229  1.4524
12814TIP3   OH259932   2.026   0.340   5.493 -0.6302  0.1909  0.1035
12814TIP3    H159933   2.009   0.316   5.402 -1.7219  0.1374  0.3131
12814TIP3    H259934   2.046   0.434   5.490  0.9231 -0.1163 -0.3695
12815TIP3   OH259935   1.115   3.815  15.667 -0.3110  0.1292 -0.2345
12815TIP3    H159936   1.147   3.875  15.734 -0.2600  0.1188 -0.2486
12815TIP3    H259937   1.170   3.737  15.677 -2.0347 -0.9556  1.4992
12816TIP3   OH259938   2.541   3.336   6.875  0.2622  0.3979 -0.2102
12816TIP3    H159939   2.587   3.331   6.791  1.0136 -0.1233  0.2272
12816TIP3    H259940   2.610   3.346   6.940 -0.2634  0.0523  0.4156
12817TIP3   OH259941   3.727   2.528  12.125 -0.0754  0.0167  0.0757
12817TIP3    H159942   3.656   2.478  12.085 -1.9822  2.8782 -0.4245
12817TIP3    H259943   3.722   2.614  12.084  2.5592  0.9087  1.3763
12818TIP3   OH259944   3.227   2.721  12.547 -0.0833  0.3513  0.0660
12818TIP3    H159945   3.322   2.711  12.543 -0.2654 -4.0008  1.3506
12818TIP3    H259946   3.203   2.684  12.631 -3.1033 -1.2647 -1.3660
12819TIP3   OH259947   2.905   3.262  12.489  0.0503  0.3548  0.1660
12819TIP3    H159948   2.870   3.225  12.408  0.9067 -0.2993  0.0833
12819TIP3    H259949   2.999   3.243  12.486  0.4520  2.1115  0.3519
12820TIP3   OH259950   0.383   2.101   5.329 -0.0128 -0.2308 -0.6287
12820TIP3    H159951   0.415   2.136   5.247 -0.2296 -0.7225 -0.9266
12820TIP3    H259952   0.324   2.168   5.363 -0.5911 -0.3974 -1.2962
12821TIP3   OH259953   2.441   1.744   6.298 -0.2160  0.2748 -0.1483
12821TIP3    H159954   2.391   1.687   6.356  0.0820  0.0463 -0.1103
12821TIP3    H259955   2.440   1.829   6.341 -1.5249  0.5603 -0.7078
12822TIP3   OH259956   4.118   2.329  39.902 -0.4055  0.1144 -0.4135
12822TIP3    H159957   4.214   2.333  39.901 -0.4188  0.5711 -1.1655
12822TIP3    H259958   4.093   2.366  39.986  0.1265 -1.7961  0.6408
12823TIP3   OH259959   4.308   0.172  31.913  0.0807 -0.3377 -0.0545
12823TIP3    H159960   4.392   0.188  31.870 -0.8384  0.1504 -1.7242
12823TIP3    H259961   4.331   0.159  32.005  1.8996  0.6786 -0.3160
12824TIP3   OH259962   1.272   4.088  29.026 -0.1372 -0.4194 -0.7201
12824TIP3    H159963   1.254   4.020  29.091  0.9954  0.5051  0.6264
12824TIP3    H259964   1.326   4.044  28.960 -0.4292 -1.1210 -0.5018
12825TIP3   OH259965   0.905   0.562  18.068 -0.7028  0.1266  0.5153
12825TIP3    H159966   0.846   0.486  18.074  1.9395 -2.3152 -1.4628
12825TIP3    H259967   0.870   0.613  17.995 -1.3999 -0.2859  0.5431
12826TIP3   OH259968   3.872   3.507  40.553  0.5180  0.1794  0.2690
12826TIP3    H159969   3.781   3.486  40.572  0.2230  1.2789  0.1556
12826TIP3    H259970   3.907   3.429  40.510 -0.1958 -0.4789  0.8761
12827TIP3   OH259971   2.895   3.657  12.911 -0.3104  0.0080  0.9971
12827TIP3    H159972   2.933   3.610  12.986  0.9105  1.2990  1.2346
12827TIP3    H259973   2.802   3.633  12.913  0.0045 -1.2950  1.9160
12828TIP3   OH259974   0.421   1.483  11.978  0.2190  0.2270 -0.3617
12828TIP3    H159975   0.498   1.491  11.921  0.7670  2.3382  0.5929
12828TIP3    H259976   0.456   1.490  12.067 -0.9856  0.3285  0.1184
12829TIP3   OH259977   1.441   0.242  36.248 -0.3894 -0.3593  0.2014
12829TIP3    H159978   1.474   0.162  36.207 -0.1216 -0.3300  0.3602
12829TIP3    H259979   1.481   0.312  36.198  1.0437 -0.3108  1.3707
12830TIP3   OH259980   2.037   3.723   9.234 -0.2191 -0.2727  0.3589
12830TIP3    H159981   2.050   3.675   9.315 -0.4322 -1.6779 -0.4037
12830TIP3    H259982   1.958   3.775   9.249 -0.2712 -0.5401  1.0304
12831TIP3   OH259983   3.204   3.924  13.265 -0.1066  0.5460 -0.7518
12831TIP3    H159984   3.299   3.932  13.273 -0.0191 -1.0062  0.0072
12831TIP3    H259985   3.170   4.004  13.305  0.8315  0.0112  1.2261
12832TIP3   OH259986   1.874   2.400  12.437 -0.3218 -0.0546 -0.2069
12832TIP3    H159987   1.898   2.484  12.475 -1.4354  0.8000 -1.3143
12832TIP3    H259988   1.778   2.401  12.434 -0.3169 -0.1416 -2.7817
12833TIP3   OH259989   0.427   3.065   0.343 -0.1835  0.3963  0.0192
12833TIP3    H159990   0.467   2.981   0.364 -1.4937 -0.3627 -0.4332
12833TIP3    H259991   0.344   3.043   0.302 -0.5199  1.9177 -0.1830
12834TIP3   OH259992   3.712   3.263  11.348 -0.5721  0.6960  0.6265
12834TIP3    H159993   3.806   3.279  11.359 -0.5179 -0.3280  2.0989
12834TIP3    H259994   3.704   3.167  11.350 -1.6268  0.7659  0.3908
12835TIP3   OH259995   3.074   3.464  35.414  0.3332 -0.1745 -0.1445
12835TIP3    H159996   2.998   3.522  35.408 -0.8399 -1.5932  0.4221
12835TIP3    H259997   3.037   3.377  35.420  1.9516 -0.7872  2.0567
12836TIP3   OH259998   0.828   0.884  11.539  0.1214 -0.2104  0.1533
12836TIP3    H159999   0.896   0.835  11.585 -1.0414 -0.9466  1.1509
12836TIP3    H260000   0.814   0.961  11.593  1.2323  0.7643 -0.8844
12837TIP3   OH260001   2.089   3.597  39.055 -0.8539  0.9638  0.3736
12837TIP3    H160002   2.162   3.617  38.997 -1.9436 -2.3925 -2.5311
12837TIP3    H260003   2.119   3.520  39.105 -1.8412  0.4242  0.1675
12838TIP3   OH260004   0.427   4.237  13.607 -0.5192 -0.0215  0.1724
12838TIP3    H160005   0.473   4.296  13.667  0.0794 -0.9151  0.6043
12838TIP3    H260006   0.489   4.222  13.536 -1.1083  0.7782 -0.5404
12839TIP3   OH260007   2.657   1.736  29.651 -0.8638 -0.5120  0.3435
12839TIP3    H160008   2.704   1.797  29.708  0.3390 -0.8117 -0.2846
12839TIP3    H260009   2.602   1.793  29.596  0.9073  0.1276 -0.8462
12840TIP3   OH260010   2.833   2.831   0.705 -0.5182  0.1736 -0.1528
12840TIP3    H160011   2.774   2.906   0.711 -0.1410  0.3996  1.1071
12840TIP3    H260012   2.841   2.800   0.795 -1.3644 -1.9542 -0.7339
12841TIP3   OH260013   1.195   0.671  37.630  0.5327  0.5380  0.4724
12841TIP3    H160014   1.237   0.635  37.552  0.7502  0.5861  0.5646
12841TIP3    H260015   1.263   0.727  37.669 -0.1256  1.9146 -0.2552
12842TIP3   OH260016   2.482   1.139  12.108  0.3567 -0.3068  0.4127
12842TIP3    H160017   2.528   1.192  12.172 -0.6152  0.1637  0.7332
12842TIP3    H260018   2.408   1.192  12.081 -0.0037 -1.0496 -0.1047
12843TIP3   OH260019   4.221   1.627  32.809 -0.3165  0.3449  0.0385
12843TIP3    H160020   4.197   1.641  32.717 -0.0426  1.0566  0.0715
12843TIP3    H260021   4.154   1.567  32.842 -1.0485  0.9432 -0.3398
12844TIP3   OH260022   2.843   3.371  29.294  0.0093 -0.3025 -0.6605
12844TIP3    H160023   2.819   3.305  29.358  1.2980 -0.4004 -0.2465
12844TIP3    H260024   2.932   3.348  29.268  0.7058  1.5434 -0.1076
12845TIP3   OH260025   4.396   3.140  10.748  0.3892 -0.1942  0.8920
12845TIP3    H160026   4.459   3.170  10.682 -0.1696 -2.1914 -0.6738
12845TIP3    H260027   4.315   3.187  10.727  0.6142  0.2964  1.1203
12846TIP3   OH260028   4.135   2.996  12.518  0.5318  0.0427 -0.1060
12846TIP3    H160029   4.119   2.991  12.424  0.4699 -1.8364 -0.0236
12846TIP3    H260030   4.229   2.981  12.527  0.9790  2.4334  0.0306
12847TIP3   OH260031   1.354   3.313  27.943 -0.7439 -0.4615 -0.0722
12847TIP3    H160032   1.325   3.260  28.017 -0.3916 -0.4071  0.1073
12847TIP3    H260033   1.432   3.359  27.975 -0.1472 -0.9997 -0.7070
12848TIP3   OH260034   4.086   2.574  36.301 -0.4960 -0.0354 -0.0905
12848TIP3    H160035   4.035   2.493  36.296 -1.3562  0.4011  0.9854
12848TIP3    H260036   4.066   2.620  36.220 -0.6868 -0.5128 -0.3205
12849TIP3   OH260037   3.725   2.938  41.328 -0.3868 -0.5689 -0.0377
12849TIP3    H160038   3.772   2.854  41.324  0.3941 -0.1069 -2.0355
12849TIP3    H260039   3.794   3.003  41.341 -0.9703 -0.2008  1.3335
12850TIP3   OH260040   4.172   1.791  11.838 -0.1699  0.4508  0.2394
12850TIP3    H160041   4.138   1.872  11.798 -1.2674  0.2012  0.6415
12850TIP3    H260042   4.141   1.721  11.780 -0.7258  0.1860  0.8387
12851TIP3   OH260043   3.383   3.590   0.627 -0.5023 -0.8266  0.3642
12851TIP3    H160044   3.323   3.601   0.553 -1.0906  1.7813  1.1177
12851TIP3    H260045   3.466   3.625   0.596 -0.1583 -1.6806  0.2916
12852TIP3   OH260046   0.447   1.283  36.193 -0.0965 -0.3877  0.4647
12852TIP3    H160047   0.359   1.245  36.193  0.2013 -1.1413  1.5128
12852TIP3    H260048   0.459   1.318  36.105 -1.1007 -1.0813  0.0382
12853TIP3   OH260049   1.544   2.776  13.064  0.2158 -0.1618  0.0728
12853TIP3    H160050   1.450   2.777  13.084  0.1541  2.0555 -0.0137
12853TIP3    H260051   1.584   2.735  13.141 -0.8031 -0.9106  0.2198
12854TIP3   OH260052   2.851   4.256  37.229  0.0882 -0.0775  0.3529
12854TIP3    H160053   2.890   4.177  37.191 -0.1087  1.6607 -3.9711
12854TIP3    H260054   2.757   4.238  37.231  0.2196 -0.7726  1.7743
12855TIP3   OH260055   0.075   0.396  10.484 -0.2969  0.5532 -0.3856
12855TIP3    H160056   0.122   0.376  10.565 -1.1004  0.7229  0.1366
12855TIP3    H260057  -0.014   0.361  10.498  0.0434 -1.0884 -1.9202
12856TIP3   OH260058   2.939   1.961   7.310 -0.1227 -0.4941  0.2250
12856TIP3    H160059   2.931   2.014   7.389 -0.4303 -0.8972  0.4667
12856TIP3    H260060   3.009   2.003   7.260  1.4942 -1.3833  1.6349
12857TIP3   OH260061   0.926   0.360  13.221 -0.2031  0.5027  0.1296
12857TIP3    H160062   0.904   0.297  13.290 -0.0189 -2.0260 -1.9738
12857TIP3    H260063   0.858   0.428  13.228 -0.4475  0.0896  2.4563
12858TIP3   OH260064   1.746   0.571  38.225  0.1462  0.1508  0.0702
12858TIP3    H160065   1.669   0.617  38.256 -0.4998 -0.7286 -0.1993
12858TIP3    H260066   1.739   0.573  38.130  1.7516  2.2122 -0.0721
12859TIP3   OH260067   1.093   1.040   1.788 -0.0614 -0.6506  0.3301
12859TIP3    H160068   1.113   1.133   1.797  1.0464 -0.9285  0.9778
12859TIP3    H260069   0.999   1.037   1.769 -0.1974  0.5774  0.7064
12860TIP3   OH260070   2.089   0.201  12.083 -0.2030 -0.0209 -0.0021
12860TIP3    H160071   2.026   0.234  12.147  0.3056 -2.1992  1.7759
12860TIP3    H260072   2.173   0.239  12.110  0.2242 -1.8282  1.5001
12861TIP3   OH260073   1.870   0.342   2.321  0.2800  0.3811  0.3665
12861TIP3    H160074   1.783   0.303   2.311  0.8236 -0.9929  0.8771
12861TIP3    H260075   1.874   0.367   2.413  0.2120  1.0309  0.2041
12862TIP3   OH260076   1.839   2.763  27.731 -0.4275 -0.0885  0.3246
12862TIP3    H160077   1.824   2.706  27.655 -0.3542 -1.0075  0.9825
12862TIP3    H260078   1.934   2.761  27.744 -0.4307  0.1470  0.3757
12863TIP3   OH260079   1.436   0.564   7.936 -0.0613  0.8193 -0.1526
12863TIP3    H160080   1.355   0.586   7.983 -0.5516  1.0229 -1.0615
12863TIP3    H260081   1.505   0.576   8.000 -0.7774  0.3055  0.7528
12864TIP3   OH260082   0.166   1.848  24.556 -0.6408 -0.1361  0.1137
12864TIP3    H160083   0.109   1.922  24.539 -0.4216 -0.0683 -0.3293
12864TIP3    H260084   0.213   1.833  24.474 -1.1801 -1.1962 -0.0194
12865TIP3   OH260085   3.242   0.502  36.453 -0.3327 -1.0387 -0.5440
12865TIP3    H160086   3.244   0.594  36.479  0.6666 -1.2147  0.0643
12865TIP3    H260087   3.182   0.500  36.379  0.6231  0.3409 -1.4203
12866TIP3   OH260088   0.986   0.065  38.259  0.2848  0.7841 -0.5437
12866TIP3    H160089   0.950   0.094  38.342  1.4112  2.5161 -0.6204
12866TIP3    H260090   1.074   0.035  38.280  0.2720  0.4040 -0.9947
12867TIP3   OH260091   3.575   1.161  35.704 -0.6582  0.8991 -0.0070
12867TIP3    H160092   3.664   1.154  35.670 -1.3623  1.0721 -1.9750
12867TIP3    H260093   3.563   1.081  35.755  0.5384  0.7822  0.1217
12868TIP3   OH260094   0.733   0.365  40.605  0.1034 -0.0380 -0.0730
12868TIP3    H160095   0.819   0.401  40.585 -0.5562  0.6172 -1.9660
12868TIP3    H260096   0.673   0.437  40.587 -0.9636 -0.9415 -0.2335
12869TIP3   OH260097   0.295   4.261  35.205  0.0270  0.3566 -0.2605
12869TIP3    H160098   0.370   4.295  35.254  1.8500 -0.9396 -1.9505
12869TIP3    H260099   0.251   4.339  35.171  0.5775  1.1469  0.7815
12870TIP3   OH260100   4.079   0.418  26.901 -0.7493  0.2501  0.2919
12870TIP3    H160101   4.009   0.481  26.920 -0.2835  0.7288  0.4367
12870TIP3    H260102   4.103   0.384  26.987 -2.5740 -1.8734  0.0609
12871TIP3   OH260103   2.640   0.227  34.827  0.2238  0.0295 -0.4340
12871TIP3    H160104   2.634   0.294  34.758  1.5325  0.8996  0.2624
12871TIP3    H260105   2.562   0.174  34.815 -0.6177  1.3978 -1.3135
12872TIP3   OH260106   2.320   2.854  40.485  0.1687 -0.8146 -0.2758
12872TIP3    H160107   2.405   2.882  40.520 -0.1103  0.5740 -0.6209
12872TIP3    H260108   2.286   2.792  40.549  1.1404 -0.8674  0.2076
12873TIP3   OH260109   1.643   1.295  37.676  0.5466  0.1661  0.1464
12873TIP3    H160110   1.610   1.228  37.736 -0.1191  0.6740  0.3597
12873TIP3    H260111   1.732   1.312  37.705  0.4930 -0.1555  0.5035
12874TIP3   OH260112   1.921   1.957  12.070  0.4235 -0.1539  0.1036
12874TIP3    H160113   1.959   1.986  11.987 -1.2298 -0.1720 -0.7166
12874TIP3    H260114   1.994   1.955  12.131  1.5735  0.4708 -1.1959
12875TIP3   OH260115   2.066   1.030   5.850 -0.4348 -0.3576  0.1916
12875TIP3    H160116   2.085   1.107   5.796  0.7565 -0.4511  0.4499
12875TIP3    H260117   1.972   1.035   5.868 -0.1030  1.9430  1.5977
12876TIP3   OH260118   2.685   0.189  33.053 -0.1876  0.4737  0.7617
12876TIP3    H160119   2.595   0.192  33.086  0.6928  1.3913  3.3137
12876TIP3    H260120   2.739   0.209  33.129  2.1497  1.1937 -0.9732
12877TIP3   OH260121   2.330   3.162  33.130  0.5734 -0.0085 -0.4025
12877TIP3    H160122   2.242   3.190  33.153  1.0846  0.7542  0.7450
12877TIP3    H260123   2.326   3.144  33.037 -1.5715 -3.0300  0.1263
12878TIP3   OH260124   3.995   4.356   1.200  0.1269  0.3262 -0.2128
12878TIP3    H160125   4.057   4.300   1.247  1.6294  1.2851 -0.9612
12878TIP3    H260126   3.956   4.411   1.268  1.0015  0.5204  0.1511
12879TIP3   OH260127   1.542   4.004   7.472  0.0653  0.2345 -0.1689
12879TIP3    H160128   1.568   4.078   7.418 -1.6115  1.6147  0.7797
12879TIP3    H260129   1.466   3.967   7.427 -0.6724  0.7250  0.6293
12880TIP3   OH260130   1.193   2.618  18.838 -0.3486 -0.0449 -0.1758
12880TIP3    H160131   1.285   2.644  18.835 -0.2529 -0.4296 -0.7243
12880TIP3    H260132   1.172   2.614  18.932  0.0990  0.3561 -0.0541
12881TIP3   OH260133   2.779   2.046  40.422  0.7445  0.4275 -0.5412
12881TIP3    H160134   2.835   2.041  40.499  0.4629  1.7992 -0.2194
12881TIP3    H260135   2.796   2.133  40.386 -0.5740  0.5460 -0.9103
12882TIP3   OH260136   3.465   0.785  10.878  0.1117  0.6338 -0.2833
12882TIP3    H160137   3.540   0.768  10.820  0.9950 -0.7039  1.1573
12882TIP3    H260138   3.490   0.864  10.925 -0.9462  2.1686 -2.1872
12883TIP3   OH260139   2.653   0.249   0.660  0.4633  0.2243 -0.2299
12883TIP3    H160140   2.709   0.183   0.700  0.4308  0.4366  0.1785
12883TIP3    H260141   2.707   0.328   0.659 -0.0726  0.6274  0.8668
12884TIP3   OH260142   0.328   1.141   0.656 -0.0996 -0.1166  0.0611
12884TIP3    H160143   0.355   1.059   0.698 -1.0256 -0.4560  0.0118
12884TIP3    H260144   0.410   1.188   0.642  0.3037 -0.2354  1.7295
12885TIP3   OH260145   2.315   3.217   6.949 -0.3996 -0.5169  0.4696
12885TIP3    H160146   2.397   3.261   6.929 -0.2619 -0.2165  1.6076
12885TIP3    H260147   2.255   3.244   6.879 -0.0628  0.7748  0.6596
12886TIP3   OH260148   2.209   3.240  36.378 -0.1697  0.5774 -0.5840
12886TIP3    H160149   2.194   3.165  36.435  2.4207  2.1482  2.4957
12886TIP3    H260150   2.294   3.222  36.336  0.3340  1.6235 -0.0367
12887TIP3   OH260151   2.633   2.271  27.977  0.2368 -0.3531 -0.5714
12887TIP3    H160152   2.588   2.337  27.924  1.1101  0.0053 -0.8747
12887TIP3    H260153   2.607   2.187  27.938  0.7952 -0.0964 -1.5116
12888TIP3   OH260154   2.888   4.145  30.123  0.4945  0.4446  0.2902
12888TIP3    H160155   2.805   4.125  30.080  1.0125  0.6470 -0.8458
12888TIP3    H260156   2.946   4.073  30.097  0.3554 -0.3489  2.0680
12889TIP3   OH260157   1.298   1.660  17.839 -0.6271 -0.1035  0.2371
12889TIP3    H160158   1.316   1.703  17.923 -1.0093  0.5235  0.0081
12889TIP3    H260159   1.305   1.566  17.858  0.2833  0.0541  0.7364
12890TIP3   OH260160   0.540   1.511   1.226 -0.2208  0.5765  0.0597
12890TIP3    H160161   0.513   1.420   1.238  2.6970 -0.1438  2.2093
12890TIP3    H260162   0.579   1.513   1.139 -0.6860 -0.1135 -0.1790
12891TIP3   OH260163   0.900   2.282  37.048  0.2717  0.5634  0.3089
12891TIP3    H160164   0.947   2.202  37.026 -0.8544 -0.0492  0.0825
12891TIP3    H260165   0.936   2.308  37.133 -1.1086 -1.6249  1.6473
12892TIP3   OH260166   4.387   1.622   5.956 -0.5546 -0.0324  0.0032
12892TIP3    H160167   4.464   1.618   6.013 -0.1009  1.1944 -0.4892
12892TIP3    H260168   4.324   1.674   6.004 -0.6630 -0.1058 -0.0588
12893TIP3   OH260169   3.256   2.956  36.366  0.3553  0.6532 -0.0438
12893TIP3    H160170   3.179   2.903  36.387  0.9629 -0.8997 -1.5050
12893TIP3    H260171   3.290   2.983  36.451 -0.2475 -0.9317  0.7444
12894TIP3   OH260172   1.064   2.997   6.509 -0.2451 -0.4565  0.3697
12894TIP3    H160173   1.079   3.023   6.419  2.4794 -0.1165  0.8578
12894TIP3    H260174   1.099   3.068   6.562 -2.4210 -0.3215  1.7528
12895TIP3   OH260175   2.675   0.054  28.333 -0.8678  0.0140 -0.0738
12895TIP3    H160176   2.713   0.051  28.245 -0.3327 -0.9244  0.1764
12895TIP3    H260177   2.660  -0.038  28.356  0.5257  0.1240  1.4555
12896TIP3   OH260178   2.972   3.816  28.429  0.2613 -0.2456 -0.3528
12896TIP3    H160179   2.956   3.814  28.335 -1.8055  0.3745 -0.0614
12896TIP3    H260180   2.948   3.729  28.459 -0.1599 -0.0979 -0.2552
12897TIP3   OH260181   3.118   1.115   2.440 -0.6973 -0.1204  0.5786
12897TIP3    H160182   3.061   1.084   2.510  1.3363  0.2926  2.5314
12897TIP3    H260183   3.142   1.204   2.467 -0.2832  0.2489 -0.9383
12898TIP3   OH260184   0.907   4.017  14.380  0.2756 -0.4944 -0.1397
12898TIP3    H160185   0.916   4.109  14.405 -0.4850 -0.3490 -0.3808
12898TIP3    H260186   0.856   4.018  14.300  1.0603 -1.0818 -0.6645
12899TIP3   OH260187   0.715   4.376  27.509 -0.4730 -0.4294 -0.0154
12899TIP3    H160188   0.699   4.300  27.565 -1.6074 -0.3851 -0.2605
12899TIP3    H260189   0.767   4.435  27.563 -1.7923 -0.2577  1.1360
12900TIP3   OH260190   3.123   4.260  38.474  0.3203 -0.3412  0.2102
12900TIP3    H160191   3.097   4.196  38.541 -0.9779 -0.1877 -0.1152
12900TIP3    H260192   3.055   4.253  38.406  0.6854  0.6917 -0.2850
12901TIP3   OH260193   0.186   3.351   5.084  0.0030 -0.7800 -0.4138
12901TIP3    H160194   0.256   3.335   5.147 -0.7703 -0.2313  0.6280
12901TIP3    H260195   0.108   3.311   5.123 -0.1552 -1.9676 -1.8664
12902TIP3   OH260196   2.137   2.141  37.924 -0.1218 -0.0402 -0.1204
12902TIP3    H160197   2.047   2.109  37.928  0.1127 -0.7850 -0.6507
12902TIP3    H260198   2.129   2.233  37.901 -0.8335  0.4564  1.8687
12903TIP3   OH260199   2.398   1.948  41.210  0.1495  0.3737  0.1581
12903TIP3    H160200   2.319   1.992  41.180  0.8983  1.9629  0.4333
12903TIP3    H260201   2.424   1.995  41.289  2.3697  1.1249 -0.9114
12904TIP3   OH260202   0.239   2.644   6.197 -0.0830 -0.4628  0.5200
12904TIP3    H160203   0.227   2.602   6.283  0.8793  2.1851  2.0926
12904TIP3    H260204   0.327   2.619   6.171 -0.5825 -1.7471 -0.0564
12905TIP3   OH260205   1.120   2.135  36.104  0.4782  0.1219  0.4370
12905TIP3    H160206   1.207   2.095  36.114  0.0296 -0.5188  2.0360
12905TIP3    H260207   1.134   2.228  36.123  1.0001  0.2356 -0.4340
12906TIP3   OH260208   0.332   0.127  13.419  0.1174  0.0926 -0.3914
12906TIP3    H160209   0.411   0.091  13.378  0.1032 -1.0764  0.5607
12906TIP3    H260210   0.364   0.199  13.473  0.4166  0.2137 -0.7258
12907TIP3   OH260211   2.280   2.316  11.187  0.3439  0.3197  0.0461
12907TIP3    H160212   2.216   2.250  11.214 -0.6790  0.4786 -1.8462
12907TIP3    H260213   2.280   2.379  11.259  0.2181 -0.9350  1.1993
12908TIP3   OH260214   2.791   4.365  35.024  0.3205  0.1298  0.4656
12908TIP3    H160215   2.739   4.409  35.092 -1.9075 -2.6058  0.7295
12908TIP3    H260216   2.735   4.368  34.946  0.4322 -1.4875  0.2956
12909TIP3   OH260217   2.340   4.021   4.760 -1.2421  0.1067  0.1798
12909TIP3    H160218   2.316   3.937   4.722 -1.5331  0.0698  0.4473
12909TIP3    H260219   2.346   4.080   4.685 -0.6306 -0.2417 -0.0579
12910TIP3   OH260220   2.602   3.839  10.767  0.0314 -0.2430 -0.1993
12910TIP3    H160221   2.556   3.881  10.839 -0.7919  0.9005 -1.3499
12910TIP3    H260222   2.677   3.895  10.751  1.4998 -1.7009  1.1789
12911TIP3   OH260223   3.662   1.540  26.441  0.2248  0.6720 -0.1449
12911TIP3    H160224   3.581   1.591  26.441  0.7213  1.4902 -0.4580
12911TIP3    H260225   3.661   1.492  26.524 -1.2941 -0.5285 -0.8194
12912TIP3   OH260226   2.044   4.083   8.476 -0.0498  0.0057 -1.0329
12912TIP3    H160227   2.062   4.073   8.570  0.3176 -1.5509 -1.2492
12912TIP3    H260228   2.045   4.178   8.462  1.0092  0.2354  0.3339
12913TIP3   OH260229   0.905   4.385  12.165  0.3654 -0.1760  0.3808
12913TIP3    H160230   0.885   4.303  12.120 -0.8354 -0.9028  2.1495
12913TIP3    H260231   0.911   4.450  12.095 -3.5708 -0.8106 -0.7514
12914TIP3   OH260232   0.702   3.290  15.048 -0.3371  0.0350  0.2511
12914TIP3    H160233   0.626   3.249  15.007  0.7039 -0.2366 -1.5398
12914TIP3    H260234   0.770   3.222  15.045  0.1963  0.5056  1.1558
12915TIP3   OH260235   3.638   3.218  41.216  0.0152 -0.4190  0.1095
12915TIP3    H160236   3.624   3.162  41.292 -0.2582  0.3345  0.6194
12915TIP3    H260237   3.602   3.303  41.241  0.6424  0.0611 -0.5633
12916TIP3   OH260238   2.391   0.995   7.314  0.1142  0.5068  0.0834
12916TIP3    H160239   2.341   1.008   7.394  2.7872  1.0846  1.7607
12916TIP3    H260240   2.462   1.059   7.319  1.6797 -0.9934 -1.6209
12917TIP3   OH260241   1.313   1.020  37.685 -0.5204  0.3959 -0.3549
12917TIP3    H160242   1.222   1.000  37.663 -0.4195 -1.4517  0.7299
12917TIP3    H260243   1.358   0.936  37.682  0.9719  1.1438 -0.0167
12918TIP3   OH260244   0.836   3.121  35.819  0.2753  0.4522 -0.1632
12918TIP3    H160245   0.761   3.067  35.844 -0.5363  1.2318 -0.8420
12918TIP3    H260246   0.909   3.059  35.812 -0.0395 -0.1563  1.5906
12919TIP3   OH260247   2.816   0.357  33.613  0.0307 -0.6274  0.3056
12919TIP3    H160248   2.818   0.265  33.588  1.6136 -0.3737 -0.6827
12919TIP3    H260249   2.891   0.396  33.567 -1.8314  1.6182 -1.0367
12920TIP3   OH260250   0.694   0.895  31.002 -0.6226 -0.2121 -0.3157
12920TIP3    H160251   0.760   0.830  30.981 -0.5524  0.4044 -2.2014
12920TIP3    H260252   0.610   0.849  30.996 -0.5499 -0.2272 -1.2491
12921TIP3   OH260253   0.148   2.833   0.837  0.0960  0.3401  0.1599
12921TIP3    H160254   0.090   2.908   0.831 -0.0610  0.2581  0.5906
12921TIP3    H260255   0.203   2.838   0.759  0.4702  1.2189  0.4608
12922TIP3   OH260256   0.233   1.659  13.493 -0.2620 -0.0429 -0.2129
12922TIP3    H160257   0.140   1.678  13.481 -0.5050 -0.2531  1.1730
12922TIP3    H260258   0.240   1.631  13.584  1.0049 -1.0224 -0.5858
12923TIP3   OH260259   1.842   1.126  12.646 -0.1857  0.2158  0.5496
12923TIP3    H160260   1.763   1.153  12.692  0.2738  0.8369  0.9863
12923TIP3    H260261   1.817   1.124  12.554 -0.6520  0.6093  0.6664
12924TIP3   OH260262   3.418   2.684  33.386  0.2837  0.1633  0.1001
12924TIP3    H160263   3.372   2.684  33.302 -0.3469  0.3021  0.4429
12924TIP3    H260264   3.457   2.771  33.393  0.9661 -0.0891 -0.3836
12925TIP3   OH260265   4.295   1.522  10.161 -0.1873 -0.4395  0.1501
12925TIP3    H160266   4.311   1.558  10.073 -0.6530  0.0032  0.2442
12925TIP3    H260267   4.379   1.484  10.186 -0.1278 -0.8172 -0.6026
12926TIP3   OH260268   0.699   1.583   7.907  0.7450  0.3867  0.2431
12926TIP3    H160269   0.693   1.557   7.815  0.8188  0.7262  0.1423
12926TIP3    H260270   0.698   1.679   7.905 -1.6860  0.4568  0.7313
12927TIP3   OH260271   2.029   1.633  12.617  0.4668  0.1329  0.0953
12927TIP3    H160272   1.986   1.663  12.537 -4.4617 -1.3994  1.8277
12927TIP3    H260273   1.994   1.689  12.686  2.9802  0.0669  1.5637
12928TIP3   OH260274   2.554   3.905  32.529 -0.0728 -0.0812  0.9398
12928TIP3    H160275   2.564   3.880  32.621 -0.9028  0.7569  1.2701
12928TIP3    H260276   2.466   3.943  32.524  0.1860  0.4083 -0.0792
12929TIP3   OH260277   4.324   0.866   5.774 -0.0057 -0.3351  0.0308
12929TIP3    H160278   4.379   0.870   5.696  0.8492 -3.7709  0.3195
12929TIP3    H260279   4.235   0.875   5.741  0.4124 -0.3481 -1.1517
12930TIP3   OH260280   3.739   2.004   1.909 -0.6490 -0.0852  0.3538
12930TIP3    H160281   3.673   2.007   1.978  0.4419  0.4670  1.4147
12930TIP3    H260282   3.808   1.947   1.945 -0.5736 -0.7347 -0.7709
12931TIP3   OH260283   3.530   3.249  28.683  0.0911 -0.3714  0.5284
12931TIP3    H160284   3.612   3.203  28.700  0.1194 -0.5758 -0.1354
12931TIP3    H260285   3.522   3.249  28.587 -0.0115  0.8223  0.5261
12932TIP3   OH260286   1.445   1.078  35.574  0.1610 -0.2806  0.3673
12932TIP3    H160287   1.388   1.001  35.582  1.5588 -1.1503  2.8549
12932TIP3    H260288   1.406   1.143  35.632  1.2975 -0.6574  1.5888
12933TIP3   OH260289   3.154   2.989  30.236  0.4241 -0.2265  0.0917
12933TIP3    H160290   3.144   2.935  30.158  1.7422  1.8415 -1.6000
12933TIP3    H260291   3.239   2.963  30.272  1.2702  0.9566 -0.9796
12934TIP3   OH260292   3.775   3.600   1.628 -0.4705 -0.4675  0.2582
12934TIP3    H160293   3.846   3.542   1.657  0.2832 -0.2139 -1.0419
12934TIP3    H260294   3.800   3.686   1.662 -0.5453 -0.5212  0.4500
12935TIP3   OH260295   3.876   3.856   2.037 -0.8449  0.2940 -0.0647
12935TIP3    H160296   3.830   3.906   2.105  1.2095  0.0601  1.5709
12935TIP3    H260297   3.967   3.855   2.065  0.2128  0.6295 -3.1230
12936TIP3   OH260298   4.177   1.644  12.822 -0.1418 -0.0982 -0.1828
12936TIP3    H160299   4.089   1.633  12.785 -0.3915 -0.9388  0.6105
12936TIP3    H260300   4.167   1.620  12.914  1.1085 -1.1236 -0.2899
12937TIP3   OH260301   1.497   2.179  28.581 -0.4043  0.0464 -0.3896
12937TIP3    H160302   1.489   2.195  28.487  2.4916 -0.6395 -0.8436
12937TIP3    H260303   1.464   2.090  28.593  0.1447 -0.2386 -0.9428
12938TIP3   OH260304   0.326   3.200  32.921  0.6493 -0.1650  0.1512
12938TIP3    H160305   0.263   3.127  32.923  0.2083  0.2257  1.2201
12938TIP3    H260306   0.337   3.224  33.013  0.7391  1.1613 -0.1906
12939TIP3   OH260307   2.964   3.151  33.253 -0.2250  0.6992  0.2463
12939TIP3    H160308   2.932   3.227  33.302  0.5005  2.0407 -1.2482
12939TIP3    H260309   2.888   3.095  33.243 -0.1346 -0.3439  3.9984
12940TIP3   OH260310   3.481   3.014  30.695 -0.7173  0.8069 -0.1073
12940TIP3    H160311   3.419   3.008  30.768 -1.8462 -0.3363 -1.0947
12940TIP3    H260312   3.525   3.097  30.707 -1.4228  0.9925  1.4511
12941TIP3   OH260313   0.872   1.875  32.835 -0.3710 -0.2376  0.2848
12941TIP3    H160314   0.948   1.849  32.887 -0.1502  3.0485  1.8677
12941TIP3    H260315   0.907   1.886  32.746  0.8867  0.6042  0.8569
12942TIP3   OH260316   3.181   1.683  12.881 -0.2996  0.2023  0.0383
12942TIP3    H160317   3.212   1.750  12.820 -2.1406  0.6145 -0.5005
12942TIP3    H260318   3.151   1.731  12.957  0.0319 -0.1573  0.3997
12943TIP3   OH260319   3.579   0.588  37.639 -0.1173 -0.3998 -0.3194
12943TIP3    H160320   3.540   0.604  37.724  0.1292  0.8504 -0.4239
12943TIP3    H260321   3.636   0.664  37.624  2.1890 -2.0174 -0.2660
12944TIP3   OH260322   1.183   4.330  38.940  0.1976 -0.1481  0.3069
12944TIP3    H160323   1.160   4.399  38.878 -0.0889  0.3222  0.9327
12944TIP3    H260324   1.262   4.290  38.904  0.5765  0.7485  0.1343
12945TIP3   OH260325   4.121   1.992   7.063 -0.2809 -0.1814  0.4323
12945TIP3    H160326   4.161   2.023   6.982 -0.3218 -1.5258 -0.1431
12945TIP3    H260327   4.087   2.071   7.105  0.4796  0.6421 -0.4450
12946TIP3   OH260328   0.234   1.166   9.725 -0.0074  0.2901 -0.3872
12946TIP3    H160329   0.193   1.114   9.795 -0.2069  1.0470  0.0755
12946TIP3    H260330   0.202   1.128   9.644 -1.4683  0.7212 -0.0372
12947TIP3   OH260331   0.885   0.912  32.637  0.0652 -0.1719 -0.3198
12947TIP3    H160332   0.826   0.952  32.701 -0.0546  1.7784 -1.5695
12947TIP3    H260333   0.969   0.905  32.683 -0.7926 -1.9479  1.1113
12948TIP3   OH260334   3.930   3.329  30.873  0.0797 -0.2851 -0.5489
12948TIP3    H160335   4.025   3.318  30.873 -0.0191 -1.3515  0.5442
12948TIP3    H260336   3.914   3.403  30.932  0.1887 -0.5932 -0.1313
12949TIP3   OH260337   4.293   1.499   9.260 -0.0410 -0.4172  0.0006
12949TIP3    H160338   4.198   1.482   9.258 -0.0746 -0.4584  1.0663
12949TIP3    H260339   4.332   1.422   9.219 -0.4242 -0.8722  0.4732
12950TIP3   OH260340   3.241   1.160  30.071  0.0511  0.4024 -0.0216
12950TIP3    H160341   3.208   1.230  30.128  1.7912  0.6463  0.7370
12950TIP3    H260342   3.305   1.203  30.015  2.3199 -0.7991  1.5092
12951TIP3   OH260343   2.498   0.540  41.079  0.0614 -0.8145 -0.0620
12951TIP3    H160344   2.413   0.501  41.060 -0.1707  0.0587 -0.9211
12951TIP3    H260345   2.477   0.617  41.133  0.3526 -0.8676  0.1288
12952TIP3   OH260346   1.403   1.411  28.026  0.0108 -0.9872 -0.1330
12952TIP3    H160347   1.412   1.495  28.071  0.1199 -0.3797 -1.2664
12952TIP3    H260348   1.491   1.373  28.028  0.0126 -0.9699  0.1648
12953TIP3   OH260349   0.333   1.723  30.213 -0.0266  0.3743 -0.2598
12953TIP3    H160350   0.306   1.738  30.303 -1.7348 -0.3809 -0.5994
12953TIP3    H260351   0.385   1.642  30.216  0.0522  0.4372  0.0572
12954TIP3   OH260352   0.782   0.472  32.674 -0.0018  0.2626  0.3117
12954TIP3    H160353   0.702   0.426  32.647  0.1486 -0.7304  1.4463
12954TIP3    H260354   0.804   0.432  32.759  2.7269 -0.7989 -0.7900
12955TIP3   OH260355   0.196   3.840  38.014 -0.5043 -0.5090 -0.0069
12955TIP3    H160356   0.173   3.826  37.922  2.0278  0.2194 -0.8395
12955TIP3    H260357   0.266   3.777  38.031 -0.0188  0.2661  0.9861
12956TIP3   OH260358   0.872   2.687   0.083  0.3423  0.5769 -0.0927
12956TIP3    H160359   0.869   2.608   0.028  0.3689 -0.0095  0.7272
12956TIP3    H260360   0.943   2.739   0.046 -0.4379  0.7879 -1.3745
12957TIP3   OH260361   3.886   2.469  10.535 -0.4761 -0.0444  0.4899
12957TIP3    H160362   3.868   2.433  10.622 -0.0742  0.8658  0.9595
12957TIP3    H260363   3.914   2.559  10.552 -0.8589  0.2918 -0.6144
12958TIP3   OH260364   2.837   2.045  34.365 -0.2660  0.2063  0.7378
12958TIP3    H160365   2.768   1.991  34.403  1.5469 -1.6962  1.5097
12958TIP3    H260366   2.854   2.112  34.432 -2.6577  2.0348 -0.3119
12959TIP3   OH260367   2.765   3.548  33.159  0.7662  0.2040  0.0040
12959TIP3    H160368   2.691   3.493  33.184  1.0899  0.3100  1.2761
12959TIP3    H260369   2.777   3.531  33.065 -2.4033  2.0522 -0.8652
12960TIP3   OH260370   3.245   1.260   3.996 -0.0470  0.1000  0.0045
12960TIP3    H160371   3.311   1.231   4.059  2.3145  0.4286 -2.1532
12960TIP3    H260372   3.193   1.181   3.978 -0.0498 -0.2642  1.4603
12961TIP3   OH260373   2.532   2.855   1.613 -0.5980  0.0826 -0.0862
12961TIP3    H160374   2.610   2.814   1.575  2.9688  2.6775  3.5715
12961TIP3    H260375   2.466   2.847   1.544  2.4294 -3.3932 -3.0607
12962TIP3   OH260376   4.352   3.906  37.554 -0.4638  0.3815 -0.2764
12962TIP3    H160377   4.379   3.888  37.464 -0.0128  1.5472 -0.3969
12962TIP3    H260378   4.259   3.928  37.547 -0.4734  0.2924 -0.4314
12963TIP3   OH260379   0.472   3.928  41.551 -0.2837 -0.2484  0.3625
12963TIP3    H160380   0.515   3.850  41.587 -2.9431 -1.7965  0.5319
12963TIP3    H260381   0.380   3.903  41.545 -0.9389  2.2088 -1.5803
12964TIP3   OH260382   2.587   2.414  41.005 -0.0754 -0.2728 -0.0474
12964TIP3    H160383   2.504   2.374  41.030 -0.1104 -0.2522 -0.1320
12964TIP3    H260384   2.650   2.342  41.008  0.5085  0.2121  2.8839
12965TIP3   OH260385   1.940   0.653  11.639  0.1074  0.0610  0.2692
12965TIP3    H160386   1.931   0.647  11.734 -4.2624 -2.1556 -0.0169
12965TIP3    H260387   1.952   0.562  11.611 -0.4000  0.4738 -1.3661
12966TIP3   OH260388   3.916   3.421  33.857 -0.7336 -0.0771 -0.8894
12966TIP3    H160389   3.929   3.378  33.773  0.7486 -1.1827 -0.1536
12966TIP3    H260390   3.940   3.512  33.841  2.1815 -0.7767 -1.1533
12967TIP3   OH260391   3.470   2.323   2.214  0.0460  0.6901  0.4395
12967TIP3    H160392   3.558   2.343   2.181  0.3147 -0.3023  0.5294
12967TIP3    H260393   3.430   2.272   2.144 -0.2327  0.5843  0.6767
12968TIP3   OH260394   1.103   2.944  11.643  0.4470  0.4666 -0.0838
12968TIP3    H160395   1.034   2.937  11.709 -0.1352  0.7288 -0.6601
12968TIP3    H260396   1.178   2.978  11.691  0.1353  0.3256  0.5175
12969TIP3   OH260397   3.702   0.965   6.624 -0.1355 -0.0530  0.1444
12969TIP3    H160398   3.686   0.878   6.662  2.4395 -0.6721  0.0193
12969TIP3    H260399   3.731   1.018   6.698 -1.8216  0.7932  0.2425
12970TIP3   OH260400   3.328   0.133  31.327  0.0147  0.1326  0.1666
12970TIP3    H160401   3.407   0.112  31.378 -0.6007 -0.2988  0.9585
12970TIP3    H260402   3.275   0.187  31.385 -0.7689 -0.5003  0.0530
12971TIP3   OH260403   2.649   2.340  29.368  0.7558  0.0815 -0.5349
12971TIP3    H160404   2.732   2.363  29.326  0.4575 -0.9356 -1.7234
12971TIP3    H260405   2.627   2.254  29.333 -0.3058 -0.1206  0.5406
12972TIP3   OH260406   3.705   3.446   1.182  0.3099  0.0647 -0.2007
12972TIP3    H160407   3.757   3.447   1.102 -1.8246 -2.1951 -1.7625
12972TIP3    H260408   3.765   3.411   1.249  1.4360 -0.2745 -1.3481
12973TIP3   OH260409   0.214   1.320  28.631  0.1468  0.4843 -0.6697
12973TIP3    H160410   0.124   1.299  28.656  0.5415 -0.3071  0.1633
12973TIP3    H260411   0.216   1.310  28.536 -0.5932  0.3165 -0.6739
12974TIP3   OH260412   0.153   3.252  35.759  0.5291 -0.7096  0.5016
12974TIP3    H160413   0.065   3.235  35.792 -0.5812 -0.1084 -1.8843
12974TIP3    H260414   0.210   3.194  35.809 -1.1824 -0.9675  2.2458
12975TIP3   OH260415   2.839   1.123  31.943  0.4739  0.2134  0.3420
12975TIP3    H160416   2.921   1.078  31.963  1.4069  0.6862 -2.0400
12975TIP3    H260417   2.778   1.091  32.009  1.6113 -2.9557  0.0793
12976TIP3   OH260418   4.216   4.381  23.085  0.7749 -0.1497  0.5454
12976TIP3    H160419   4.247   4.311  23.142 -1.0708  0.8205  2.9237
12976TIP3    H260420   4.121   4.379  23.094  0.2748 -0.4059 -3.2166
12977TIP3   OH260421   0.442   0.154  11.337  0.2982  0.1787 -0.4271
12977TIP3    H160422   0.507   0.101  11.290  0.2963 -0.3230  0.1174
12977TIP3    H260423   0.489   0.184  11.415 -0.3821 -1.0050  0.4863
12978TIP3   OH260424   4.050   2.404  27.898 -0.0095  0.2083  0.5202
12978TIP3    H160425   4.131   2.368  27.863 -0.0872  0.4668  0.0535
12978TIP3    H260426   4.033   2.481  27.844 -0.4020  0.3323  0.8142
12979TIP3   OH260427   1.467   0.107   1.717 -0.0180  0.5820 -0.0971
12979TIP3    H160428   1.548   0.141   1.754  0.1402 -0.1226  0.2230
12979TIP3    H260429   1.494   0.061   1.637 -0.2839  1.5644 -0.7748
12980TIP3   OH260430   1.606   4.369  33.568 -0.1988 -0.0338 -0.1232
12980TIP3    H160431   1.651   4.323  33.639 -0.5828 -0.4819 -0.1669
12980TIP3    H260432   1.520   4.328  33.564  0.2219 -0.8166 -1.6384
12981TIP3   OH260433   0.457   1.967  29.936 -0.1511  0.1644  0.0009
12981TIP3    H160434   0.402   1.892  29.914  0.4198  0.0567 -1.1178
12981TIP3    H260435   0.486   2.001  29.851 -3.0287  3.6794  0.2161
12982TIP3   OH260436   2.852   1.484  36.821 -0.1124 -0.4921  0.2540
12982TIP3    H160437   2.862   1.548  36.751 -0.6537 -1.8183 -1.0910
12982TIP3    H260438   2.939   1.445  36.831 -0.1632 -0.6793 -0.0479
12983TIP3   OH260439   3.708   0.176  38.575 -0.7349  0.3211 -0.3258
12983TIP3    H160440   3.707   0.080  38.570 -0.2017  0.2556  0.5967
12983TIP3    H260441   3.639   0.198  38.639 -0.1712  0.4856  0.2329
12984TIP3   OH260442   2.232   3.523  31.620 -0.5594  0.6712  0.3100
12984TIP3    H160443   2.171   3.564  31.558  0.4798  3.3220  0.9143
12984TIP3    H260444   2.318   3.553  31.592  0.3878 -1.5836  0.5427
12985TIP3   OH260445   2.307   0.279  11.079 -0.7415  0.4162  0.1955
12985TIP3    H160446   2.350   0.364  11.082 -0.5555  0.3030  0.8385
12985TIP3    H260447   2.291   0.264  10.985  1.1569  0.2041 -0.1365
12986TIP3   OH260448   3.303   0.849  26.608 -0.4915  0.0206 -0.6755
12986TIP3    H160449   3.293   0.928  26.662 -2.9299  0.4235 -1.6178
12986TIP3    H260450   3.234   0.790  26.638 -0.2714 -0.7661 -1.6506
12987TIP3   OH260451   0.019   3.668  38.517  0.4262  0.0759 -0.0108
12987TIP3    H160452  -0.029   3.623  38.587  1.0267 -0.6546 -0.0536
12987TIP3    H260453   0.111   3.646  38.533  0.6594  0.7159 -0.4566
12988TIP3   OH260454   3.547   4.180  29.859 -0.9132 -0.0227  0.5404
12988TIP3    H160455   3.468   4.232  29.844 -1.9025 -1.6842 -0.3338
12988TIP3    H260456   3.521   4.091  29.838  1.0827 -0.7010  0.7329
12989TIP3   OH260457   1.602   0.420  36.636 -0.3805 -0.0123 -0.3754
12989TIP3    H160458   1.506   0.411  36.633 -0.3419 -0.2458 -1.1460
12989TIP3    H260459   1.616   0.511  36.659 -0.7731 -0.7095  3.3365
12990TIP3   OH260460   3.084   1.586   0.037 -0.0172  1.0604  0.1945
12990TIP3    H160461   3.016   1.541  -0.013 -0.9833  3.1076 -0.4530
12990TIP3    H260462   3.105   1.663  -0.016  2.3595  0.8693  0.7098
12991TIP3   OH260463   1.017   0.997  11.332  0.1854  0.4186  0.4219
12991TIP3    H160464   1.047   1.073  11.381  1.3743 -0.5948  1.3326
12991TIP3    H260465   0.923   0.991  11.353  0.0933  1.5555  0.4023
12992TIP3   OH260466   1.832   2.910  15.100 -0.0401 -0.4189 -0.5298
12992TIP3    H160467   1.797   2.864  15.176  2.6357 -1.1587  0.3648
12992TIP3    H260468   1.872   2.842  15.047  1.3419  0.4957 -0.7089
12993TIP3   OH260469   0.233   2.278  39.446  0.5093 -0.6911 -0.1651
12993TIP3    H160470   0.171   2.301  39.377 -0.5583  1.7753  1.4478
12993TIP3    H260471   0.311   2.328  39.426  0.2726 -0.1358  0.2668
12994TIP3   OH260472   2.880   3.781  40.712  0.3293  0.2722 -0.3540
12994TIP3    H160473   2.917   3.756  40.797 -1.0881 -0.7798  0.0004
12994TIP3    H260474   2.865   3.875  40.719  0.9937  0.3433  0.2431
12995TIP3   OH260475   2.385   3.642   5.971  0.6481  0.2815 -0.1839
12995TIP3    H160476   2.454   3.671   6.030  0.6771 -0.8906  0.3788
12995TIP3    H260477   2.408   3.679   5.886  2.4288 -0.7762 -0.1947
12996TIP3   OH260478   1.996   0.367  30.203 -0.1600 -0.0336  0.0946
12996TIP3    H160479   1.964   0.412  30.281 -1.3395 -1.5209  0.5226
12996TIP3    H260480   1.917   0.345  30.154  0.4788 -0.3552 -0.8193
12997TIP3   OH260481   0.406   0.915  11.830  0.1736  0.9690  0.2086
12997TIP3    H160482   0.317   0.947  11.820 -0.2628 -0.1911  0.1465
12997TIP3    H260483   0.396   0.827  11.867  1.3954  1.6661  2.3267
12998TIP3   OH260484   1.959   3.701  31.212 -0.1487  0.2837  0.2120
12998TIP3    H160485   1.914   3.659  31.286  0.6232 -1.2637 -0.1458
12998TIP3    H260486   1.901   3.771  31.185  0.3787  2.1712  3.4556
12999TIP3   OH260487   3.419   3.145   4.705  0.3083  0.0812 -0.5001
12999TIP3    H160488   3.375   3.080   4.760 -0.8568  0.9429 -0.3959
12999TIP3    H260489   3.473   3.092   4.645  0.4862 -0.9203  0.5057
13000TIP3   OH260490   1.131   4.170   4.017  0.0095 -0.1495 -0.0631
13000TIP3    H160491   1.079   4.108   3.967  0.1121  1.4804 -2.3693
13000TIP3    H260492   1.067   4.232   4.053 -0.0776 -1.3763  2.0759
13001TIP3   OH260493   1.612   2.372  13.114  0.0165 -0.2673 -0.1871
13001TIP3    H160494   1.533   2.408  13.155 -1.3390  0.5301 -3.1979
13001TIP3    H260495   1.607   2.402  13.023  3.2826 -1.1020 -0.7559
13002TIP3   OH260496   1.576   2.263  33.604 -0.9476 -0.1783 -0.3580
13002TIP3    H160497   1.488   2.235  33.628  0.2826 -3.7828  0.6894
13002TIP3    H260498   1.609   2.194  33.547  1.0199  1.3512 -1.2119
13003TIP3   OH260499   1.775   1.391   9.147  0.5324 -0.5819 -0.3676
13003TIP3    H160500   1.702   1.350   9.100  0.3211 -3.0677  1.8479
13003TIP3    H260501   1.839   1.412   9.079 -1.5331  0.1318 -2.1943
13004TIP3   OH260502   2.354   2.808  35.235  1.2922  0.3316  0.5318
13004TIP3    H160503   2.361   2.784  35.143 -1.3580 -1.7370  0.7434
13004TIP3    H260504   2.292   2.880  35.237  1.1598  0.2145  0.7096
13005TIP3   OH260505   1.468   2.015  37.196 -0.5185 -0.5317  0.0015
13005TIP3    H160506   1.510   2.027  37.111 -0.4460  2.7322  0.3683
13005TIP3    H260507   1.541   1.997  37.256  0.0465  1.6889  0.0606
13006TIP3   OH260508   0.985   4.140  30.540 -0.5911  0.2548 -0.1845
13006TIP3    H160509   1.063   4.093  30.568 -0.9568 -0.1661  0.1455
13006TIP3    H260510   1.010   4.184  30.459 -0.4494 -1.0558 -0.8620
13007TIP3   OH260511   3.395   1.026  41.388  0.1572 -0.3984 -0.3297
13007TIP3    H160512   3.363   1.047  41.476  2.5123 -0.0337  0.5094
13007TIP3    H260513   3.390   1.109  41.341  1.4424  0.0884  0.3439
13008TIP3   OH260514   1.277   3.854  31.345 -0.3463  0.4029 -0.3676
13008TIP3    H160515   1.221   3.919  31.388 -3.0126 -1.3607 -0.9021
13008TIP3    H260516   1.249   3.855  31.254  1.7024  0.5505 -1.0460
13009TIP3   OH260517   0.100   1.315   8.378  0.1197 -0.5453  0.3027
13009TIP3    H160518   0.034   1.349   8.438 -0.1121  0.0567 -0.2805
13009TIP3    H260519   0.164   1.385   8.371  0.5576 -0.9243  0.4574
13010TIP3   OH260520   0.612   2.603  38.387  0.3048  0.1049  0.7407
13010TIP3    H160521   0.526   2.562  38.378  0.2629  0.1969  0.7304
13010TIP3    H260522   0.634   2.635  38.300  1.0710 -1.3602  0.3483
13011TIP3   OH260523   2.318   0.732  27.133 -0.1777  0.0105  0.0539
13011TIP3    H160524   2.407   0.698  27.129 -0.4989 -0.6958 -2.7534
13011TIP3    H260525   2.325   0.821  27.098 -0.2524  0.9258  2.1818
13012TIP3   OH260526   0.999   2.470   9.173  0.0965 -0.5654  0.4951
13012TIP3    H160527   0.922   2.469   9.230  0.2258  0.9875  0.7568
13012TIP3    H260528   1.025   2.379   9.166 -2.2837 -1.2583 -0.3191
13013TIP3   OH260529   0.262   3.757   1.590  0.3666  0.3113 -0.3585
13013TIP3    H160530   0.285   3.701   1.516 -1.2293  0.4553 -1.0175
13013TIP3    H260531   0.345   3.779   1.631  1.1520 -1.2563 -1.0226
13014TIP3   OH260532   2.011   0.925  15.319 -0.0837  0.3891  0.2265
13014TIP3    H160533   1.959   0.846  15.334  1.6159 -0.8070  0.1684
13014TIP3    H260534   1.984   0.985  15.388 -0.7818 -0.5801  0.8219
13015TIP3   OH260535   0.348   0.144  24.419 -0.3147  0.7116 -0.0757
13015TIP3    H160536   0.343   0.195  24.500  1.0630 -1.4432  1.4525
13015TIP3    H260537   0.429   0.175  24.377 -0.0883  0.6055  0.2752
13016TIP3   OH260538   3.786   1.536  38.518  0.4370  0.4416 -0.3187
13016TIP3    H160539   3.709   1.592  38.527  1.9892  2.6696 -0.1900
13016TIP3    H260540   3.756   1.463  38.463 -2.0813  0.5154  0.7906
13017TIP3   OH260541   3.701   3.832   3.971  0.1962 -0.1994  0.2584
13017TIP3    H160542   3.775   3.794   3.924  0.4662  0.2851  0.2925
13017TIP3    H260543   3.625   3.813   3.916  0.2241 -1.4191  0.6160
13018TIP3   OH260544   2.191   2.540  37.008  0.7150 -0.1144  0.0361
13018TIP3    H160545   2.186   2.509  37.099  3.3102  0.9867  0.6420
13018TIP3    H260546   2.258   2.485  36.968  0.9348  0.6391 -0.6518
13019TIP3   OH260547   1.784   4.320   3.061  0.4222 -0.0908  0.0706
13019TIP3    H160548   1.827   4.341   2.978 -0.8789  0.5139 -0.4687
13019TIP3    H260549   1.822   4.235   3.087  1.1912 -0.0500 -0.8792
13020TIP3   OH260550   2.387   1.113  32.110 -0.0139  0.4387 -0.5474
13020TIP3    H160551   2.305   1.119  32.062 -0.3098  0.3779 -0.0577
13020TIP3    H260552   2.365   1.141  32.199  0.0691 -1.3289  0.0725
13021TIP3   OH260553   0.520   2.926  40.903  0.2408 -0.1167  0.3705
13021TIP3    H160554   0.543   2.886  40.819  1.8871  0.1201  0.6868
13021TIP3    H260555   0.448   2.986  40.882 -0.0486 -0.8067 -0.6741
13022TIP3   OH260556   0.784   2.180  14.533  0.0673  0.2875  0.4444
13022TIP3    H160557   0.732   2.117  14.583 -0.3345 -0.5565 -0.9975
13022TIP3    H260558   0.819   2.240  14.599  0.4635 -1.4369  1.8481
13023TIP3   OH260559   0.152   2.202  36.456  0.1016  0.8693  0.1018
13023TIP3    H160560   0.162   2.275  36.395 -0.7286  1.6213  0.8441
13023TIP3    H260561   0.204   2.227  36.533  1.4001 -0.2101 -0.3715
13024TIP3   OH260562   0.469   4.200  34.779  0.1568 -0.2476 -0.6061
13024TIP3    H160563   0.399   4.230  34.721 -0.8531 -1.9563 -0.3471
13024TIP3    H260564   0.538   4.264  34.768 -0.5998  0.3198 -2.5483
13025TIP3   OH260565   2.954   1.752   3.381 -0.4798 -0.3312 -0.3402
13025TIP3    H160566   3.012   1.797   3.320 -0.2033 -0.4613 -0.1747
13025TIP3    H260567   3.008   1.735   3.458 -0.7194 -0.5094 -0.2090
13026TIP3   OH260568   3.632   2.021  26.338  0.0415 -0.3645 -1.0959
13026TIP3    H160569   3.654   2.058  26.252 -0.1301 -0.5708 -1.2278
13026TIP3    H260570   3.541   2.047  26.353  0.4066  0.6268 -0.4768
13027TIP3   OH260571   3.147   3.051   1.904  0.2052 -0.7567  0.2724
13027TIP3    H160572   3.175   3.135   1.939  1.2229 -2.0170  2.7178
13027TIP3    H260573   3.115   3.071   1.816  2.1476  1.8756  0.0441
13028TIP3   OH260574   0.180   1.767  31.569  0.8962  0.8336  0.3244
13028TIP3    H160575   0.100   1.819  31.560  1.1914  1.0641 -1.2096
13028TIP3    H260576   0.187   1.750  31.663 -1.4618 -0.0193  0.4225
13029TIP3   OH260577   0.998   0.400  31.123  0.0131  0.0544  0.1229
13029TIP3    H160578   1.080   0.368  31.085 -0.0350  1.1637 -0.9790
13029TIP3    H260579   1.024   0.475  31.176 -0.0062 -1.0979  1.8603
13030TIP3   OH260580   2.117   2.632   4.900  0.1850 -0.1504 -0.2917
13030TIP3    H160581   2.074   2.717   4.898  0.4860  0.0110 -2.2381
13030TIP3    H260582   2.126   2.608   4.808 -1.2050 -2.9723  0.2252
13031TIP3   OH260583   3.429   3.455  35.088  0.9851  0.5452  0.0725
13031TIP3    H160584   3.336   3.441  35.107  0.3379  0.0453 -2.9235
13031TIP3    H260585   3.473   3.446  35.173 -1.5333 -0.7277  1.3478
13032TIP3   OH260586   0.613   3.820   5.461  0.3082 -0.4202  0.3918
13032TIP3    H160587   0.574   3.889   5.407  2.2139 -0.1335 -0.7166
13032TIP3    H260588   0.596   3.740   5.413  1.4876 -0.2323 -0.3795
13033TIP3   OH260589   3.452   1.805   3.201 -0.5561 -0.5208 -0.6988
13033TIP3    H160590   3.406   1.886   3.176 -0.4390 -0.3397 -0.3400
13033TIP3    H260591   3.487   1.770   3.119 -0.5452 -0.1676 -0.8457
13034TIP3   OH260592   4.312   1.185  37.911 -0.5126  0.2849  0.5975
13034TIP3    H160593   4.370   1.258  37.888  0.4184 -0.1846  1.4092
13034TIP3    H260594   4.370   1.117  37.943 -1.3334 -0.9993 -0.5465
13035TIP3   OH260595   0.197   3.321   1.326  0.4613  0.4390 -0.3815
13035TIP3    H160596   0.166   3.245   1.278 -0.1439 -0.0914  0.7978
13035TIP3    H260597   0.123   3.381   1.328 -0.3298 -0.5038  1.7746
13036TIP3   OH260598   3.672   3.852  28.632 -0.0494  0.2259  0.5808
13036TIP3    H160599   3.651   3.944  28.616  0.9162  0.5904  1.3034
13036TIP3    H260600   3.587   3.811  28.651 -0.5432  0.8607 -0.1648
13037TIP3   OH260601   2.368   2.501  36.241 -0.8863 -0.8742 -0.4723
13037TIP3    H160602   2.337   2.420  36.282 -0.8055  0.0900  1.6058
13037TIP3    H260603   2.436   2.534  36.300 -0.5317  0.4415 -1.5605
13038TIP3   OH260604   1.121   3.278  36.223  0.4912 -0.2825 -0.0507
13038TIP3    H160605   1.092   3.188  36.238  2.7341 -0.9530  0.6146
13038TIP3    H260606   1.110   3.322  36.307  1.7655 -0.6675  0.3314
13039TIP3   OH260607   3.016   1.038  11.881 -0.2739  0.0462 -0.0082
13039TIP3    H160608   2.955   1.073  11.946 -1.1157  1.5920 -1.5535
13039TIP3    H260609   2.962   1.020  11.804  0.6256 -2.1725 -0.1945
13040TIP3   OH260610   4.253   2.727  38.335  0.0609 -0.3398 -0.3709
13040TIP3    H160611   4.252   2.814  38.296 -0.2980 -0.2464 -0.1579
13040TIP3    H260612   4.336   2.689  38.308  0.2000  0.0560 -0.4978
13041TIP3   OH260613   1.790   1.304  38.704  0.5202  0.0061 -0.0907
13041TIP3    H160614   1.763   1.313  38.612  0.0160 -0.1967  0.0350
13041TIP3    H260615   1.802   1.394  38.734  1.0928  0.0607 -0.4699
13042TIP3   OH260616   0.357   0.833  10.189 -0.0623 -0.2075 -0.0721
13042TIP3    H160617   0.301   0.845  10.265  0.7498  0.9007  0.3774
13042TIP3    H260618   0.302   0.787  10.125 -0.9154 -0.6850  0.9778
13043TIP3   OH260619   4.026   3.256   2.723 -0.0034  0.2355 -0.5004
13043TIP3    H160620   4.119   3.266   2.745  0.1756 -0.5888 -0.8557
13043TIP3    H260621   3.989   3.209   2.797  0.2629 -1.1064 -1.1984
13044TIP3   OH260622   1.703   0.449   9.495  1.1167  0.0718 -0.3643
13044TIP3    H160623   1.672   0.536   9.473  0.5346 -0.1191 -0.3007
13044TIP3    H260624   1.649   0.422   9.570  1.3584 -0.3038 -0.3216
13045TIP3   OH260625   3.793   0.387  13.332  0.4190  0.1605 -0.1857
13045TIP3    H160626   3.759   0.416  13.247 -2.9540  1.0920  1.3385
13045TIP3    H260627   3.808   0.293  13.321 -1.4947 -0.0489 -1.3815
13046TIP3   OH260628   0.156   0.482  35.404 -0.7244 -0.3398 -0.0686
13046TIP3    H160629   0.076   0.434  35.423  0.1535 -1.3347  1.2872
13046TIP3    H260630   0.223   0.414  35.395 -0.2220  0.3780 -2.4060
13047TIP3   OH260631   0.827   1.319  29.622  0.2473 -0.1210  0.2856
13047TIP3    H160632   0.747   1.364  29.650 -0.8285 -0.8470 -1.4489
13047TIP3    H260633   0.800   1.228  29.612  1.3702 -0.4210 -0.0816
13048TIP3   OH260634   2.507   2.598  38.616 -0.1832 -0.7497 -0.0835
13048TIP3    H160635   2.508   2.541  38.539 -0.4136  0.0278 -0.6892
13048TIP3    H260636   2.540   2.682  38.583 -0.1523 -0.4443  0.7054
13049TIP3   OH260637   1.505   0.981  36.423  0.2427 -0.2174  0.3644
13049TIP3    H160638   1.554   1.031  36.488  1.9418 -2.6762  1.1199
13049TIP3    H260639   1.555   0.994  36.342  0.0327  0.1789  0.2932
13050TIP3   OH260640   3.212   3.962  41.205  0.7047 -0.4077 -0.1045
13050TIP3    H160641   3.124   3.985  41.237  0.4214 -0.0117 -1.1433
13050TIP3    H260642   3.196   3.901  41.134  1.1655  0.9601 -1.4398
13051TIP3   OH260643   0.133   2.609  22.296  0.1229  0.1948 -0.1946
13051TIP3    H160644   0.170   2.698  22.295  1.7563 -0.4603 -0.2771
13051TIP3    H260645   0.170   2.567  22.219  0.7230 -1.0920  0.7635
13052TIP3   OH260646   3.460   1.488   0.921 -0.5482  0.1917 -0.1839
13052TIP3    H160647   3.526   1.551   0.891  0.1980 -0.5096 -0.0514
13052TIP3    H260648   3.388   1.496   0.858  0.2982 -0.0939 -1.2136
13053TIP3   OH260649   3.236   1.388  30.217 -0.1465  0.3543 -0.0843
13053TIP3    H160650   3.242   1.477  30.251  2.8619 -0.3213  1.5569
13053TIP3    H260651   3.307   1.382  30.153 -1.9015 -0.2034 -2.0873
13054TIP3   OH260652   3.981   2.727  22.462  0.2433 -0.3554  0.3951
13054TIP3    H160653   3.899   2.778  22.464  0.9284  0.7643  0.8048
13054TIP3    H260654   3.975   2.670  22.539 -0.6516 -1.1360 -0.2177
13055TIP3   OH260655   0.563   0.363  33.511 -0.0233 -1.1904  0.5371
13055TIP3    H160656   0.611   0.434  33.555  1.1427 -1.1226 -0.7449
13055TIP3    H260657   0.537   0.402  33.427 -3.7912 -0.7091  1.7528
13056TIP3   OH260658   2.931   2.318  31.099  0.2016  0.7627 -0.2092
13056TIP3    H160659   2.913   2.224  31.094  0.3342  0.4078  3.3455
13056TIP3    H260660   2.943   2.345  31.008  0.2439 -2.6602 -1.3621
13057TIP3   OH260661   0.681   3.218   9.383 -0.2312  0.0935 -0.7588
13057TIP3    H160662   0.592   3.190   9.403 -0.0064  1.8491  3.8916
13057TIP3    H260663   0.675   3.313   9.377  1.5518  0.5611  2.5856
13058TIP3   OH260664   3.098   0.859  35.532 -0.7911  0.0104  0.6186
13058TIP3    H160665   3.072   0.771  35.504 -2.1585  0.7058 -0.4109
13058TIP3    H260666   3.186   0.869  35.498  0.3995 -1.8228  2.8399
13059TIP3   OH260667   0.266   0.886   2.413 -0.3714  0.0228 -0.3366
13059TIP3    H160668   0.280   0.936   2.332 -2.1273 -0.2223 -0.8387
13059TIP3    H260669   0.227   0.804   2.384 -0.9887 -0.0869  0.7534
13060TIP3   OH260670   3.997   1.026   1.177  0.1043  0.3305  0.0158
13060TIP3    H160671   3.939   1.082   1.229 -1.2970  0.1142 -1.2229
13060TIP3    H260672   3.953   0.941   1.176  0.4352  0.1567 -0.9488
13061TIP3   OH260673   2.432   1.689   9.940 -0.0823 -0.4844 -0.0584
13061TIP3    H160674   2.460   1.780   9.947  1.5165 -0.8819 -0.7680
13061TIP3    H260675   2.454   1.650  10.025 -0.5750 -0.2755  0.1701
13062TIP3   OH260676   3.694   4.050  29.595 -0.3856  0.2614 -0.0011
13062TIP3    H160677   3.777   4.090  29.617 -0.2125  0.1565 -0.4634
13062TIP3    H260678   3.716   3.960  29.571 -0.5261  0.4840 -0.9792
13063TIP3   OH260679   2.477   3.076  38.981  0.5147 -0.1608 -0.2961
13063TIP3    H160680   2.501   3.019  38.908 -0.3506  0.0720 -0.7706
13063TIP3    H260681   2.387   3.103  38.963 -0.5111 -1.7784  1.9272
13064TIP3   OH260682   2.870   0.174  13.785  0.4057  0.3054  0.0703
13064TIP3    H160683   2.786   0.217  13.804  1.4262  1.1876  3.0798
13064TIP3    H260684   2.897   0.211  13.701 -1.6024  0.9599 -0.3479
13065TIP3   OH260685   4.080   3.725   9.297  0.3486 -0.1035  0.4974
13065TIP3    H160686   4.019   3.787   9.257  0.1823 -0.1578  0.6620
13065TIP3    H260687   4.139   3.699   9.226 -0.1694 -0.4813  0.1928
13066TIP3   OH260688   4.191   3.153  38.420  0.1539  0.2145 -0.5292
13066TIP3    H160689   4.161   3.076  38.468  1.2575  1.3551  2.2013
13066TIP3    H260690   4.283   3.134  38.401  0.2264  0.5401 -0.5018
13067TIP3   OH260691   3.527   2.097   7.824  0.6590  0.4392 -0.1927
13067TIP3    H160692   3.444   2.135   7.853  0.5294  0.0642 -0.0682
13067TIP3    H260693   3.548   2.032   7.890 -0.6145 -1.8172 -1.8787
13068TIP3   OH260694   3.788   1.848   8.277 -0.2247 -0.2514 -0.3166
13068TIP3    H160695   3.782   1.888   8.190 -0.4698 -1.4273 -0.8554
13068TIP3    H260696   3.804   1.922   8.336 -0.9737  0.6843 -1.2397
13069TIP3   OH260697   1.331   2.141  33.655 -0.1431  0.1837 -0.7002
13069TIP3    H160698   1.355   2.078  33.723 -3.5232 -1.0815 -0.4735
13069TIP3    H260699   1.283   2.090  33.590 -0.2559  2.0248 -2.1659
13070TIP3   OH260700   2.755   0.458  36.615  0.3993  0.0713 -0.2878
13070TIP3    H160701   2.698   0.383  36.631  2.8278 -2.0379 -0.8124
13070TIP3    H260702   2.696   0.533  36.615 -2.0923 -1.7242  0.8848
13071TIP3   OH260703   3.709   1.180  34.603  0.3321 -0.0725 -0.0183
13071TIP3    H160704   3.700   1.090  34.634  0.5999 -0.0209  0.2177
13071TIP3    H260705   3.801   1.188  34.579  0.7614  0.6639  1.6927
13072TIP3   OH260706   3.980   2.669  31.034 -0.2678  0.2327  0.1165
13072TIP3    H160707   4.031   2.714  30.966  0.4891 -0.8324 -0.0473
13072TIP3    H260708   4.023   2.693  31.116 -0.6235  0.7859  0.1459
13073TIP3   OH260709   4.337   3.236  27.771  0.0517  0.0341  0.3027
13073TIP3    H160710   4.269   3.302  27.753 -0.5601 -0.1015  1.9134
13073TIP3    H260711   4.355   3.197  27.686 -0.8869  1.0346 -0.3962
13074TIP3   OH260712   1.703   0.062  27.802 -0.2303  0.0703  0.0327
13074TIP3    H160713   1.642  -0.009  27.783  0.5592 -0.6806  0.2092
13074TIP3    H260714   1.782   0.039  27.754 -0.0459  0.9690 -0.1043
13075TIP3   OH260715   3.241   0.704   8.137 -0.1402  0.0167 -0.0147
13075TIP3    H160716   3.250   0.778   8.197 -2.6199 -0.8317  1.5656
13075TIP3    H260717   3.232   0.744   8.050 -1.3213  1.5872  0.7864
13076TIP3   OH260718   3.746   4.312  11.251  0.3647  0.0789 -0.3824
13076TIP3    H160719   3.815   4.359  11.297  0.0553 -1.4272  1.7806
13076TIP3    H260720   3.779   4.222  11.244 -1.0993 -0.5329  0.1685
13077TIP3   OH260721   3.261   3.799  31.926 -0.3896 -0.1460 -0.2865
13077TIP3    H160722   3.355   3.803  31.910 -0.4610 -1.4827 -1.1773
13077TIP3    H260723   3.225   3.868  31.870 -0.1544 -1.4353 -2.1227
13078TIP3   OH260724   0.189   0.798   9.741 -0.3746 -0.0812 -0.1987
13078TIP3    H160725   0.177   0.832   9.830  0.8799 -0.7415  0.2416
13078TIP3    H260726   0.282   0.809   9.723 -0.6159  0.0629 -1.4587
13079TIP3   OH260727   2.603   1.164  38.326  0.4940 -0.6921  0.4446
13079TIP3    H160728   2.527   1.142  38.380 -0.3621  0.4214 -0.2519
13079TIP3    H260729   2.570   1.164  38.237  1.7745 -2.0067 -0.0638
13080TIP3   OH260730   1.258   1.804  14.154  0.0668  0.3420  0.1579
13080TIP3    H160731   1.166   1.779  14.147  0.0306  0.7121 -1.0013
13080TIP3    H260732   1.301   1.727  14.191 -0.1135 -1.3695 -2.8427
13081TIP3   OH260733   1.939   0.907  10.029 -0.2941  0.3715 -0.1259
13081TIP3    H160734   1.903   0.821  10.053 -0.5721  1.1380  2.5342
13081TIP3    H260735   2.029   0.888  10.002 -0.7354 -0.8815 -0.7916
13082TIP3   OH260736   3.341   2.753  29.757 -0.1666  0.1220  0.3019
13082TIP3    H160737   3.300   2.723  29.838  1.8670 -0.5006  1.1566
13082TIP3    H260738   3.382   2.675  29.720  0.7738  0.8170 -0.1696
13083TIP3   OH260739   0.977   2.086  29.774  0.4148  0.7722 -0.7808
13083TIP3    H160740   0.899   2.136  29.797 -1.1646 -1.6667 -0.4254
13083TIP3    H260741   1.035   2.096  29.849 -1.1399 -0.2650  0.6340
13084TIP3   OH260742   0.598   2.637  13.983 -0.1107 -0.4012 -0.6477
13084TIP3    H160743   0.524   2.579  13.999 -0.9050  0.1934 -2.0274
13084TIP3    H260744   0.565   2.703  13.923  1.1866  0.6480 -0.2644
13085TIP3   OH260745   0.422   1.536  31.336 -0.1893 -0.0563 -0.5004
13085TIP3    H160746   0.342   1.522  31.385  1.0847 -1.4048  1.3276
13085TIP3    H260747   0.412   1.482  31.257 -1.2046  0.0885 -0.4749
13086TIP3   OH260748   0.770   3.373   4.518  0.1649  0.7841 -0.0267
13086TIP3    H160749   0.850   3.422   4.539  1.0408 -0.5294 -0.2244
13086TIP3    H260750   0.746   3.330   4.599  1.1313 -0.8653 -0.5761
13087TIP3   OH260751   3.547   2.971  33.022  0.4230  0.1780 -0.3582
13087TIP3    H160752   3.596   2.889  33.027  1.4300  0.7826 -0.0197
13087TIP3    H260753   3.540   3.001  33.113 -0.2059  0.3184 -0.4445
13088TIP3   OH260754   1.413   4.259   4.997  0.0489 -0.4074 -0.4064
13088TIP3    H160755   1.370   4.229   4.917  1.2607  1.5000 -1.8511
13088TIP3    H260756   1.461   4.183   5.028  0.6674 -0.8368 -2.2867
13089TIP3   OH260757   3.605   3.144   1.639 -0.5910 -0.3481 -0.0105
13089TIP3    H160758   3.532   3.170   1.694 -1.5032  0.4940 -1.5518
13089TIP3    H260759   3.588   3.051   1.619 -0.8568 -0.3497  0.2224
13090TIP3   OH260760   0.173   0.134  32.509 -0.1240 -0.3071  0.2913
13090TIP3    H160761   0.219   0.204  32.463 -0.7213 -1.2717 -1.9279
13090TIP3    H260762   0.110   0.179  32.565  2.4938  1.0002  2.4150
13091TIP3   OH260763   4.164   2.135  24.850  0.1655 -0.0709  0.0078
13091TIP3    H160764   4.193   2.089  24.772 -0.7494 -1.8985  0.6803
13091TIP3    H260765   4.231   2.116  24.916  0.4772  0.7127 -0.0758
13092TIP3   OH260766   2.394   0.178  39.564  0.0001 -0.6118  0.3925
13092TIP3    H160767   2.317   0.121  39.570 -0.0131 -0.7251 -0.7432
13092TIP3    H260768   2.448   0.152  39.639  0.8192 -3.4011 -1.0234
13093TIP3   OH260769   2.274   2.842   1.120  0.1031 -0.4606  0.4120
13093TIP3    H160770   2.248   2.749   1.122 -1.4566 -0.1245 -1.1787
13093TIP3    H260771   2.230   2.880   1.196 -2.8910 -0.2772 -1.2353
13094TIP3   OH260772   2.651   1.529  27.474  0.2283  0.3175 -0.5667
13094TIP3    H160773   2.580   1.561  27.529  0.0116  0.3969 -0.8879
13094TIP3    H260774   2.731   1.562  27.515  0.3776 -2.5095  1.7626
13095TIP3   OH260775   1.894   4.267  40.994  0.1100 -0.7265 -0.0841
13095TIP3    H160776   1.847   4.189  41.025  0.8620 -0.7452  1.0452
13095TIP3    H260777   1.902   4.253  40.900  1.4518 -2.7148  0.2689
13096TIP3   OH260778   3.329   4.156   8.524 -0.2290 -0.2838 -0.6817
13096TIP3    H160779   3.289   4.131   8.608  2.8099 -0.5229  0.8367
13096TIP3    H260780   3.328   4.075   8.472 -0.3632 -0.6734 -0.0829
13097TIP3   OH260781   3.663   4.278  11.693  0.1210 -0.0119  0.0743
13097TIP3    H160782   3.606   4.205  11.669  1.1831 -1.7392  2.3836
13097TIP3    H260783   3.619   4.318  11.769  0.9984 -0.1471  0.6668
13098TIP3   OH260784   0.528   3.971  32.297  0.5489  0.3014 -0.1704
13098TIP3    H160785   0.503   3.986  32.388  0.0358 -1.2346 -0.0165
13098TIP3    H260786   0.623   3.969  32.298  0.6166 -3.4359  1.1249
13099TIP3   OH260787   1.824   1.191  10.631 -0.4133  0.0674  0.8670
13099TIP3    H160788   1.892   1.246  10.592 -1.3276  1.5366  1.2834
13099TIP3    H260789   1.867   1.151  10.707  0.4412 -0.3204  0.2027
13100TIP3   OH260790   4.366   2.870   5.811 -0.4679  0.0351 -0.3015
13100TIP3    H160791   4.387   2.960   5.787  0.7310 -0.3805 -0.8844
13100TIP3    H260792   4.449   2.832   5.839 -1.2861 -0.3508  1.8353
13101TIP3   OH260793   2.034   1.586  28.447 -0.3320 -0.6300  0.2960
13101TIP3    H160794   1.991   1.586  28.362 -1.7075 -0.1737  0.9660
13101TIP3    H260795   1.968   1.619  28.508  0.3462 -1.7411  1.6903
13102TIP3   OH260796   0.409   0.740  13.204 -0.0593 -0.0765  0.0200
13102TIP3    H160797   0.323   0.782  13.207  0.2340  0.6419 -1.0756
13102TIP3    H260798   0.458   0.782  13.275 -0.7045 -0.7213  0.8576
13103TIP3   OH260799   4.060   1.268  30.590 -0.5958  0.0363 -0.3152
13103TIP3    H160800   4.049   1.184  30.545  1.9296  0.2355 -1.4874
13103TIP3    H260801   3.983   1.320  30.564 -1.6509 -1.5036 -0.4173
13104TIP3   OH260802   2.951   3.524  39.119 -0.2053 -0.2967  0.2372
13104TIP3    H160803   3.023   3.580  39.150 -1.3894  1.7848 -0.5416
13104TIP3    H260804   2.915   3.485  39.199 -0.3730  1.4270  1.0678
13105TIP3   OH260805   0.186   1.293  37.449 -0.0361 -0.3809 -0.3293
13105TIP3    H160806   0.115   1.230  37.461  0.9182 -1.1728  1.5779
13105TIP3    H260807   0.160   1.368  37.502  0.6176 -0.7382  0.5003
13106TIP3   OH260808   1.150   3.543  33.534 -0.3733 -0.5524  0.4050
13106TIP3    H160809   1.180   3.568  33.447 -1.3299 -0.7336  0.0074
13106TIP3    H260810   1.070   3.594  33.547 -0.5810 -1.0003  0.9154
13107TIP3   OH260811   0.857   2.301   2.568  0.2091  0.0092 -0.1990
13107TIP3    H160812   0.873   2.255   2.486  1.7817 -0.6404  0.4202
13107TIP3    H260813   0.910   2.253   2.632 -2.0120 -0.3344  1.4941
13108TIP3   OH260814   2.124   1.106  34.451 -0.4879  0.0521 -0.0037
13108TIP3    H160815   2.143   1.012  34.441 -2.2647 -0.3136 -0.1789
13108TIP3    H260816   2.203   1.149  34.417  1.4430 -1.3437  2.3668
13109TIP3   OH260817   3.754   0.055  41.200  0.3007 -0.1647 -0.1798
13109TIP3    H160818   3.683  -0.008  41.191  1.4157 -1.5273  0.1382
13109TIP3    H260819   3.806   0.022  41.273  2.1560 -0.1201 -1.4245
13110TIP3   OH260820   1.879   1.353   1.618 -0.5872  0.4148  0.1089
13110TIP3    H160821   1.917   1.339   1.531 -0.5151  0.2124  0.1710
13110TIP3    H260822   1.833   1.437   1.611 -0.8286  0.2597 -0.2088
13111TIP3   OH260823   1.569   0.843   2.040  0.1394 -0.4575  0.8485
13111TIP3    H160824   1.626   0.899   1.986 -0.8472 -0.5182 -0.3083
13111TIP3    H260825   1.538   0.901   2.110  1.3470 -0.3425  1.3144
13112TIP3   OH260826   0.044   2.446   4.158 -0.3277 -0.1625 -0.1900
13112TIP3    H160827   0.090   2.496   4.090 -0.5695 -1.2965 -1.2124
13112TIP3    H260828   0.100   2.369   4.173 -1.1280 -0.7767 -0.3381
13113TIP3   OH260829   1.859   0.686  33.988  1.0842  0.0747 -0.2572
13113TIP3    H160830   1.852   0.653  33.898  0.5347 -1.7683  0.4061
13113TIP3    H260831   1.867   0.781  33.979 -1.9938  0.2649 -2.1507
13114TIP3   OH260832   0.807   1.748  32.336 -0.1406  0.3132  0.0197
13114TIP3    H160833   0.892   1.737  32.294 -0.5235  0.7361 -0.8867
13114TIP3    H260834   0.814   1.698  32.418  0.9800  0.3645 -0.0287
13115TIP3   OH260835   0.373   1.250  35.530 -0.1785  0.0586 -0.1158
13115TIP3    H160836   0.345   1.239  35.439 -2.0727 -0.4234  0.4892
13115TIP3    H260837   0.292   1.262  35.579  0.8640  1.4715  1.3868
13116TIP3   OH260838   3.302   0.122   3.608 -0.7296 -0.1526 -0.0462
13116TIP3    H160839   3.362   0.056   3.643  0.8598  1.2849  0.0675
13116TIP3    H260840   3.278   0.089   3.521 -0.8639 -1.4017  0.4415
13117TIP3   OH260841   1.887   3.173   4.235  0.1719 -0.0007 -0.2491
13117TIP3    H160842   1.817   3.113   4.210 -0.1497  0.1305  0.3145
13117TIP3    H260843   1.899   3.158   4.328  0.9413 -0.0634 -0.3556
13118TIP3   OH260844   1.211   2.889  12.499  0.1090 -0.6998 -0.0404
13118TIP3    H160845   1.186   2.932  12.417  1.2822  1.9451  0.8567
13118TIP3    H260846   1.138   2.905  12.558  0.4724 -0.0329  0.2425
13119TIP3   OH260847   2.170   0.255  26.749  0.0883 -0.3075  0.1714
13119TIP3    H160848   2.130   0.319  26.690  2.1445  1.7926  0.9127
13119TIP3    H260849   2.131   0.273  26.834  0.6192 -0.0442  0.3674
13120TIP3   OH260850   0.147   4.154  35.501 -0.4662 -0.2835 -0.2488
13120TIP3    H160851   0.204   4.178  35.427  0.4536 -0.0162  0.5333
13120TIP3    H260852   0.121   4.064  35.482  0.2117 -0.4092 -0.6318
13121TIP3   OH260853   2.448   0.414  35.052 -0.1076  0.0240  0.6811
13121TIP3    H160854   2.469   0.433  34.960 -2.4129  0.1459  0.1144
13121TIP3    H260855   2.487   0.485  35.101 -1.8770  2.0102 -0.6183
13122TIP3   OH260856   1.424   2.548  40.637 -0.3540 -0.2495  0.0305
13122TIP3    H160857   1.335   2.514  40.648  0.5425 -2.4941  0.8801
13122TIP3    H260858   1.461   2.545  40.726  0.9670 -0.5577 -0.5180
13123TIP3   OH260859   2.944   3.884   2.694  0.0803  0.6088  0.8677
13123TIP3    H160860   2.920   3.806   2.744  1.2114 -0.2211  0.1486
13123TIP3    H260861   2.873   3.893   2.629 -0.4402  0.6302  1.4278
13124TIP3   OH260862   3.310   0.835  12.742  0.0418 -0.1805  0.0865
13124TIP3    H160863   3.245   0.863  12.678  1.2601 -0.1640 -1.1947
13124TIP3    H260864   3.343   0.752  12.707 -0.3918 -1.0084  1.5418
13125TIP3   OH260865   0.426   0.548   2.378  0.3104  0.1496  0.9872
13125TIP3    H160866   0.479   0.621   2.344  0.8942 -0.0241  1.5019
13125TIP3    H260867   0.366   0.590   2.440 -1.5265  0.6347 -0.9991
13126TIP3   OH260868   4.209   1.343  34.498  0.3831 -0.3515  0.2351
13126TIP3    H160869   4.251   1.267  34.537 -0.3200 -0.5481  0.6342
13126TIP3    H260870   4.191   1.402  34.572  0.5994  0.0423 -0.0191
13127TIP3   OH260871   2.636   3.538  31.741  0.2017  0.3873 -0.3287
13127TIP3    H160872   2.650   3.444  31.753 -2.4097 -0.0252  0.0672
13127TIP3    H260873   2.686   3.578  31.812  0.4376 -0.7788  0.1994
13128TIP3   OH260874   1.274   3.413   1.115 -0.7197 -0.1588 -0.4125
13128TIP3    H160875   1.209   3.346   1.095 -1.8133  1.2657 -1.8221
13128TIP3    H260876   1.226   3.495   1.116  0.7393  0.7474  0.4098
13129TIP3   OH260877   0.043   2.744  32.446 -0.3064  0.2067 -0.0585
13129TIP3    H160878   0.139   2.734  32.444 -0.4031 -1.2534  0.9436
13129TIP3    H260879   0.028   2.831  32.483  0.6276  1.0084 -1.4682
13130TIP3   OH260880   4.362   4.120  31.603  0.2030  0.2665 -0.0472
13130TIP3    H160881   4.301   4.185  31.567 -1.5861 -0.5791  1.3202
13130TIP3    H260882   4.445   4.139  31.559 -0.5107  2.7631 -0.5023
13131TIP3   OH260883   1.418   1.846   8.372  0.3388  0.2617  0.0332
13131TIP3    H160884   1.376   1.765   8.403 -2.4080  0.8040 -1.9209
13131TIP3    H260885   1.429   1.899   8.451 -0.6676 -0.8014  0.9311
13132TIP3   OH260886   2.072   0.665  35.080 -0.0173 -0.3305 -0.0562
13132TIP3    H160887   2.095   0.753  35.111  0.4225  0.4833 -2.4517
13132TIP3    H260888   2.076   0.672  34.985 -1.8098 -2.4864 -0.3580
13133TIP3   OH260889   1.573   3.606  14.018 -0.0191 -0.3230  0.1393
13133TIP3    H160890   1.642   3.631  14.079  0.5506 -2.2095  0.3228
13133TIP3    H260891   1.513   3.552  14.070  1.1536 -3.0739 -1.1426
13134TIP3   OH260892   0.646   1.814  11.831 -0.4832 -0.1205  0.6456
13134TIP3    H160893   0.698   1.799  11.909 -1.5444 -1.3385  1.1719
13134TIP3    H260894   0.555   1.815  11.862 -0.8257  1.4892 -0.2966
13135TIP3   OH260895   3.141   0.463   0.457 -0.6337  0.6510 -0.2454
13135TIP3    H160896   3.200   0.427   0.391  0.1480 -0.6038  1.0885
13135TIP3    H260897   3.174   0.552   0.472 -1.1663  1.1601 -1.9103
13136TIP3   OH260898   0.086   4.194   3.899  0.9929  0.1944  0.2358
13136TIP3    H160899   0.152   4.182   3.967  0.4328 -2.1112  0.4427
13136TIP3    H260900   0.125   4.153   3.821 -0.3269 -1.6190  0.4809
13137TIP3   OH260901   4.206   1.496  25.434  0.7551 -0.2514 -0.1024
13137TIP3    H160902   4.168   1.491  25.521  0.6584  0.4630 -0.1000
13137TIP3    H260903   4.262   1.418  25.427  1.4336  0.1352  0.9057
13138TIP3   OH260904   0.908   2.712   9.060 -0.6923  0.1091 -0.2928
13138TIP3    H160905   0.924   2.648   9.129 -0.4447  0.1233 -0.3355
13138TIP3    H260906   0.876   2.661   8.986 -0.3347  0.0160 -0.3814
13139TIP3   OH260907   4.353   1.295  12.175 -0.1714 -0.3393  0.3499
13139TIP3    H160908   4.279   1.285  12.115 -1.4143 -1.9697  2.0335
13139TIP3    H260909   4.431   1.289  12.119 -1.2709  0.7491 -1.3828
13140TIP3   OH260910   3.726   2.866  10.439  0.1602 -0.0220 -0.1676
13140TIP3    H160911   3.670   2.788  10.447 -1.7136  1.2394 -0.1998
13140TIP3    H260912   3.664   2.937  10.421  1.6805  1.6911  1.0582
13141TIP3   OH260913   2.666   1.644  38.188  0.1205 -0.0194  0.1931
13141TIP3    H160914   2.577   1.615  38.169  0.5663 -0.4911 -1.3214
13141TIP3    H260915   2.711   1.641  38.104  1.3366  1.0725  0.7695
13142TIP3   OH260916   2.046   2.078  36.111  0.0157 -0.5116 -0.5621
13142TIP3    H160917   2.013   2.084  36.022  0.4805  1.4486 -0.6494
13142TIP3    H260918   2.029   2.165  36.149 -0.2303 -1.3138  1.2854
13143TIP3   OH260919   2.244   1.110  11.889  0.1861  0.6857  0.3710
13143TIP3    H160920   2.193   1.053  11.831 -1.8856  1.3163  1.4801
13143TIP3    H260921   2.249   1.193  11.842 -2.0656  1.4081  1.2434
13144TIP3   OH260922   0.965   3.990  12.217 -0.0825 -0.0498 -1.1008
13144TIP3    H160923   1.051   3.993  12.175  0.4659 -0.1730 -0.0195
13144TIP3    H260924   0.957   3.900  12.249  0.4613  0.5835  0.9420
13145TIP3   OH260925   1.161   3.709   2.580  0.3301  0.2324 -0.4073
13145TIP3    H160926   1.211   3.636   2.542 -0.3523  0.3514 -1.5667
13145TIP3    H260927   1.192   3.714   2.670  0.6568 -1.2600 -0.4119
13146TIP3   OH260928   3.341   1.317  32.896 -0.0665  0.6990 -0.3179
13146TIP3    H160929   3.247   1.307  32.905  0.0149  0.9116  0.9501
13146TIP3    H260930   3.369   1.361  32.977  1.0177  1.3173 -1.0009
13147TIP3   OH260931   0.625   3.656  37.793  0.3183 -0.0003 -0.3846
13147TIP3    H160932   0.601   3.606  37.872  0.5060  0.4421 -0.0439
13147TIP3    H260933   0.690   3.719  37.824  1.0083 -0.3734 -1.0620
13148TIP3   OH260934   1.526   0.469  26.648 -0.2362  0.1556 -0.2754
13148TIP3    H160935   1.565   0.383  26.664 -0.8546  0.0411  0.7454
13148TIP3    H260936   1.499   0.467  26.556 -1.2085 -1.1632  0.0093
13149TIP3   OH260937   1.366   4.011   2.157  0.3991  0.7192  0.3489
13149TIP3    H160938   1.456   3.982   2.140  0.7015  0.6272  1.9870
13149TIP3    H260939   1.374   4.104   2.176  0.0531  0.8496 -0.1346
13150TIP3   OH260940   0.204   0.886  37.593  0.2107 -0.0722  0.0520
13150TIP3    H160941   0.211   0.964  37.649  0.9995  2.3529 -3.1787
13150TIP3    H260942   0.292   0.849  37.592  0.3122  0.1710  0.0037
13151TIP3   OH260943   4.066   3.340   3.655 -0.2200  0.4500 -0.5590
13151TIP3    H160944   4.116   3.302   3.727 -1.8891  1.6506  1.3509
13151TIP3    H260945   4.016   3.267   3.619  0.4079 -0.1087 -0.3235
13152TIP3   OH260946   3.240   2.685  29.032  0.1388  0.0020  0.1176
13152TIP3    H160947   3.331   2.685  29.060  0.4931  1.6928 -0.9130
13152TIP3    H260948   3.191   2.716  29.108  0.2167 -2.0447  1.0823
13153TIP3   OH260949   0.208   0.193  31.544  0.5654 -0.4149  0.1040
13153TIP3    H160950   0.282   0.253  31.540  0.5392 -0.4272 -0.7248
13153TIP3    H260951   0.246   0.108  31.561  0.7600 -0.4352 -0.4042
13154TIP3   OH260952   3.536   3.120   3.083 -0.0937 -0.6263  0.0752
13154TIP3    H160953   3.530   3.135   3.177 -2.0204 -2.7482  0.3811
13154TIP3    H260954   3.626   3.091   3.068  1.0328  2.2441  0.7733
13155TIP3   OH260955   3.456   1.511  32.672  0.7411 -0.5103  0.0552
13155TIP3    H160956   3.458   1.606  32.669  1.2497 -0.5345 -0.5781
13155TIP3    H260957   3.376   1.490  32.721  1.0898  0.2368  0.9736
13156TIP3   OH260958   0.263   3.487  32.534 -0.1654 -0.5545 -0.5266
13156TIP3    H160959   0.348   3.472  32.575 -1.0905 -0.3544  1.6147
13156TIP3    H260960   0.274   3.457  32.444  2.1964 -0.3982 -0.3641
13157TIP3   OH260961   0.808   0.509  26.722  0.1212  0.3922  0.2405
13157TIP3    H160962   0.762   0.530  26.641 -0.3763 -0.5381  0.2678
13157TIP3    H260963   0.851   0.425  26.704  3.8791  2.2635 -0.6254
13158TIP3   OH260964   0.120   0.958  37.117  0.1046  0.7834 -0.2847
13158TIP3    H160965   0.151   0.970  37.207 -0.9019 -1.3545  0.4215
13158TIP3    H260966   0.181   1.008  37.064  1.9997  0.4046  1.4160
13159TIP3   OH260967   1.499   2.140   9.937 -0.3845  0.0454 -0.0565
13159TIP3    H160968   1.564   2.086   9.893 -0.4590  0.2973 -0.4858
13159TIP3    H260969   1.512   2.123  10.030  2.2144  2.1443  0.1070
13160TIP3   OH260970   1.602   1.737  13.548  0.2197  0.6687  0.5740
13160TIP3    H160971   1.581   1.793  13.473  1.4770  0.4429  0.0131
13160TIP3    H260972   1.522   1.734  13.600 -0.5334  1.2201 -0.5191
13161TIP3   OH260973   2.418   0.441   7.639 -0.2565 -0.4449 -0.2110
13161TIP3    H160974   2.391   0.533   7.634 -0.1751 -0.3408  0.9926
13161TIP3    H260975   2.507   0.440   7.603  0.0295  0.0830  0.4734
13162TIP3   OH260976   2.075   3.698  37.157  0.4524  0.0526 -0.2401
13162TIP3    H160977   2.153   3.753  37.160 -0.5052  1.5559 -1.5756
13162TIP3    H260978   2.008   3.752  37.115 -0.7155 -1.9325 -1.0995
13163TIP3   OH260979   1.368   3.449   6.582 -0.0146  0.0358 -0.2975
13163TIP3    H160980   1.451   3.449   6.629  0.8664  0.4965 -1.8072
13163TIP3    H260981   1.342   3.541   6.578 -0.6307 -0.1048  0.1745
13164TIP3   OH260982   1.780   4.286  40.112  0.2002  0.6172 -0.1824
13164TIP3    H160983   1.851   4.347  40.092  0.9730 -0.2112 -0.0096
13164TIP3    H260984   1.711   4.341  40.149  0.6187  1.4792 -0.6564
13165TIP3   OH260985   3.288   1.142   6.583 -0.0269 -0.5550  0.0540
13165TIP3    H160986   3.228   1.101   6.645 -0.3800  0.4392  0.3884
13165TIP3    H260987   3.231   1.179   6.515  0.2071  0.3269  0.3337
13166TIP3   OH260988   0.788   0.539  28.636  0.0257 -0.3375 -0.4989
13166TIP3    H160989   0.849   0.470  28.663  0.7661 -1.0063 -3.4857
13166TIP3    H260990   0.703   0.495  28.631 -0.1984 -0.1205  0.8453
13167TIP3   OH260991   3.247   4.189  31.994 -0.1272  0.3285  0.0661
13167TIP3    H160992   3.253   4.175  32.089  0.1031 -0.4056 -0.0525
13167TIP3    H260993   3.309   4.259  31.976 -0.3473  0.6361  0.4928
13168TIP3   OH260994   0.982   0.989   7.657  0.0688  0.7299 -0.3548
13168TIP3    H160995   0.897   1.028   7.675 -1.0069 -1.1196 -1.1709
13168TIP3    H260996   0.988   0.989   7.561  0.2990 -0.5149 -0.3542
13169TIP3   OH260997   0.604   1.517  21.612 -0.0952  0.8089 -0.2963
13169TIP3    H160998   0.625   1.424  21.610 -0.3146  0.7693 -2.2624
13169TIP3    H260999   0.622   1.548  21.523 -1.9001  2.2065 -0.2382
13170TIP3   OH261000   0.615   2.337  10.506  0.1971 -0.0645 -0.1131
13170TIP3    H161001   0.654   2.415  10.465  0.5248  0.1946  0.6675
13170TIP3    H261002   0.689   2.278  10.520  0.1352 -0.0474  0.3210
13171TIP3   OH261003   0.304   0.189   0.848  0.0611 -0.2279  0.2181
13171TIP3    H161004   0.233   0.132   0.820  0.6548  0.5225 -3.3336
13171TIP3    H261005   0.379   0.130   0.861 -0.3786 -0.6764  0.7235
13172TIP3   OH261006   0.461   2.245   9.975  0.0078 -0.3023  0.3818
13172TIP3    H161007   0.397   2.175   9.968  0.0264 -0.1592 -2.1324
13172TIP3    H261008   0.416   2.322   9.940  0.3344  0.7630  2.1436
13173TIP3   OH261009   2.890   1.687  10.226  0.3075 -0.2493  0.5367
13173TIP3    H161010   2.942   1.658  10.151  0.7873  2.2427 -0.1776
13173TIP3    H261011   2.901   1.618  10.291  1.0036 -1.8163 -1.1724
13174TIP3   OH261012   0.280   1.553  26.103 -0.3046 -0.5736 -0.0071
13174TIP3    H161013   0.221   1.490  26.145 -1.0960 -0.9033 -1.5599
13174TIP3    H261014   0.292   1.621  26.170 -0.4074 -1.7424  1.2579
13175TIP3   OH261015   1.545   3.744   9.205  0.0300 -0.2506 -0.3201
13175TIP3    H161016   1.533   3.649   9.201  1.3859 -0.6042  1.9819
13175TIP3    H261017   1.469   3.776   9.254 -0.7011 -0.0373 -1.5516
13176TIP3   OH261018   3.909   0.712   6.150  0.7514 -0.1510  0.0579
13176TIP3    H161019   3.975   0.754   6.094 -0.4435  1.0813 -0.4815
13176TIP3    H261020   3.833   0.770   6.145  0.2508 -0.5574  2.1618
13177TIP3   OH261021   2.164   1.972  27.229 -0.1534 -0.0173 -0.8455
13177TIP3    H161022   2.177   1.971  27.134 -2.6427  1.1363 -1.2691
13177TIP3    H261023   2.104   1.900  27.246  0.4093 -0.3207 -0.0900
13178TIP3   OH261024   3.276   0.189  39.777  0.0340 -0.5086  0.3511
13178TIP3    H161025   3.235   0.103  39.791 -0.0498 -0.2119  2.1930
13178TIP3    H261026   3.250   0.241  39.853  1.9849  0.4051  0.4697
13179TIP3   OH261027   3.335   2.286   7.787 -0.1425 -0.3079 -0.4270
13179TIP3    H161028   3.295   2.331   7.713 -0.1234 -0.1307 -0.3284
13179TIP3    H261029   3.368   2.356   7.843 -0.0966 -0.4439 -0.2847
13180TIP3   OH261030   1.568   0.012  31.115 -0.0975  0.4769  0.4665
13180TIP3    H161031   1.480   0.048  31.128 -0.5745 -0.3896 -0.3154
13180TIP3    H261032   1.554  -0.071  31.071  1.1391  0.5112 -0.0250
13181TIP3   OH261033   1.223   0.315  35.124  0.2050  0.2715  0.2745
13181TIP3    H161034   1.315   0.310  35.101  0.1234 -0.9745  0.1502
13181TIP3    H261035   1.203   0.230  35.162 -1.3482 -0.2039 -1.4704
13182TIP3   OH261036   1.744   3.809   2.942 -0.3257  0.6570 -0.1854
13182TIP3    H161037   1.737   3.898   2.906  1.2015  0.3154 -1.4070
13182TIP3    H261038   1.683   3.809   3.017 -1.2830  2.3347 -0.9031
13183TIP3   OH261039   4.191   1.123   9.651 -0.2383  0.0692 -0.0361
13183TIP3    H161040   4.249   1.173   9.594  0.1191 -1.9544 -1.5702
13183TIP3    H261041   4.188   1.173   9.732  3.1466  0.5992 -0.1042
13184TIP3   OH261042   0.535   1.542  40.091  0.3367 -0.5617  0.5588
13184TIP3    H161043   0.630   1.559  40.095  0.3198 -0.4289  0.4191
13184TIP3    H261044   0.512   1.560  39.999 -0.3541  2.2352  1.1751
13185TIP3   OH261045   2.882   0.942   2.570 -0.1008 -0.0360  0.3343
13185TIP3    H161046   2.815   1.001   2.604 -0.1049 -0.2110  0.6295
13185TIP3    H261047   2.851   0.919   2.483 -0.9232 -0.8922  0.8319
13186TIP3   OH261048   1.270   0.873  38.017  0.7686 -0.3050 -0.2501
13186TIP3    H161049   1.201   0.886  37.952 -0.4049  0.4431  1.1030
13186TIP3    H261050   1.292   0.961  38.047  0.8724 -0.6795  0.7979
13187TIP3   OH261051   0.001   4.189  33.133 -0.7729  0.3171 -0.4993
13187TIP3    H161052  -0.039   4.176  33.219 -3.9148  1.3036 -1.6574
13187TIP3    H261053  -0.036   4.119  33.078  0.0062  0.5910 -1.4055
13188TIP3   OH261054   2.575   0.166  38.600 -0.4017 -0.1080  0.0805
13188TIP3    H161055   2.557   0.198  38.688  0.0238 -1.4215  0.6549
13188TIP3    H261056   2.511   0.097  38.585 -0.5910  0.2217 -0.7265
13189TIP3   OH261057   1.647   2.165  27.426 -0.1612 -0.5498  0.0770
13189TIP3    H161058   1.741   2.184  27.426 -0.2621  0.0494  1.2794
13189TIP3    H261059   1.605   2.251  27.416 -0.6130 -0.9720 -2.3299
13190TIP3   OH261060   1.592   3.114   5.901  0.1614 -0.1595 -0.2497
13190TIP3    H161061   1.631   3.183   5.848 -1.9374  0.5537 -0.9942
13190TIP3    H261062   1.576   3.043   5.839 -3.1344  1.0098 -0.9927
13191TIP3   OH261063   2.712   0.031  28.889  0.4251 -0.4347  0.1256
13191TIP3    H161064   2.742  -0.052  28.927  1.5700 -1.0721 -2.0125
13191TIP3    H261065   2.714   0.016  28.795 -0.8792  1.5402 -0.2676
13192TIP3   OH261066   3.500   3.772   0.987 -0.3125 -0.5753  0.1406
13192TIP3    H161067   3.513   3.731   1.072  0.5465  0.2259  0.4083
13192TIP3    H261068   3.552   3.720   0.927 -0.5570 -0.8699  0.1826
13193TIP3   OH261069   2.831   4.012   3.537 -0.7496  0.1025 -0.0898
13193TIP3    H161070   2.842   4.085   3.598  0.6732  0.0834 -0.2922
13193TIP3    H261071   2.869   4.044   3.455 -0.7130 -0.6342 -0.3670
13194TIP3   OH261072   3.271   0.270  27.327  0.1486  0.0880 -0.3213
13194TIP3    H161073   3.311   0.191  27.365  0.8300  0.7462  0.3728
13194TIP3    H261074   3.192   0.283  27.379  0.3796  0.2274  0.0004
13195TIP3   OH261075   3.748   2.137  41.387  0.0728  0.4443  0.2447
13195TIP3    H161076   3.739   2.213  41.445 -2.3895  0.5480 -0.1700
13195TIP3    H261077   3.814   2.163  41.323  0.1462  1.7472  0.8155
13196TIP3   OH261078   1.314   0.741  16.401 -0.5622 -0.1529  0.1254
13196TIP3    H161079   1.256   0.809  16.433 -1.7096 -2.0208  2.3135
13196TIP3    H261080   1.351   0.701  16.480  1.2178 -1.1245 -1.1114
13197TIP3   OH261081   3.632   1.553  35.504  0.2140  0.7502  0.2988
13197TIP3    H161082   3.587   1.629  35.542  0.9023  0.3040  2.0966
13197TIP3    H261083   3.725   1.575  35.508  0.3935 -0.0153  0.4185
13198TIP3   OH261084   0.288   4.119  38.105 -0.2497  0.2240  0.0042
13198TIP3    H161085   0.295   4.030  38.071 -0.6576  0.7079 -1.4408
13198TIP3    H261086   0.332   4.116  38.189 -0.7932 -1.4891  0.2753
13199TIP3   OH261087   1.587   3.106   3.728  0.2930 -0.3800  0.0773
13199TIP3    H161088   1.668   3.075   3.769 -0.5869 -0.9437  1.4207
13199TIP3    H261089   1.564   3.037   3.666  0.1010 -0.8581  0.6833
13200TIP3   OH261090   0.661   2.392  33.372  0.4367 -0.1910 -0.2630
13200TIP3    H161091   0.702   2.437  33.298 -0.9161 -0.0027 -0.9213
13200TIP3    H261092   0.706   2.427  33.449  0.6670  0.9181 -0.8809
13201TIP3   OH261093   1.974   1.322   1.370  0.5617  0.1956 -0.0983
13201TIP3    H161094   1.974   1.239   1.324 -0.6544  0.3717 -0.4546
13201TIP3    H261095   2.001   1.386   1.304 -1.6057  0.5122 -0.7682
13202TIP3   OH261096   0.299   0.881  38.589  0.4041  0.3469  0.7906
13202TIP3    H161097   0.332   0.856  38.503 -1.3873 -1.2088  0.5052
13202TIP3    H261098   0.329   0.811  38.647  0.9268  0.9779  1.2968
13203TIP3   OH261099   2.002   2.617   0.188 -0.3905 -0.1848 -0.7790
13203TIP3    H161100   2.085   2.609   0.141 -0.9485 -2.3696 -1.4932
13203TIP3    H261101   2.028   2.634   0.278  0.7745  0.6826 -1.2373
13204TIP3   OH261102   2.468   0.358  18.860  0.1085 -0.4555  0.1305
13204TIP3    H161103   2.391   0.319  18.820  1.1986 -1.1693 -1.3317
13204TIP3    H261104   2.496   0.294  18.926 -0.0972 -0.5396  0.1367
13205TIP3   OH261105   2.182   2.304   3.619  0.3295  0.3455  0.1141
13205TIP3    H161106   2.265   2.346   3.596  0.5290  0.2984  0.7550
13205TIP3    H261107   2.206   2.233   3.678  0.1034 -1.3226 -1.6896
13206TIP3   OH261108   0.880   2.404  34.387 -0.0683  0.0504 -0.0793
13206TIP3    H161109   0.960   2.375  34.343 -0.8977  0.9397 -2.3004
13206TIP3    H261110   0.898   2.494  34.413  0.1321 -0.2120  0.7206
13207TIP3   OH261111   0.685   3.121   9.136 -0.0397  0.5082 -0.7461
13207TIP3    H161112   0.779   3.107   9.150 -0.5491 -0.6383  2.3325
13207TIP3    H261113   0.657   3.175   9.210 -2.0416 -0.3401 -0.8237
13208TIP3   OH261114   3.053   0.736  30.133 -0.0717  0.6727 -0.3560
13208TIP3    H161115   3.089   0.758  30.219  0.3242 -0.9978 -0.0669
13208TIP3    H261116   3.077   0.811  30.078  0.5909  1.2914  0.7201
13209TIP3   OH261117   0.536   1.793  31.715 -0.0919 -0.1998 -0.2070
13209TIP3    H161118   0.548   1.699  31.723  0.9060 -0.1191 -0.6616
13209TIP3    H261119   0.526   1.808  31.621  0.7976  0.2581 -0.2371
13210TIP3   OH261120   2.330   2.244  28.234 -0.5871 -0.3081  0.8144
13210TIP3    H161121   2.349   2.336  28.219 -0.2708 -0.4061  0.5946
13210TIP3    H261122   2.235   2.240  28.246 -0.4422  0.2315  2.2534
13211TIP3   OH261123   3.759   0.930   2.113  0.1780 -0.0448 -0.4099
13211TIP3    H161124   3.852   0.918   2.134  0.3160  1.0712 -0.3487
13211TIP3    H261125   3.715   0.858   2.158  0.7878  0.6419  1.3597
13212TIP3   OH261126   0.876   4.334  11.431 -0.3523  0.1877 -0.2118
13212TIP3    H161127   0.816   4.294  11.495 -1.2354  1.5876 -0.1122
13212TIP3    H261128   0.963   4.320  11.468 -0.7751  0.0636  0.7912
13213TIP3   OH261129   1.458   2.175  14.344 -0.1422  0.4241 -0.0360
13213TIP3    H161130   1.470   2.219  14.260  2.3355 -0.0470 -0.0252
13213TIP3    H261131   1.481   2.241  14.409  1.0686 -0.0661  0.0808
13214TIP3   OH261132   3.445   3.610   7.009 -0.5948  0.0858  0.3550
13214TIP3    H161133   3.485   3.671   6.947 -2.7349  0.8315 -0.3697
13214TIP3    H261134   3.393   3.551   6.954 -0.6733 -0.7059  1.2642
13215TIP3   OH261135   1.611   1.724  38.030 -0.6015  0.3086 -0.0076
13215TIP3    H161136   1.577   1.669  37.959 -1.4416  0.9922 -0.1552
13215TIP3    H261137   1.672   1.784  37.987  0.3187 -0.4774  0.1531
13216TIP3   OH261138   1.166   4.029  15.336  0.7456 -0.6151  0.6988
13216TIP3    H161139   1.123   3.982  15.407 -0.5019 -0.4073  0.1083
13216TIP3    H261140   1.168   3.967  15.263 -1.3407  0.3375 -0.2361
13217TIP3   OH261141   1.861   0.047  14.156  0.8014 -0.2153 -0.2926
13217TIP3    H161142   1.826   0.029  14.243  0.3230  0.4830 -0.3350
13217TIP3    H261143   1.926  -0.022  14.142 -0.6781 -1.6743 -0.2910
13218TIP3   OH261144   2.001   3.736  14.604 -0.2312  0.5836 -0.7018
13218TIP3    H161145   1.944   3.734  14.527 -0.0464  0.2146 -0.8284
13218TIP3    H261146   1.966   3.668  14.662 -0.9370  1.4731 -0.0486
13219TIP3   OH261147   0.265   1.885   2.501  0.5960 -0.0805  0.6254
13219TIP3    H161148   0.217   1.948   2.446  0.5433 -0.0385  0.7193
13219TIP3    H261149   0.351   1.926   2.514  1.8229 -1.5026 -2.0899
13220TIP3   OH261150   3.369   3.158   9.851 -0.2363  0.2373  0.0738
13220TIP3    H161151   3.385   3.067   9.827 -0.1421  0.1868  0.3279
13220TIP3    H261152   3.455   3.194   9.872 -0.1934  0.5608 -0.6178
13221TIP3   OH261153   1.889   1.490   4.483 -0.2246  0.3874  0.3967
13221TIP3    H161154   1.824   1.544   4.439  1.0717  2.1323  0.4844
13221TIP3    H261155   1.924   1.546   4.552  3.0922  0.5567 -1.1763
13222TIP3   OH261156   2.306   4.091  34.930  0.1690 -0.0404 -0.3399
13222TIP3    H161157   2.376   4.032  34.958  0.7232 -0.5137 -2.5271
13222TIP3    H261158   2.270   4.126  35.011  0.0367 -3.1091  1.0448
13223TIP3   OH261159   1.557   3.410  12.367 -0.5469  0.3884 -0.2950
13223TIP3    H161160   1.544   3.457  12.449 -1.9715  2.6172 -1.6843
13223TIP3    H261161   1.646   3.374  12.374 -0.4009  1.0419  1.9354
13224TIP3   OH261162   0.277   3.178  32.107 -0.0684 -0.2230  0.0806
13224TIP3    H161163   0.196   3.226  32.124 -0.4149 -0.8684  0.3249
13224TIP3    H261164   0.314   3.219  32.030 -0.9473 -0.3056 -0.3979
13225TIP3   OH261165   0.141   0.735   0.131  0.1140  0.4528  0.2167
13225TIP3    H161166   0.077   0.803   0.152  0.6368  1.6123 -1.7750
13225TIP3    H261167   0.173   0.706   0.217 -1.8679  0.9661  1.2091
13226TIP3   OH261168   2.324   1.010  13.820 -0.3576  0.0544  0.3254
13226TIP3    H161169   2.396   1.072  13.827 -0.7604  0.5652  0.0105
13226TIP3    H261170   2.248   1.056  13.857 -0.4843 -0.5516  0.8536
13227TIP3   OH261171   1.101   3.979   9.937 -0.6870  0.6385  0.5415
13227TIP3    H161172   1.158   3.933   9.998 -0.0188 -1.6146 -1.5827
13227TIP3    H261173   1.157   4.044   9.895 -0.5599  0.6931  0.8007
13228TIP3   OH261174   1.725   2.538   3.326  0.0720  0.1102  0.0669
13228TIP3    H161175   1.738   2.483   3.249  3.1275  0.9466 -0.1285
13228TIP3    H261176   1.813   2.563   3.353 -0.9170  0.5085  3.3837
13229TIP3   OH261177   2.942   3.158  40.941 -0.0726  0.2855  0.0046
13229TIP3    H161178   2.858   3.126  40.910 -0.2429  0.0726  0.6622
13229TIP3    H261179   2.964   3.230  40.882  0.2591 -0.9486 -1.4201
13230TIP3   OH261180   3.574   2.584  28.919  0.4031 -0.3326  0.0846
13230TIP3    H161181   3.660   2.595  28.959  0.2225 -0.3331  0.4830
13230TIP3    H261182   3.539   2.673  28.912  0.8682 -0.2284 -1.0703
13231TIP3   OH261183   2.376   1.472  31.394  0.0562  0.2408  0.2778
13231TIP3    H161184   2.388   1.446  31.303  0.1430  0.0864  0.3309
13231TIP3    H261185   2.414   1.399  31.444 -2.5663 -1.0717  0.4994
13232TIP3   OH261186   1.756   2.857  34.608  0.5357 -0.3572  0.4029
13232TIP3    H161187   1.824   2.920  34.636  0.1109 -0.1015  0.8624
13232TIP3    H261188   1.702   2.907  34.547  1.7265 -1.0373 -1.3128
13233TIP3   OH261189   0.113   4.218  36.026  0.8007 -0.1376  0.4650
13233TIP3    H161190   0.113   4.295  35.968  0.6703  0.5774  1.3832
13233TIP3    H261191   0.138   4.253  36.112 -0.7918 -0.8385  1.2511
13234TIP3   OH261192   4.350   0.157  34.828  0.4268  0.1453 -0.1230
13234TIP3    H161193   4.270   0.187  34.785  0.7410 -0.6131 -1.2785
13234TIP3    H261194   4.320   0.124  34.914 -0.4089  0.3841 -0.3125
13235TIP3   OH261195   3.534   0.499  35.092 -0.2372  1.0267 -0.0631
13235TIP3    H161196   3.457   0.443  35.090 -0.0376  0.7233 -2.2335
13235TIP3    H261197   3.523   0.558  35.017  2.3338 -0.1122 -1.5089
13236TIP3   OH261198   4.380   0.227  22.946  0.1164 -0.2359 -0.0988
13236TIP3    H161199   4.323   0.155  22.972 -1.9937  1.3434 -0.0806
13236TIP3    H261200   4.322   0.303  22.939  2.2995  1.6230  0.4071
13237TIP3   OH261201   0.920   2.017  36.928  0.1460 -0.1402  0.3718
13237TIP3    H161202   0.858   2.034  36.857  0.7799  1.7357  0.2125
13237TIP3    H261203   1.006   2.031  36.888  0.5171  0.6416  1.4121
13238TIP3   OH261204   2.803   3.490  40.931 -0.2898  0.5792 -0.2648
13238TIP3    H161205   2.727   3.464  40.983  0.1278 -1.2915 -0.5347
13238TIP3    H261206   2.839   3.565  40.978 -0.9525  0.0536  1.1544
13239TIP3   OH261207   3.457   1.271   4.933  0.1063 -0.2707  0.1817
13239TIP3    H161208   3.380   1.276   4.990  0.6385  1.5064  0.7925
13239TIP3    H261209   3.484   1.362   4.921  1.4435 -0.7919 -0.9637
13240TIP3   OH261210   4.112   1.285  34.093 -0.4186 -0.3994 -0.2028
13240TIP3    H161211   4.127   1.230  34.169  3.2934 -0.0942 -0.5532
13240TIP3    H261212   4.092   1.371  34.129 -0.4185 -0.6442  0.3936
13241TIP3   OH261213   3.938   4.338   8.458  0.3402 -0.3332 -0.1290
13241TIP3    H161214   3.924   4.275   8.387 -3.2281  2.0480 -1.8825
13241TIP3    H261215   3.965   4.419   8.413 -1.4597  1.0840  1.1919
13242TIP3   OH261216   1.156   3.172   1.271 -0.7097  0.0558  0.5037
13242TIP3    H161217   1.107   3.220   1.204  1.7805 -0.8418 -2.1851
13242TIP3    H261218   1.111   3.088   1.277 -0.5166 -0.1473 -0.6625
13243TIP3   OH261219   1.608   1.757  32.820  0.0358  0.3462  0.3897
13243TIP3    H161220   1.700   1.738  32.802 -0.0100  0.1806  0.3254
13243TIP3    H261221   1.569   1.672  32.840 -0.1900  0.3565  0.0184
13244TIP3   OH261222   2.099   4.203  38.378  0.5089 -0.6414  1.0701
13244TIP3    H161223   2.065   4.132  38.432 -0.3727 -2.5344 -1.7312
13244TIP3    H261224   2.034   4.215  38.309  1.4395  1.8000  0.4912
13245TIP3   OH261225   1.134   3.377  41.533 -0.0801  0.1215 -0.5817
13245TIP3    H161226   1.046   3.340  41.543  0.2965 -0.2868  1.4812
13245TIP3    H261227   1.190   3.322  41.588  1.0216  1.8990  0.1405
13246TIP3   OH261228   3.457   2.238  29.837 -0.4620 -0.1860 -0.6676
13246TIP3    H161229   3.534   2.219  29.890 -1.2309 -1.5964 -0.0003
13246TIP3    H261230   3.482   2.212  29.748  0.0741  0.0540 -0.5884
13247TIP3   OH261231   2.749   0.366  39.274  0.2061 -0.5475  0.0118
13247TIP3    H161232   2.806   0.347  39.199  0.5371 -1.3572  0.4533
13247TIP3    H261233   2.721   0.280  39.305 -0.7084 -0.1806  0.2288
13248TIP3   OH261234   3.122   2.246  37.637 -0.3750 -0.0330  0.1933
13248TIP3    H161235   3.182   2.311  37.673 -1.0034  0.7174 -0.0865
13248TIP3    H261236   3.124   2.174  37.700 -0.5647  0.7577  1.1225
13249TIP3   OH261237   4.299   3.603   6.893 -0.9909 -0.1224  0.1557
13249TIP3    H161238   4.328   3.671   6.953 -0.4833  0.2990 -0.5500
13249TIP3    H261239   4.323   3.521   6.936 -1.5974  0.1348  1.0055
13250TIP3   OH261240   0.136   4.095  11.937  0.2535  0.8055  0.7125
13250TIP3    H161241   0.097   4.132  12.016 -1.8237 -0.5544  0.4094
13250TIP3    H261242   0.081   4.128  11.866  1.6432  1.4071 -0.1096
13251TIP3   OH261243   1.785   2.377  35.162  0.2739 -0.3552 -0.0757
13251TIP3    H161244   1.848   2.439  35.126  0.7316 -0.3319  0.7431
13251TIP3    H261245   1.785   2.395  35.256 -0.9607 -0.3444 -0.0585
13252TIP3   OH261246   4.383   0.911  40.084  0.3805  0.4454  0.1507
13252TIP3    H161247   4.422   0.925  40.170 -0.7156 -0.4104  0.8170
13252TIP3    H261248   4.456   0.920  40.022  1.8256 -1.8463  1.3814
13253TIP3   OH261249   0.501   4.077  11.710 -0.4514 -0.2990 -0.2216
13253TIP3    H161250   0.467   4.154  11.756 -1.7559 -1.1162  0.2376
13253TIP3    H261251   0.504   4.008  11.777  2.2117 -0.3089 -0.2128
13254TIP3   OH261252   3.045   2.935   9.584 -0.3572 -0.1147 -0.3725
13254TIP3    H161253   3.054   2.881   9.662 -0.2652  0.0192 -0.2909
13254TIP3    H261254   2.999   2.879   9.521 -1.2362  0.0955  0.0786
13255TIP3   OH261255   2.696   0.116   6.339  0.3768  0.5457 -0.1020
13255TIP3    H161256   2.766   0.059   6.372 -2.3261 -2.9194  0.2210
13255TIP3    H261257   2.669   0.167   6.415  0.8510  0.0074  0.4440
13256TIP3   OH261258   3.388   2.661  35.168 -0.2966  0.7566 -0.1515
13256TIP3    H161259   3.383   2.734  35.107  0.7385  1.3156  0.4074
13256TIP3    H261260   3.475   2.668  35.208 -1.3131  1.0942  2.2093
13257TIP3   OH261261   0.265   0.502   2.026 -0.0757 -0.0828  0.5376
13257TIP3    H161262   0.295   0.582   2.071  0.0646  0.3777 -0.3420
13257TIP3    H261263   0.170   0.503   2.037 -0.1586  0.6507 -0.1605
13258TIP3   OH261264   2.812   0.265  38.453  0.2631 -0.0193  0.3918
13258TIP3    H161265   2.767   0.229  38.377 -1.2863  2.0856  0.1955
13258TIP3    H261266   2.903   0.240  38.442  0.0706  0.1118 -2.1236
13259TIP3   OH261267   2.740   1.841   3.726 -0.3068  0.4399  0.3603
13259TIP3    H161268   2.830   1.810   3.732  0.1870  1.0768 -2.2727
13259TIP3    H261269   2.724   1.887   3.808  1.4328 -0.5159  1.2639
13260TIP3   OH261270   0.876   0.581   3.525 -0.4555 -0.5066  0.0190
13260TIP3    H161271   0.806   0.637   3.557 -1.1300 -0.7580 -0.9856
13260TIP3    H261272   0.956   0.631   3.541 -1.0566  0.8594 -1.0853
13261TIP3   OH261273   3.811   0.787  40.627 -0.4412  0.5933 -0.3559
13261TIP3    H161274   3.790   0.714  40.684 -0.5293  0.8231 -0.0916
13261TIP3    H261275   3.902   0.772  40.602 -0.8328 -0.2878 -1.3333
13262TIP3   OH261276   0.425   4.081  38.348  0.1873  0.2848  0.4360
13262TIP3    H161277   0.488   4.010  38.335  1.2325  0.8726  1.9472
13262TIP3    H261278   0.469   4.141  38.409 -1.4876  1.1866  0.8178
13263TIP3   OH261279   1.070   1.167  14.882 -0.0729  0.1498  0.3622
13263TIP3    H161280   1.023   1.119  14.949 -0.6057  0.4617  0.2173
13263TIP3    H261281   1.039   1.257  14.890  0.1484  0.2675 -0.0467
13264TIP3   OH261282   0.417   0.957   5.023  0.6240  0.1824  0.1394
13264TIP3    H161283   0.375   0.999   5.097 -0.6504  0.5749 -0.7772
13264TIP3    H261284   0.345   0.919   4.972  1.3872  0.6040 -1.3109
13265TIP3   OH261285   2.293   0.795  11.633 -0.1221 -0.5150 -0.2645
13265TIP3    H161286   2.333   0.883  11.633  0.1014 -0.6167 -0.3606
13265TIP3    H261287   2.229   0.798  11.562 -0.4214 -0.2923  0.0066
13266TIP3   OH261288   1.100   4.287   2.449  0.2247 -0.4870  0.2648
13266TIP3    H161289   1.089   4.360   2.510 -1.2050 -0.5290  0.0852
13266TIP3    H261290   1.144   4.219   2.500 -0.3504 -0.2756  1.0568
13267TIP3   OH261291   1.485   3.423  15.387  1.1698 -0.1201  0.0140
13267TIP3    H161292   1.548   3.443  15.456  0.7124 -1.0212  0.7229
13267TIP3    H261293   1.455   3.508  15.356  0.4057  0.3453  1.8636
13268TIP3   OH261294   2.534   2.224   0.516 -0.4048  0.7223 -0.1119
13268TIP3    H161295   2.459   2.252   0.568 -1.0981 -0.1486 -0.6152
13268TIP3    H261296   2.574   2.306   0.486 -0.0832  1.2352  1.6140
13269TIP3   OH261297   1.259   0.537   1.943 -0.1246 -0.1805 -0.0486
13269TIP3    H161298   1.353   0.545   1.926  0.0018  0.2954  0.8649
13269TIP3    H261299   1.219   0.545   1.856  0.8165 -3.4215 -0.9221
13270TIP3   OH261300   2.477   3.287  38.618 -0.1034  0.1553  0.5386
13270TIP3    H161301   2.425   3.222  38.666 -2.0506  1.9919  1.0693
13270TIP3    H261302   2.464   3.369  38.666  0.3041  1.4440 -1.4191
13271TIP3   OH261303   3.478   0.302  27.937 -0.1626  0.3254  0.7879
13271TIP3    H161304   3.388   0.303  27.969 -1.4738 -3.3945 -2.0368
13271TIP3    H261305   3.523   0.238  27.992 -0.1914 -0.2115  0.1980
13272TIP3   OH261306   3.167   2.184  39.318 -0.0363  0.1276  0.0433
13272TIP3    H161307   3.199   2.205  39.231 -1.1874 -0.5217 -0.5632
13272TIP3    H261308   3.180   2.089  39.326  0.2370  0.2089  0.6649
13273TIP3   OH261309   3.872   0.185  11.140 -0.4159  0.6417 -0.0960
13273TIP3    H161310   3.844   0.248  11.073 -0.0217  1.9924  0.9709
13273TIP3    H261311   3.818   0.206  11.217  0.0294 -0.0476  0.4129
13274TIP3   OH261312   3.967   3.067   4.648 -0.0986  0.1561 -0.4530
13274TIP3    H161313   4.062   3.082   4.645 -0.2659  1.3296 -0.4106
13274TIP3    H261314   3.934   3.136   4.705 -0.8780 -0.8859  0.4052
13275TIP3   OH261315   3.226   1.505  11.349 -0.5571 -0.3914  0.6174
13275TIP3    H161316   3.212   1.595  11.320 -0.1540 -0.7021 -0.6105
13275TIP3    H261317   3.281   1.466  11.281  0.9754 -0.9999  2.1125
13276TIP3   OH261318   3.764   3.565  41.159 -0.4449  0.4890 -0.2773
13276TIP3    H161319   3.778   3.473  41.137 -1.6467 -0.1299  1.2833
13276TIP3    H261320   3.761   3.610  41.075 -0.4529 -1.0098 -1.1154
13277TIP3   OH261321   2.136   4.308  13.216  0.2660  0.2315 -0.4988
13277TIP3    H161322   2.113   4.338  13.128 -0.0072 -0.0093 -0.5097
13277TIP3    H261323   2.228   4.332  13.227  0.9296 -1.5894 -1.6487
13278TIP3   OH261324   2.297   2.860   4.717  0.0166 -0.2099  0.3361
13278TIP3    H161325   2.270   2.771   4.697  1.5007 -0.5329 -0.2926
13278TIP3    H261326   2.383   2.852   4.758 -1.7084  0.5990  4.7181
13279TIP3   OH261327   0.825   2.795  33.914 -0.4098 -0.4128  0.5818
13279TIP3    H161328   0.911   2.757  33.895 -0.9413 -0.2999 -2.5974
13279TIP3    H261329   0.762   2.734  33.875 -1.6028  0.8047  0.5195
13280TIP3   OH261330   4.371   1.263  21.623 -0.3965 -0.1819 -0.8950
13280TIP3    H161331   4.338   1.268  21.534  0.6413 -1.0187 -1.3586
13280TIP3    H261332   4.294   1.271  21.679 -1.2409 -1.0766 -1.8998
13281TIP3   OH261333   0.841   1.526  12.254 -0.2093  0.4043  0.6804
13281TIP3    H161334   0.912   1.577  12.216 -0.3984  0.0406 -0.1902
13281TIP3    H261335   0.881   1.443  12.279 -0.3433  0.1605  0.0955
13282TIP3   OH261336   1.742   2.219   9.386 -0.2821  0.2356  0.2323
13282TIP3    H161337   1.669   2.193   9.443 -0.2919  1.4824  0.8168
13282TIP3    H261338   1.782   2.136   9.359 -1.3471 -0.4306  0.6511
13283TIP3   OH261339   3.203   2.228  31.744  0.0263 -0.1006  0.0191
13283TIP3    H161340   3.181   2.135  31.742 -1.0117  0.1346 -0.0414
13283TIP3    H261341   3.275   2.234  31.807 -2.0093 -0.5313  2.5704
13284TIP3   OH261342   0.676   2.903  41.129  0.0274  0.5835 -0.0838
13284TIP3    H161343   0.703   2.987  41.166  1.8205  0.2473 -0.5235
13284TIP3    H261344   0.618   2.925  41.056  0.9377  1.4852 -0.5529
13285TIP3   OH261345   4.399   3.614  32.509 -0.1600  0.8955 -0.5008
13285TIP3    H161346   4.427   3.670  32.436  0.3146  1.5441  0.1608
13285TIP3    H261347   4.472   3.554  32.522 -0.9640 -0.4208 -1.6849
13286TIP3   OH261348   0.453   1.179  12.760  0.2862  0.2160 -0.2120
13286TIP3    H161349   0.444   1.198  12.853  0.9559 -1.1481  0.1530
13286TIP3    H261350   0.523   1.238  12.731  0.1732  0.5439  0.1688
13287TIP3   OH261351   3.993   2.068   1.798 -0.0176  0.2833 -0.5908
13287TIP3    H161352   3.907   2.034   1.773  0.4933  0.2452 -2.4728
13287TIP3    H261353   3.976   2.158   1.825 -0.5004  0.7826 -2.4119
13288TIP3   OH261354   3.738   1.202  38.619  0.2857  0.1547  0.1798
13288TIP3    H161355   3.818   1.253  38.611  0.5586 -0.4723 -1.7156
13288TIP3    H261356   3.741   1.141  38.545 -2.2449  0.5439 -0.3440
13289TIP3   OH261357   1.035   0.423   9.510  0.3262  0.7842 -0.3697
13289TIP3    H161358   1.001   0.383   9.590  0.0041 -1.6487 -1.6374
13289TIP3    H261359   1.129   0.405   9.513  0.3586  0.9489 -0.4011
13290TIP3   OH261360   2.152   3.713   6.551 -0.0591  0.5240 -0.0208
13290TIP3    H161361   2.074   3.670   6.586  0.2972 -1.4693 -1.4944
13290TIP3    H261362   2.218   3.703   6.620 -0.9478  1.8682  1.0670
13291TIP3   OH261363   2.798   0.269   4.783 -0.5795  0.4552 -0.4146
13291TIP3    H161364   2.791   0.201   4.850 -0.0896  0.6081 -0.2009
13291TIP3    H261365   2.736   0.337   4.810 -0.4251  0.4895 -0.1424
13292TIP3   OH261366   0.751   1.587   2.470  0.0395  0.0643  0.5266
13292TIP3    H161367   0.711   1.568   2.555 -1.6121  0.9294 -0.0023
13292TIP3    H261368   0.774   1.680   2.475 -1.5088  0.5341 -0.4788
13293TIP3   OH261369   4.028   0.906   9.418 -0.1556  0.1682  0.0325
13293TIP3    H161370   3.971   0.832   9.398 -0.3252  0.1801  0.4807
13293TIP3    H261371   3.977   0.961   9.477 -0.1308  0.7738 -0.4965
13294TIP3   OH261372   2.107   4.393  33.331 -0.4958  0.2193 -0.0980
13294TIP3    H161373   2.155   4.336  33.272  1.7394  1.3452  0.5505
13294TIP3    H261374   2.121   4.481  33.297 -0.9376  0.6994  0.9089
13295TIP3   OH261375   3.692   2.810   1.910  0.2260  0.1835 -0.5895
13295TIP3    H161376   3.730   2.897   1.917 -0.4119  0.3413  1.5654
13295TIP3    H261377   3.764   2.750   1.927  0.0737  0.4125  0.9933
13296TIP3   OH261378   0.662   3.975   8.777 -1.0545 -0.3725  0.0269
13296TIP3    H161379   0.630   3.980   8.868 -0.5288  1.3869  0.1656
13296TIP3    H261380   0.756   3.964   8.786 -0.8086  1.2345 -0.2387
13297TIP3   OH261381   4.104   0.540   1.227  0.0405 -0.0289 -0.1019
13297TIP3    H161382   4.170   0.584   1.173 -0.2124  0.0270 -0.3726
13297TIP3    H261383   4.136   0.451   1.237  1.0885  0.4780  1.3368
13298TIP3   OH261384   4.204   1.537   9.614 -0.1857 -0.0647  0.0548
13298TIP3    H161385   4.140   1.536   9.685  0.9434  0.2609  1.1348
13298TIP3    H261386   4.199   1.625   9.577  0.1648  0.2214  0.6658
13299TIP3   OH261387   1.767   0.026   0.003 -0.1384  0.4101  0.3751
13299TIP3    H161388   1.812  -0.053   0.033  1.1412  0.4641 -1.2358
13299TIP3    H261389   1.817   0.098   0.040 -0.0727  0.4621  0.1866
13300TIP3   OH261390   1.089   2.972  10.976  0.5193 -0.3477  0.4554
13300TIP3    H161391   1.094   2.917  11.055 -1.4988 -0.5572  0.5114
13300TIP3    H261392   1.134   3.053  11.000  0.7495 -0.7641  1.5070
13301TIP3   OH261393   2.425   2.154   4.469 -0.2941  0.3871 -0.3335
13301TIP3    H161394   2.385   2.080   4.514  2.1532 -0.8379  0.0050
13301TIP3    H261395   2.434   2.221   4.537 -1.7497  0.7245 -0.4398
13302TIP3   OH261396   2.617   2.380  29.644 -0.3943 -0.0709 -0.0773
13302TIP3    H161397   2.613   2.287  29.666  1.0710 -0.1330 -0.0104
13302TIP3    H261398   2.641   2.382  29.551  0.6834  0.2435  0.2018
13303TIP3   OH261399   2.565   1.628   7.226 -0.3424 -0.1588  0.0827
13303TIP3    H161400   2.470   1.640   7.228 -0.4565 -0.9952 -0.1228
13303TIP3    H261401   2.590   1.618   7.318 -0.3216  0.9900  0.2128
13304TIP3   OH261402   2.156   3.394  38.829 -0.1988 -0.3307  0.3351
13304TIP3    H161403   2.235   3.446  38.815 -1.0317  1.6706  2.4019
13304TIP3    H261404   2.188   3.312  38.867  0.9376 -0.0330  0.0587
13305TIP3   OH261405   3.860   2.115  25.551  0.4013 -0.1185 -0.0970
13305TIP3    H161406   3.789   2.053  25.561  0.1390 -0.0876 -1.5363
13305TIP3    H261407   3.817   2.200  25.543  0.6366 -0.0151 -0.2899
13306TIP3   OH261408   1.970   1.820  29.560  0.1625  0.1031 -0.0358
13306TIP3    H161409   1.897   1.758  29.567 -0.0014  0.4081  1.2556
13306TIP3    H261410   1.949   1.874  29.484 -1.2576  0.5429  0.6357
13307TIP3   OH261411   0.670   1.457  36.989  0.1112  0.2102  0.8757
13307TIP3    H161412   0.696   1.492  37.074  0.0514  0.4261  0.8065
13307TIP3    H261413   0.578   1.434  36.999  0.2853 -0.4263  1.0854
13308TIP3   OH261414   1.168   1.477  14.217  0.1660  0.1567 -0.0558
13308TIP3    H161415   1.117   1.396  14.220 -0.2483  0.4453  1.7293
13308TIP3    H261416   1.218   1.471  14.136 -0.3981 -1.5458 -0.3125
13309TIP3   OH261417   0.824   2.472  27.380  0.4458 -0.0749 -0.5771
13309TIP3    H161418   0.820   2.439  27.290 -0.0721 -0.6899 -0.3360
13309TIP3    H261419   0.753   2.535  27.385  0.0293 -0.5557 -0.3992
13310TIP3   OH261420   2.307   1.810   7.015  0.3720 -0.3946  0.1052
13310TIP3    H161421   2.399   1.822   6.992 -0.1276  2.7914 -0.6653
13310TIP3    H261422   2.308   1.784   7.107  2.0304  0.4091  0.3398
13311TIP3   OH261423   1.890   1.162  34.282  0.0590  0.4543 -0.1241
13311TIP3    H161424   1.894   1.252  34.249 -0.7529  0.6457  0.2512
13311TIP3    H261425   1.797   1.148  34.300  0.1832 -0.4589 -0.1653
13312TIP3   OH261426   3.109   2.062  10.703 -0.0329 -0.0494 -0.2309
13312TIP3    H161427   3.050   2.125  10.742  1.9926  0.8159  1.6540
13312TIP3    H261428   3.058   2.021  10.633 -2.5963  1.0437  0.8770
13313TIP3   OH261429   1.362   3.702  40.312  0.4042  0.0165 -0.1046
13313TIP3    H161430   1.407   3.670  40.390  1.7049 -0.2586 -0.9326
13313TIP3    H261431   1.411   3.780  40.287 -1.0963  1.1466  0.3503
13314TIP3   OH261432   0.536   2.695  12.036  0.5156  0.2011  0.1743
13314TIP3    H161433   0.575   2.639  11.968  0.1973 -0.5470  0.5950
13314TIP3    H261434   0.457   2.730  11.996 -0.1746 -0.9864  0.4609
13315TIP3   OH261435   3.470   4.228   2.021  0.5210 -0.1381  0.3813
13315TIP3    H161436   3.537   4.296   2.022  0.7795 -0.3942  0.7648
13315TIP3    H261437   3.434   4.228   2.110  0.1925 -0.1782  0.2503
13316TIP3   OH261438   0.623   0.321  28.027 -0.5725  0.4421 -0.0822
13316TIP3    H161439   0.713   0.298  28.003 -0.7191  0.4764 -0.6917
13316TIP3    H261440   0.602   0.397  27.971 -1.1520  0.1211 -0.3104
13317TIP3   OH261441   2.081   4.174   4.884  0.7831  0.8731  0.8728
13317TIP3    H161442   2.176   4.166   4.897  1.0301 -0.5740 -1.2367
13317TIP3    H261443   2.043   4.131   4.960  1.9121 -0.9322  0.4867
13318TIP3   OH261444   1.178   2.555  37.941 -0.1001 -0.6536 -0.2988
13318TIP3    H161445   1.227   2.511  38.012  1.4262 -2.0337 -2.1009
13318TIP3    H261446   1.149   2.484  37.884 -1.9458  0.3729 -0.7193
13319TIP3   OH261447   4.236   2.338  39.024 -0.0926 -0.4076 -0.4605
13319TIP3    H161448   4.209   2.293  39.104  0.5690 -0.1404 -0.0775
13319TIP3    H261449   4.276   2.269  38.971 -1.7109 -0.8604 -1.1520
13320TIP3   OH261450   3.327   2.352  30.819 -0.0067 -0.1073  0.2180
13320TIP3    H161451   3.314   2.446  30.822 -1.2807 -0.2136 -0.8583
13320TIP3    H261452   3.314   2.329  30.727 -0.5779 -1.4459  0.6034
13321TIP3   OH261453   2.160   2.342   7.531  0.2720  0.3026  0.4440
13321TIP3    H161454   2.102   2.330   7.606 -0.1604  1.5824  0.3402
13321TIP3    H261455   2.101   2.348   7.456  0.6807 -0.6207  0.0404
13322TIP3   OH261456   1.325   2.509   9.935  0.6943 -1.0357 -0.3936
13322TIP3    H161457   1.246   2.531   9.887 -0.5857  0.6124  2.2310
13322TIP3    H261458   1.307   2.423   9.974 -0.9573  0.3492  2.1693
13323TIP3   OH261459   1.104   2.145  39.895  0.1428  0.1555 -0.4651
13323TIP3    H161460   1.118   2.117  39.805 -0.7654  1.0919 -0.9256
13323TIP3    H261461   1.090   2.240  39.889 -1.4807  0.0146  0.4604
13324TIP3   OH261462   4.312   3.963   3.967  0.1999 -0.3963 -0.0484
13324TIP3    H161463   4.385   3.909   3.999  0.3159 -2.9680 -4.0143
13324TIP3    H261464   4.350   4.050   3.956  2.0268 -1.1255  0.1204
13325TIP3   OH261465   2.700   3.508  11.223  0.2611 -0.4865  0.1437
13325TIP3    H161466   2.696   3.466  11.137  0.2566  0.3088 -0.2510
13325TIP3    H261467   2.759   3.582  11.210 -1.5225  1.0081  0.2221
13326TIP3   OH261468   3.452   2.347  34.123 -0.0840 -0.0729 -0.5920
13326TIP3    H161469   3.531   2.379  34.079 -0.8383  1.8681 -0.6388
13326TIP3    H261470   3.464   2.372  34.215  0.4571 -2.0679 -0.0754
13327TIP3   OH261471   2.013   0.626  32.968  0.6449  0.5467  0.2100
13327TIP3    H161472   1.992   0.717  32.944  2.0430  0.9598  0.4934
13327TIP3    H261473   1.935   0.596  33.015  0.3855  1.7893  0.6226
13328TIP3   OH261474   1.675   1.533   5.191 -0.3769  0.1760 -0.1397
13328TIP3    H161475   1.612   1.595   5.228  0.0078  0.9288 -0.7351
13328TIP3    H261476   1.621   1.461   5.160 -0.7973  0.0018  0.9293
13329TIP3   OH261477   3.438   2.376  36.113  0.1196  0.1217  0.4704
13329TIP3    H161478   3.467   2.462  36.083 -0.2591  1.2986  3.2427
13329TIP3    H261479   3.385   2.343  36.040  0.8172  1.9093 -0.9320
13330TIP3   OH261480   1.679   0.531   4.896 -0.1834 -0.5035 -0.2169
13330TIP3    H161481   1.683   0.521   4.991  0.3319  0.3826 -0.1379
13330TIP3    H261482   1.740   0.465   4.862  0.7031  0.1192  0.1362
13331TIP3   OH261483   2.697   0.663   3.276  0.6633  0.1929  0.1568
13331TIP3    H161484   2.642   0.635   3.350  1.6897  0.0722  0.8866
13331TIP3    H261485   2.720   0.582   3.232  1.3102  0.1270  0.6095
13332TIP3   OH261486   2.486   1.784   3.607 -0.2700  0.2863 -0.1204
13332TIP3    H161487   2.576   1.815   3.617 -0.7255  1.3323  1.0282
13332TIP3    H261488   2.455   1.826   3.526  0.0893  0.4017 -0.1994
13333TIP3   OH261489   4.057   4.145  34.833 -0.0712 -0.4854 -0.0643
13333TIP3    H161490   4.129   4.162  34.771  0.7084  0.3273  1.0340
13333TIP3    H261491   4.101   4.116  34.913 -0.9167  0.4947  0.7849
13334TIP3   OH261492   3.909   1.175  29.804 -0.1067  0.1254  0.0763
13334TIP3    H161493   3.892   1.259  29.760 -3.4587  0.1162  1.1148
13334TIP3    H261494   3.979   1.195  29.867  0.9454  1.4551 -1.4299
13335TIP3   OH261495   1.776   1.059  11.771 -0.2044 -0.6458  0.5498
13335TIP3    H161496   1.724   1.085  11.695  0.5916 -0.9415 -0.0960
13335TIP3    H261497   1.732   0.980  11.804 -1.2005  0.0949  1.0815
13336TIP3   OH261498   0.167   2.156  29.889 -0.2734  0.2079 -0.3841
13336TIP3    H161499   0.074   2.168  29.870  0.1092  0.3965 -2.2971
13336TIP3    H261500   0.190   2.073  29.846  0.7098  0.8091 -1.0541
13337TIP3   OH261501   2.138   2.469  13.873 -0.1220  0.1980 -0.2805
13337TIP3    H161502   2.176   2.405  13.933 -1.0011 -0.4101 -0.3586
13337TIP3    H261503   2.133   2.423  13.789 -0.4707  0.4733 -0.4129
13338TIP3   OH261504   4.267   1.973  32.399 -0.7375 -0.5006 -0.5989
13338TIP3    H161505   4.249   1.938  32.486 -0.8586  1.6024  0.3054
13338TIP3    H261506   4.184   2.011  32.371 -1.0801 -2.3334 -2.2889
13339TIP3   OH261507   4.328   2.962   0.757  0.2057 -0.6022  0.1504
13339TIP3    H161508   4.322   3.010   0.674  1.2727 -1.0865 -0.2269
13339TIP3    H261509   4.242   2.974   0.798 -0.5030 -0.7613 -1.2351
13340TIP3   OH261510   3.594   3.265  27.576 -0.0381  0.6168 -0.0826
13340TIP3    H161511   3.687   3.260  27.554  0.2290 -1.6436  1.2614
13340TIP3    H261512   3.592   3.270  27.671 -1.2913 -0.1728 -0.0470
13341TIP3   OH261513   0.046   4.088  24.182  0.6492  0.0231 -0.3427
13341TIP3    H161514   0.084   4.012  24.139 -0.6729 -0.8882  0.0446
13341TIP3    H261515   0.098   4.101  24.261  0.7434 -0.6203 -0.3009
13342TIP3   OH261516   0.554   2.080  29.705 -0.1001  0.2086 -0.1485
13342TIP3    H161517   0.636   2.045  29.672 -0.2102  0.1631 -0.3806
13342TIP3    H261518   0.578   2.129  29.784  0.0773 -0.2291  0.0717
13343TIP3   OH261519   0.928   2.195  31.236  0.2256 -0.1001 -0.4475
13343TIP3    H161520   0.960   2.172  31.148 -1.0467 -0.9730 -0.7056
13343TIP3    H261521   1.006   2.226  31.282  0.7121  1.7214 -2.2979
13344TIP3   OH261522   1.367   2.869  30.796 -0.1768  0.2112 -0.5816
13344TIP3    H161523   1.334   2.788  30.756 -2.8474 -0.1744  2.0126
13344TIP3    H261524   1.408   2.840  30.877  0.3109  1.3620 -0.4051
13345TIP3   OH261525   2.908   0.385  41.613 -0.3000  0.4675 -0.3586
13345TIP3    H161526   2.826   0.337  41.619 -0.0147  0.0129  0.0233
13345TIP3    H261527   2.889   0.459  41.555 -0.9560  0.3370 -0.3137
13346TIP3   OH261528   2.173   4.135  30.487 -0.5908  0.2192 -0.0026
13346TIP3    H161529   2.164   4.049  30.527 -0.3927 -0.6386 -1.7184
13346TIP3    H261530   2.267   4.148  30.477 -0.6612 -0.3220 -1.6512
13347TIP3   OH261531   2.414   0.045  36.682  0.3582 -0.0402 -0.6357
13347TIP3    H161532   2.320   0.050  36.668  0.2990 -1.0363 -0.6011
13347TIP3    H261533   2.425   0.044  36.777  0.2426 -2.3405 -0.5950
13348TIP3   OH261534   3.512   2.134  11.798  0.0625  0.2776  0.5867
13348TIP3    H161535   3.491   2.184  11.877 -0.2959  0.5355  0.3319
13348TIP3    H261536   3.592   2.174  11.765  1.7837 -1.5409  2.2813
13349TIP3   OH261537   0.995   1.125   6.911  0.0170 -0.0999  0.1048
13349TIP3    H161538   0.961   1.036   6.917 -1.4375  0.3382 -1.0873
13349TIP3    H261539   0.965   1.169   6.990 -2.2790  0.2635 -0.8850
13350TIP3   OH261540   2.445   3.087  30.889 -0.3182 -0.0649  0.4237
13350TIP3    H161541   2.516   3.083  30.953 -0.2513 -0.8972  0.3047
13350TIP3    H261542   2.470   3.023  30.822 -1.3117 -0.5539  0.5124
13351TIP3   OH261543   2.656   1.047  33.983 -0.3249  0.0142  0.2114
13351TIP3    H161544   2.741   1.072  34.019 -0.0622 -1.5480  0.7540
13351TIP3    H261545   2.658   1.078  33.892  0.5759  0.5487  0.4069
13352TIP3   OH261546   0.084   2.127   8.363 -0.0055  0.2787  0.2899
13352TIP3    H161547   0.051   2.180   8.436 -0.3806 -0.4163  0.6397
13352TIP3    H261548   0.177   2.112   8.384 -0.0675  0.2344  0.5372
13353TIP3   OH261549   2.253   3.439  13.297 -0.5589  0.3540 -0.5351
13353TIP3    H161550   2.338   3.462  13.260  0.2258 -2.6817 -0.9060
13353TIP3    H261551   2.273   3.403  13.383 -1.5889  0.4590 -0.2363
13354TIP3   OH261552   4.102   1.618  37.078  0.1059  0.1443 -0.1170
13354TIP3    H161553   4.130   1.661  36.997  0.7092  0.1007  0.0691
13354TIP3    H261554   4.073   1.531  37.050  1.6795 -0.4122 -0.1190
13355TIP3   OH261555   4.355   1.269  34.721  0.4240  0.3754  0.3504
13355TIP3    H161556   4.435   1.272  34.670 -1.0659 -2.6801 -2.5686
13355TIP3    H261557   4.384   1.268  34.812  3.7962 -1.9036 -0.5817
13356TIP3   OH261558   3.758   4.295  32.529  0.0965  0.4039 -0.3548
13356TIP3    H161559   3.669   4.299  32.493 -1.0034 -1.7333  1.7981
13356TIP3    H261560   3.804   4.235  32.470 -0.9885 -1.2493  0.4013
13357TIP3   OH261561   0.402   2.059   4.028 -0.0838  0.1355 -0.5939
13357TIP3    H161562   0.358   1.975   4.041 -0.9988  0.5722 -0.8002
13357TIP3    H261563   0.377   2.111   4.104  0.1975  0.3404 -0.6398
13358TIP3   OH261564   3.019   0.336  32.008 -0.3414 -0.3622 -0.5857
13358TIP3    H161565   2.977   0.295  31.932 -0.9504 -0.2646 -0.3094
13358TIP3    H261566   3.105   0.364  31.977 -0.1618 -1.2917 -0.9500
13359TIP3   OH261567   4.057   0.699  37.807  0.2537 -0.5099  0.1105
13359TIP3    H161568   4.081   0.647  37.883  0.3378 -1.4093 -0.5138
13359TIP3    H261569   4.040   0.634  37.738 -0.4855  0.2563 -0.4431
13360TIP3   OH261570   0.464   1.562  41.472 -0.4161 -0.4938  0.4740
13360TIP3    H161571   0.514   1.613  41.536 -2.6679 -1.8041  3.5263
13360TIP3    H261572   0.531   1.510  41.426  1.2804 -0.8435  3.0734
13361TIP3   OH261573   3.766   0.469  12.436 -0.1702 -0.4225  0.1804
13361TIP3    H161574   3.781   0.448  12.343  0.9788  1.9891 -0.2623
13361TIP3    H261575   3.741   0.385  12.476  0.8133 -1.8431 -1.9888
13362TIP3   OH261576   2.216   3.834  29.267  0.0974 -0.0651 -0.0204
13362TIP3    H161577   2.267   3.849  29.188  2.0303 -1.0669  0.9639
13362TIP3    H261578   2.177   3.919  29.288  1.1417  0.6684 -0.9670
13363TIP3   OH261579   3.571   4.231  12.603 -0.7741 -0.2209  0.1357
13363TIP3    H161580   3.593   4.142  12.630 -1.7886  0.3241  3.0517
13363TIP3    H261581   3.523   4.219  12.521  1.3767 -2.1056 -0.9630
13364TIP3   OH261582   2.286   1.286  40.471 -0.2320  0.3365  0.7941
13364TIP3    H161583   2.273   1.237  40.390  0.3160 -0.6096  1.2542
13364TIP3    H261584   2.352   1.235  40.518  0.3807  1.5474  1.2793
13365TIP3   OH261585   0.364   1.716   5.106  0.6752 -0.1895  0.3791
13365TIP3    H161586   0.321   1.798   5.084  0.5094 -0.1047  0.9866
13365TIP3    H261587   0.371   1.718   5.202  2.6556  0.1155  0.2733
13366TIP3   OH261588   0.478   2.793   3.563 -0.6740 -0.3985 -0.0898
13366TIP3    H161589   0.512   2.735   3.495  0.1291 -0.7053  0.5373
13366TIP3    H261590   0.384   2.794   3.550 -0.4215  0.6856 -2.0725
13367TIP3   OH261591   0.986   1.438  39.764  0.1873  0.3753 -0.6270
13367TIP3    H161592   1.006   1.466  39.674  2.8480 -4.0557 -1.7318
13367TIP3    H261593   0.922   1.367  39.753  1.4481 -1.0647  0.7248
13368TIP3   OH261594   2.581   3.048   1.122  0.5493 -0.3807  0.3111
13368TIP3    H161595   2.536   3.078   1.043 -0.2569 -0.6434  0.6588
13368TIP3    H261596   2.600   2.955   1.105  0.8282 -0.3084  0.2253
13369TIP3   OH261597   1.322   0.964  11.466 -0.2311 -0.4097 -0.2650
13369TIP3    H161598   1.334   0.869  11.470 -0.3148 -0.3857  0.5181
13369TIP3    H261599   1.373   0.990  11.389  2.7134 -0.6535  1.4265
13370TIP3   OH261600   0.693   1.517  13.587  0.1225  0.6271  0.3132
13370TIP3    H161601   0.762   1.552  13.644 -0.3669  1.7194  0.2706
13370TIP3    H261602   0.641   1.461  13.645  0.8247  0.0673  0.4251
13371TIP3   OH261603   2.149   3.109  40.075  0.0138  0.2372 -0.0695
13371TIP3    H161604   2.186   3.074  40.156 -0.7647  0.1460  0.2532
13371TIP3    H261605   2.072   3.056  40.058  0.4270 -0.0535 -1.1362
13372TIP3   OH261606   0.876   2.190   5.249 -0.0991 -0.1098 -0.5875
13372TIP3    H161607   0.936   2.264   5.242  0.2316 -0.5131 -3.5892
13372TIP3    H261608   0.902   2.145   5.329  0.2239  2.5068  0.8749
13373TIP3   OH261609   2.999   4.116   7.804  0.0325  0.3760 -0.3364
13373TIP3    H161610   2.927   4.116   7.867  0.5703 -0.1775  0.2891
13373TIP3    H261611   2.961   4.154   7.725 -0.8313  0.4800  0.1139
13374TIP3   OH261612   0.419   0.649   7.624  0.2069 -0.2114 -0.1189
13374TIP3    H161613   0.507   0.686   7.615  0.0848  0.3458  0.8830
13374TIP3    H261614   0.429   0.581   7.690 -0.3431  0.7085  0.9500
13375TIP3   OH261615   2.201   0.284  37.060 -0.2556 -0.5382 -0.3741
13375TIP3    H161616   2.266   0.230  37.105 -0.8751 -1.0521 -0.0714
13375TIP3    H261617   2.230   0.374  37.075 -0.6757 -0.6667  1.4662
13376TIP3   OH261618   4.292   0.666  26.593 -0.2207  0.4112 -0.3903
13376TIP3    H161619   4.302   0.694  26.684  1.4723 -1.1423 -0.0359
13376TIP3    H261620   4.228   0.594  26.596 -0.4957  0.6486 -0.5013
13377TIP3   OH261621   3.322   1.070  38.474 -0.0643  0.3628 -0.7154
13377TIP3    H161622   3.267   1.013  38.529 -1.7391  0.0424 -2.6054
13377TIP3    H261623   3.306   1.158  38.509 -0.7939  0.1213 -0.4081
13378TIP3   OH261624   1.539   4.241  30.911  0.0303  0.2891  0.1092
13378TIP3    H161625   1.476   4.250  30.839  0.3008  0.6936 -0.0828
13378TIP3    H261626   1.550   4.147  30.922  2.8608  0.0899 -2.9631
13379TIP3   OH261627   3.430   2.385   0.805  0.1159 -0.2568 -0.2968
13379TIP3    H161628   3.509   2.437   0.817  1.5629 -1.5650 -3.0351
13379TIP3    H261629   3.381   2.431   0.737 -0.0187 -0.9098 -0.6587
13380TIP3   OH261630   3.640   1.339   8.110  0.1146 -0.5006 -0.7021
13380TIP3    H161631   3.599   1.277   8.170  1.3019  0.0050  0.6772
13380TIP3    H261632   3.658   1.287   8.031  0.3765 -1.7111  0.1240
13381TIP3   OH261633   0.951   2.452   0.961  0.1105  0.2467 -0.9850
13381TIP3    H161634   1.004   2.380   0.924  1.9700 -0.1126  2.0524
13381TIP3    H261635   0.882   2.408   1.010  0.4800  0.5425 -0.1874
13382TIP3   OH261636   4.113   2.364   7.837 -0.2457 -0.1336 -0.0329
13382TIP3    H161637   4.031   2.411   7.855  0.7475  2.1335 -1.0535
13382TIP3    H261638   4.176   2.399   7.900  0.0735 -1.5895  0.4972
13383TIP3   OH261639   2.164   2.793  35.945 -0.2795 -0.1825 -0.3309
13383TIP3    H161640   2.078   2.763  35.974  0.2692 -0.7643  0.7795
13383TIP3    H261641   2.192   2.728  35.881  0.2654 -1.2795  0.9640
13384TIP3   OH261642   1.339   2.914  12.781  0.0723 -0.0356  0.1322
13384TIP3    H161643   1.304   2.898  12.694  1.1835 -3.0656  0.0967
13384TIP3    H261644   1.422   2.960  12.766  0.5765 -1.1055 -0.5388
13385TIP3   OH261645   2.348   2.525  35.802  0.8699 -0.3200  0.5432
13385TIP3    H161646   2.375   2.446  35.757  0.5538 -0.0748 -0.0918
13385TIP3    H261647   2.400   2.595  35.762 -1.5570  0.3770 -1.6736
13386TIP3   OH261648   1.113   3.874   5.409 -0.3383 -0.0724  0.2494
13386TIP3    H161649   1.165   3.922   5.344 -0.5806 -0.5066 -0.2641
13386TIP3    H261650   1.054   3.940   5.446  0.3100  0.3424  0.5710
13387TIP3   OH261651   2.882   1.940   6.670 -0.6147 -0.6499 -0.7899
13387TIP3    H161652   2.832   1.968   6.747  0.6170  1.2985 -0.6390
13387TIP3    H261653   2.841   1.985   6.596  1.1828  1.4977 -0.5880
13388TIP3   OH261654   1.310   0.516  40.453  0.0155  0.2474 -0.2984
13388TIP3    H161655   1.385   0.456  40.450 -0.7095 -0.6462 -0.7674
13388TIP3    H261656   1.271   0.501  40.539  0.5349  0.9269  0.0649
13389TIP3   OH261657   2.043   2.404   5.866  0.1695  0.3337  0.2549
13389TIP3    H161658   2.133   2.406   5.832 -0.0874 -0.5954 -0.5228
13389TIP3    H261659   1.989   2.432   5.792 -0.3509 -1.1834  0.0227
13390TIP3   OH261660   0.045   0.905  35.849  0.3015 -0.4843 -0.2089
13390TIP3    H161661   0.033   0.879  35.757 -1.2989 -1.9525  0.3632
13390TIP3    H261662  -0.031   0.868  35.894 -1.3024  3.8319  1.0411
13391TIP3   OH261663   1.805   1.805  35.222 -0.0482 -0.2017 -1.0423
13391TIP3    H161664   1.777   1.736  35.162 -0.5559 -1.9619  1.1041
13391TIP3    H261665   1.776   1.775  35.308  0.6047  2.2460  0.1025
13392TIP3   OH261666   0.183   1.742  31.143  0.1842  0.2020 -0.0385
13392TIP3    H161667   0.258   1.739  31.083  0.9938 -0.0122  0.9675
13392TIP3    H261668   0.144   1.655  31.136  0.0214  0.3107 -0.5563
13393TIP3   OH261669   0.821   0.148  38.037  0.3304 -0.2413  0.0778
13393TIP3    H161670   0.878   0.195  37.976  0.3791 -0.2393  0.1268
13393TIP3    H261671   0.882   0.095  38.090  0.2056 -1.1072 -0.6103
13394TIP3   OH261672   1.294   2.124  17.443  0.3172  0.6822  0.2003
13394TIP3    H161673   1.225   2.087  17.498 -0.2530 -1.5566 -1.8403
13394TIP3    H261674   1.278   2.218  17.444 -1.1232  0.4579  1.8815
13395TIP3   OH261675   1.388   4.108  40.785  0.4919 -0.7191  0.4169
13395TIP3    H161676   1.465   4.051  40.786  0.7142 -0.4303  0.1148
13395TIP3    H261677   1.348   4.097  40.871  0.1392 -1.8679  0.1236
13396TIP3   OH261678   0.426   0.392   1.200 -0.1531  0.3267 -0.2945
13396TIP3    H161679   0.391   0.480   1.187 -0.2422  0.4876  0.9406
13396TIP3    H261680   0.395   0.366   1.286  0.6891 -0.5275 -0.2295
13397TIP3   OH261681   0.564   0.080   6.467 -0.0223 -0.2506 -0.2340
13397TIP3    H161682   0.555   0.089   6.372  0.6274  1.2629 -0.1797
13397TIP3    H261683   0.477   0.057   6.498 -0.5193  0.4565 -1.0762
13398TIP3   OH261684   2.547   1.199   6.709 -0.0842  0.0130 -0.0444
13398TIP3    H161685   2.591   1.279   6.682 -2.0490  1.0843 -0.3027
13398TIP3    H261686   2.546   1.202   6.804  1.8521 -0.8999  0.0422
13399TIP3   OH261687   1.949   0.888  29.782 -0.0610  0.0418 -0.2811
13399TIP3    H161688   1.980   0.869  29.694 -1.6134 -3.0151 -0.2915
13399TIP3    H261689   2.013   0.847  29.840 -0.0944  0.3039 -0.0534
13400TIP3   OH261690   2.059   0.315  31.807  0.3193 -0.3211  0.0232
13400TIP3    H161691   2.017   0.280  31.728 -1.9111 -0.5807  1.2516
13400TIP3    H261692   2.141   0.264  31.814  0.0977 -0.9709 -1.5624
13401TIP3   OH261693   0.414   3.070  38.297 -0.7648  0.0546 -0.3829
13401TIP3    H161694   0.490   3.126  38.283 -0.4852 -0.4368 -0.8919
13401TIP3    H261695   0.358   3.085  38.221  0.3789 -2.0176 -1.7395
13402TIP3   OH261696   1.469   1.303  29.020 -0.3268  0.0896 -0.4329
13402TIP3    H161697   1.422   1.322  29.102 -1.3703 -0.9347 -0.7645
13402TIP3    H261698   1.401   1.302  28.953  0.4238  0.2248 -1.2145
13403TIP3   OH261699   1.645   2.001  32.316 -0.0297 -0.0880  0.6068
13403TIP3    H161700   1.709   2.044  32.373 -0.1673  0.5792  0.2739
13403TIP3    H261701   1.627   1.917  32.358  1.7250 -0.6844  0.2477
13404TIP3   OH261702   4.234   3.298  40.562  0.1276  0.3342  0.2689
13404TIP3    H161703   4.276   3.256  40.487  0.2741  0.5153  0.2468
13404TIP3    H261704   4.283   3.380  40.574 -1.1656  1.2904 -0.6842
13405TIP3   OH261705   4.154   3.181  29.320  0.0482 -0.3951  0.6899
13405TIP3    H161706   4.145   3.106  29.379 -0.7938 -0.9949 -0.1755
13405TIP3    H261707   4.087   3.243  29.350  0.1883 -0.3373  0.8870
13406TIP3   OH261708   3.899   1.377  23.394  0.0438  0.0770 -0.3157
13406TIP3    H161709   3.862   1.438  23.457  1.2088 -2.0932  2.6559
13406TIP3    H261710   3.860   1.293  23.415  0.7983 -0.8214 -2.2530
13407TIP3   OH261711   1.977   0.514  16.417 -0.2328  0.3842 -0.1865
13407TIP3    H161712   1.936   0.529  16.331  0.6370 -1.0909 -0.9014
13407TIP3    H261713   1.903   0.510  16.478 -1.2475 -2.0712 -1.4112
13408TIP3   OH261714   1.947   1.375  39.022 -0.6307  0.1270 -0.2517
13408TIP3    H161715   1.980   1.461  38.995 -0.4965  0.1401 -0.0465
13408TIP3    H261716   1.861   1.369  38.981 -1.1379  0.8451  0.6829
13409TIP3   OH261717   2.771   1.671   0.382 -0.1440  1.0778 -0.0850
13409TIP3    H161718   2.719   1.602   0.423  0.7970  0.2163 -0.3035
13409TIP3    H261719   2.750   1.750   0.432 -2.1137  0.9024 -0.5459
13410TIP3   OH261720   3.255   3.123  36.647  0.1115 -0.0140 -0.1713
13410TIP3    H161721   3.302   3.044  36.671  1.4724  1.3030  1.8135
13410TIP3    H261722   3.324   3.187  36.628 -0.8775  1.2910  0.4307
13411TIP3   OH261723   1.103   3.472  33.879 -0.3777  0.0044  0.0175
13411TIP3    H161724   1.039   3.438  33.817 -0.8023  0.7608  0.0309
13411TIP3    H261725   1.177   3.412  33.873  1.4292  2.2050 -4.3295
13412TIP3   OH261726   2.616   3.637   0.239  0.1535 -0.0167  0.1295
13412TIP3    H161727   2.703   3.609   0.210  0.2421  0.7481 -0.3578
13412TIP3    H261728   2.585   3.565   0.294  0.7498 -0.6562 -0.3611
13413TIP3   OH261729   4.016   4.077  37.025  0.5380 -0.4416 -0.4309
13413TIP3    H161730   4.108   4.102  37.031  0.3196  0.5350 -0.8497
13413TIP3    H261731   3.970   4.147  37.071 -0.2111  0.7605 -2.8434
13414TIP3   OH261732   1.050   4.332  39.924 -0.2051  0.6218 -0.1173
13414TIP3    H161733   1.039   4.358  39.833 -0.6207  2.0784  0.3191
13414TIP3    H261734   1.014   4.405  39.975  0.0210 -0.1511  1.2180
13415TIP3   OH261735   4.255   2.000  34.428  0.4926  0.0524 -0.2976
13415TIP3    H161736   4.191   2.016  34.358  1.1321  3.1308 -0.3172
13415TIP3    H261737   4.249   1.906  34.445 -2.6111 -0.1068 -1.6342
13416TIP3   OH261738   3.094   1.688  30.692 -0.1418 -0.2745  0.1342
13416TIP3    H161739   3.063   1.730  30.773  1.0606 -0.4063  0.6928
13416TIP3    H261740   3.189   1.685  30.702  0.1752  0.9663 -1.9142
13417TIP3   OH261741   0.879   0.302   6.241  0.5996  0.4671 -0.0780
13417TIP3    H161742   0.820   0.275   6.311  1.3855  1.9082  1.2028
13417TIP3    H261743   0.915   0.220   6.207 -0.8208 -0.3347  0.2675
13418TIP3   OH261744   1.563   0.202   9.074 -0.5897 -0.1059 -0.0278
13418TIP3    H161745   1.495   0.265   9.049 -0.5532 -0.1782 -0.3074
13418TIP3    H261746   1.580   0.222   9.166 -0.3528  0.5037 -0.1987
13419TIP3   OH261747   2.629   2.655  29.441  0.1658 -0.0673  0.1528
13419TIP3    H161748   2.621   2.579  29.383 -1.2575 -0.1883  0.4760
13419TIP3    H261749   2.702   2.705  29.404 -1.8937  0.9330 -3.0364
13420TIP3   OH261750   2.316   2.967   4.289  0.1118  0.2113  0.1398
13420TIP3    H161751   2.380   2.930   4.350  0.7310 -0.4488 -0.8972
13420TIP3    H261752   2.367   2.992   4.213 -1.1832 -4.0483 -2.4874
13421TIP3   OH261753   2.493   2.444   6.591  0.5026  0.4906  0.3560
13421TIP3    H161754   2.557   2.373   6.604  0.8111  1.2704  4.2419
13421TIP3    H261755   2.536   2.503   6.529  3.2410  0.5064  2.1081
13422TIP3   OH261756   0.817   2.690  35.148  0.1817 -0.0736 -0.2178
13422TIP3    H161757   0.843   2.709  35.238 -1.0125 -0.1690  0.1593
13422TIP3    H261758   0.731   2.730  35.139  0.0999 -0.4441 -1.1855
13423TIP3   OH261759   3.916   3.140   3.550 -0.2429  0.3906  0.6093
13423TIP3    H161760   4.004   3.104   3.536 -0.4312 -0.7023  2.0067
13423TIP3    H261761   3.858   3.076   3.509 -0.4233  0.8284  0.1775
13424TIP3   OH261762   1.204   3.538  30.282  0.3655  0.2662 -0.0930
13424TIP3    H161763   1.250   3.455  30.295 -0.1772  0.1325  1.1199
13424TIP3    H261764   1.126   3.514  30.232  0.1925  0.0248  0.2818
13425TIP3   OH261765   2.713   1.498   9.065 -0.2400 -0.5972 -0.7372
13425TIP3    H161766   2.778   1.563   9.090 -0.9357  0.5612 -1.7972
13425TIP3    H261767   2.654   1.491   9.141 -0.5979  0.6040 -0.8913
13426TIP3   OH261768   3.145   2.179  12.276  0.6478 -0.7321  0.0869
13426TIP3    H161769   3.217   2.240  12.291  1.7610 -2.0877  0.4216
13426TIP3    H261770   3.075   2.211  12.334  0.5595  1.1927 -0.9901
13427TIP3   OH261771   4.108   3.020  11.296 -0.3994 -0.1204 -0.6069
13427TIP3    H161772   4.062   3.087  11.246 -1.8708 -1.2057 -0.7657
13427TIP3    H261773   4.066   3.021  11.382  0.0060 -0.3822 -0.4022
13428TIP3   OH261774   0.533   0.674   6.476 -0.3002 -0.0372  0.7169
13428TIP3    H161775   0.611   0.688   6.423 -0.9727  3.2089  0.3482
13428TIP3    H261776   0.555   0.601   6.534  2.3763 -0.2494 -0.4498
13429TIP3   OH261777   3.991   2.949  33.496 -0.8729  0.5174 -0.0581
13429TIP3    H161778   3.964   2.857  33.499 -0.8462  0.3864 -2.1664
13429TIP3    H261779   4.087   2.946  33.503 -0.8027  0.2901 -0.9656
13430TIP3   OH261780   2.205   2.622   2.777 -0.4847 -0.1768 -0.6038
13430TIP3    H161781   2.213   2.697   2.718  2.6619 -1.5968 -2.1983
13430TIP3    H261782   2.200   2.546   2.719 -0.2002 -1.4463  0.9545
13431TIP3   OH261783   4.001   2.108   6.231 -0.4566  0.0664  0.8268
13431TIP3    H161784   4.077   2.166   6.237 -0.3003 -0.0668  0.2479
13431TIP3    H261785   4.015   2.043   6.300 -0.7134  0.7987  1.5850
13432TIP3   OH261786   4.063   0.258  28.253  1.0403 -0.4154  0.2335
13432TIP3    H161787   4.070   0.268  28.158  1.9582 -0.8476  0.2461
13432TIP3    H261788   4.057   0.348  28.286  1.7011 -0.2174 -0.1681
13433TIP3   OH261789   3.278   3.563  40.254 -0.0728 -0.7000 -0.4790
13433TIP3    H161790   3.281   3.523  40.167 -2.1230 -0.4903 -0.7001
13433TIP3    H261791   3.185   3.581  40.269  0.2676 -0.4545  1.6415
13434TIP3   OH261792   4.401   1.908  35.606  0.3124 -0.3595  0.2081
13434TIP3    H161793   4.394   1.926  35.513 -1.5884 -0.8834  0.2056
13434TIP3    H261794   4.314   1.928  35.641  1.4329  1.4263  2.1935
13435TIP3   OH261795   1.622   3.645  41.573  0.3782 -0.1753 -0.0250
13435TIP3    H161796   1.567   3.568  41.561 -0.5207  0.4368  0.1059
13435TIP3    H261797   1.563   3.712  41.604  1.2615  0.4202  0.4055
13436TIP3   OH261798   0.132   1.620  12.231  0.6591  0.0822 -0.2990
13436TIP3    H161799   0.049   1.635  12.185  0.2651  0.6677  0.5781
13436TIP3    H261800   0.106   1.589  12.318  1.2761  2.3449  0.7482
13437TIP3   OH261801   3.889   1.155  24.677 -0.0793 -0.7453 -0.1473
13437TIP3    H161802   3.886   1.115  24.763 -0.1075  2.5668  1.5732
13437TIP3    H261803   3.982   1.169  24.659 -0.1299  1.7539  1.1174
13438TIP3   OH261804   3.429   3.528   1.704  0.4071  0.3626 -0.3198
13438TIP3    H161805   3.434   3.459   1.637 -0.1180 -0.6230  0.6299
13438TIP3    H261806   3.366   3.591   1.668 -2.3291 -1.6749  0.4882
13439TIP3   OH261807   0.842   1.884  40.265  0.0783 -0.5616 -0.6610
13439TIP3    H161808   0.894   1.897  40.344 -0.2811  1.7396 -0.7481
13439TIP3    H261809   0.907   1.878  40.195  0.3188  0.1297 -0.5049
13440TIP3   OH261810   4.257   4.333  29.438 -0.4022  0.4652 -0.3814
13440TIP3    H161811   4.347   4.357  29.414  0.8807 -0.4984  2.9187
13440TIP3    H261812   4.248   4.363  29.528 -3.2257 -0.0058 -0.4384
13441TIP3   OH261813   2.187   4.227  29.982  0.2546  0.2468  0.1832
13441TIP3    H161814   2.190   4.320  30.002  0.9242  0.4133 -0.6261
13441TIP3    H261815   2.095   4.204  29.990 -0.0782  1.2267 -0.6385
13442TIP3   OH261816   3.284   0.135  35.819 -0.6875  0.4588  0.4317
13442TIP3    H161817   3.223   0.102  35.752 -0.4799 -2.3834  1.4982
13442TIP3    H261818   3.363   0.083  35.807 -0.3758  0.4102  2.3845
13443TIP3   OH261819   3.377   2.106   0.814  0.4709 -0.2507 -0.0881
13443TIP3    H161820   3.391   2.194   0.849  1.1570  0.3002 -1.6460
13443TIP3    H261821   3.282   2.098   0.805  0.3697  0.0819  0.6475
13444TIP3   OH261822   0.706   0.505  13.374  0.2119  0.0508  0.6377
13444TIP3    H161823   0.627   0.528  13.424 -1.0072  0.5642 -1.4255
13444TIP3    H261824   0.680   0.514  13.282  2.8244  0.7446 -0.1150
13445TIP3   OH261825   0.187   0.076   8.335 -0.2065  0.2679 -0.1982
13445TIP3    H161826   0.196  -0.010   8.294  1.1876  1.5279 -2.7935
13445TIP3    H261827   0.185   0.058   8.429 -0.5995 -2.6156 -0.6789
13446TIP3   OH261828   3.291   2.454  41.550  0.0275 -0.0112  0.0741
13446TIP3    H161829   3.223   2.521  41.550  0.9117  0.9421 -1.7833
13446TIP3    H261830   3.366   2.496  41.591  0.1311 -0.3725  0.2572
13447TIP3   OH261831   0.590   0.404   6.310  0.0102  0.0977  0.1650
13447TIP3    H161832   0.542   0.352   6.246 -2.5355 -0.5112  2.3900
13447TIP3    H261833   0.599   0.490   6.270  1.2192 -1.0255 -2.1660
13448TIP3   OH261834   1.086   4.128  36.608 -0.0490 -0.1402 -0.5726
13448TIP3    H161835   1.029   4.149  36.681 -0.8591 -0.6704 -1.0387
13448TIP3    H261836   1.065   4.193  36.541  0.6858  0.3397 -0.3505
13449TIP3   OH261837   4.326   3.935  33.008 -0.3348  0.0909  0.0601
13449TIP3    H161838   4.252   3.886  32.973  0.5919  0.1008 -2.0616
13449TIP3    H261839   4.372   3.872  33.065 -1.7108 -0.0211  1.0877
13450TIP3   OH261840   0.465   2.865  39.151  0.4416  0.0161 -0.1107
13450TIP3    H161841   0.447   2.946  39.199  3.7028  2.6067 -2.7886
13450TIP3    H261842   0.424   2.877  39.066 -0.1494 -1.8438 -0.1507
13451TIP3   OH261843   0.945   2.978   1.265  0.2460 -0.0521 -0.0851
13451TIP3    H161844   0.877   2.914   1.246 -1.0998  0.8050  1.5414
13451TIP3    H261845   0.971   2.960   1.355 -3.0558  3.9404  2.0150
13452TIP3   OH261846   0.992   1.965  14.295 -0.1321  0.3325  0.2233
13452TIP3    H161847   1.063   2.019  14.331  0.4978 -1.3640  1.6999
13452TIP3    H261848   0.947   1.931  14.373  1.3785 -3.6657 -0.4095
13453TIP3   OH261849   0.500   1.234  31.816  0.5391 -0.1577 -0.0057
13453TIP3    H161850   0.516   1.140  31.816 -0.2408 -0.2951  0.3784
13453TIP3    H261851   0.460   1.253  31.731 -0.7279 -0.4322  0.5136
13454TIP3   OH261852   4.126   0.129   8.307  0.1537 -0.1429  0.1632
13454TIP3    H161853   4.178   0.198   8.267 -0.4288 -0.0032 -0.3703
13454TIP3    H261854   4.121   0.152   8.400  0.0482  0.4792  0.0057
13455TIP3   OH261855   1.989   2.421  29.490 -0.0764  0.6263 -0.2758
13455TIP3    H161856   1.912   2.471  29.464 -0.2473  0.2796 -0.4503
13455TIP3    H261857   2.050   2.432  29.417  0.0189  0.8563 -0.1630
13456TIP3   OH261858   2.647   1.878   1.192 -0.3581 -0.1392  0.0877
13456TIP3    H161859   2.630   1.936   1.266 -3.9840  0.0096 -0.7015
13456TIP3    H261860   2.695   1.804   1.229  1.9157  1.9591  1.6261
13457TIP3   OH261861   2.758   4.378   2.471  0.2432  0.0136 -0.0843
13457TIP3    H161862   2.842   4.340   2.496 -0.6029 -1.9924 -0.1005
13457TIP3    H261863   2.707   4.305   2.438 -1.4749  1.2041 -0.2276
13458TIP3   OH261864   4.128   2.125   9.644  0.7503 -0.4290  0.5875
13458TIP3    H161865   4.210   2.095   9.683  0.8415  0.4099  1.0854
13458TIP3    H261866   4.120   2.215   9.675  0.1604 -0.1680 -0.3016
13459TIP3   OH261867   0.351   2.691  32.390 -0.3087  0.0561  0.0829
13459TIP3    H161868   0.352   2.610  32.441 -1.4928 -0.7360 -1.0831
13459TIP3    H261869   0.436   2.692  32.345 -0.4552 -0.7996 -0.2438
13460TIP3   OH261870   1.838   1.609  13.311  0.3819 -0.1149 -0.0750
13460TIP3    H161871   1.877   1.553  13.244  0.7926 -1.8110  1.4905
13460TIP3    H261872   1.907   1.669  13.337  1.6712 -2.2104  1.7138
13461TIP3   OH261873   3.412   3.913  33.534  0.1462  0.2725  0.1285
13461TIP3    H161874   3.420   3.828  33.492 -1.2750  0.7694 -1.2580
13461TIP3    H261875   3.341   3.902  33.598  0.8589  0.0844  0.9025
13462TIP3   OH261876   2.596   3.107  33.178  0.1233 -0.5629 -0.4680
13462TIP3    H161877   2.509   3.135  33.147  0.8287  2.9148  0.2705
13462TIP3    H261878   2.655   3.128  33.106  0.6406 -0.6728 -0.0796
13463TIP3   OH261879   0.187   3.460  33.883  0.7871 -0.0824  0.7433
13463TIP3    H161880   0.185   3.380  33.832  0.5312 -0.0864  0.7554
13463TIP3    H261881   0.272   3.459  33.927  0.8987 -0.2081  0.5263
13464TIP3   OH261882   1.048   3.847  26.627 -0.0399 -0.0873 -0.1513
13464TIP3    H161883   1.078   3.760  26.601  2.4076 -0.0322  2.1095
13464TIP3    H261884   0.957   3.834  26.653  0.3303 -2.0610  0.3399
13465TIP3   OH261885   1.143   3.412  35.937 -0.1233  0.0401 -0.8472
13465TIP3    H161886   1.191   3.483  35.979 -2.2935  0.8988  0.3146
13465TIP3    H261887   1.160   3.335  35.992 -0.9711  0.5992  0.2136
13466TIP3   OH261888   1.851   0.656   5.373  0.5628  0.3729 -0.3832
13466TIP3    H161889   1.867   0.611   5.290  0.3988  0.4071 -0.4325
13466TIP3    H261890   1.938   0.664   5.413  0.4702 -1.0163  0.1557
13467TIP3   OH261891   4.071   2.039   1.307 -0.4453 -0.2264 -0.0542
13467TIP3    H161892   4.036   1.968   1.252  0.5352 -0.2693 -0.6486
13467TIP3    H261893   4.145   1.999   1.352 -0.3391  0.2244  0.1657
13468TIP3   OH261894   0.126   4.261   1.761 -0.2087 -0.7019  0.3529
13468TIP3    H161895   0.208   4.225   1.726 -0.0867 -0.8838  0.8187
13468TIP3    H261896   0.148   4.352   1.782 -0.6003 -0.2535 -1.1055
13469TIP3   OH261897   0.923   3.733  37.627  0.5301 -0.5377  0.2386
13469TIP3    H161898   0.845   3.720  37.574  0.3597 -0.7331  0.5360
13469TIP3    H261899   0.892   3.728  37.718  1.0591 -1.6937  0.3663
13470TIP3   OH261900   4.091   0.919  25.953  0.0275 -0.2048 -0.5347
13470TIP3    H161901   4.075   0.841  26.007 -1.6756  0.4252 -0.0721
13470TIP3    H261902   4.128   0.884  25.872 -0.5458 -1.4895 -0.2803
13471TIP3   OH261903   1.349   2.892  16.406  0.5363  0.3630 -0.1858
13471TIP3    H161904   1.289   2.942  16.351 -0.5901  0.8208  1.3917
13471TIP3    H261905   1.365   2.811  16.358 -0.1529  0.8761 -1.3182
13472TIP3   OH261906   0.098   1.784   4.537  0.5844 -0.1741 -0.1071
13472TIP3    H161907   0.178   1.815   4.581  0.8608  0.1808 -0.8462
13472TIP3    H261908   0.029   1.793   4.603  1.0894 -0.1439  0.4248
13473TIP3   OH261909   2.046   3.322  12.075  0.0842  0.6254  0.0838
13473TIP3    H161910   1.990   3.399  12.080  2.2865  2.2863  3.5222
13473TIP3    H261911   2.094   3.332  11.993  0.9155  3.5552  0.7940
13474TIP3   OH261912   0.197   2.406   8.473 -0.5376  0.2102  0.3868
13474TIP3    H161913   0.132   2.348   8.513  0.1520 -1.6362 -1.0360
13474TIP3    H261914   0.265   2.347   8.441 -1.1748  1.4238 -3.7851
13475TIP3   OH261915   2.538   3.909  31.486 -0.1471  0.2151 -0.2332
13475TIP3    H161916   2.537   3.997  31.522 -1.1529 -0.6992  2.2348
13475TIP3    H261917   2.630   3.892  31.466 -0.0446  2.0673 -1.5843
13476TIP3   OH261918   2.771   1.241   8.061 -0.4581 -0.0095 -0.1137
13476TIP3    H161919   2.690   1.261   8.108  0.0389  0.7628  0.4564
13476TIP3    H261920   2.809   1.167   8.109 -1.3999 -1.1612 -1.1087
13477TIP3   OH261921   0.934   1.929  30.213  0.6547  0.6985  0.0671
13477TIP3    H161922   0.931   1.902  30.305 -1.8563 -1.3258 -0.4808
13477TIP3    H261923   0.850   1.975  30.199  0.8525  0.7009 -1.2794
13478TIP3   OH261924   2.507   1.637  38.777 -0.0799  0.1635  0.1893
13478TIP3    H161925   2.464   1.621  38.861 -1.1709 -1.2975 -0.6001
13478TIP3    H261926   2.592   1.674  38.800 -0.9523  1.2398  1.8686
13479TIP3   OH261927   2.220   0.855   7.631 -0.2799 -0.4829  0.9001
13479TIP3    H161928   2.211   0.780   7.571  0.7241 -1.3908  1.8554
13479TIP3    H261929   2.203   0.818   7.718  1.7522  0.0269  1.5703
13480TIP3   OH261930   0.047   2.198   6.876  0.0004 -0.4388 -0.3265
13480TIP3    H161931   0.025   2.228   6.788 -0.6317  0.6813  0.1942
13480TIP3    H261932   0.061   2.278   6.926  3.0716 -1.0246 -0.0203
13481TIP3   OH261933   1.077   1.102  10.413  0.5861  0.0646  0.1474
13481TIP3    H161934   1.136   1.149  10.355  2.1982 -0.7563  1.0516
13481TIP3    H261935   1.056   1.021  10.367  1.9300 -0.6241  0.6850
13482TIP3   OH261936   0.616   3.784  31.025 -0.2191  0.2078 -0.0497
13482TIP3    H161937   0.627   3.771  31.120  0.4570 -0.5900 -0.2253
13482TIP3    H261938   0.655   3.870  31.008 -0.0643  0.2189  0.3455
13483TIP3   OH261939   1.024   4.376  32.774 -0.3028 -0.3596  0.8708
13483TIP3    H161940   1.076   4.303  32.743  0.4369 -0.7955  2.9874
13483TIP3    H261941   1.086   4.448  32.785 -0.7890  0.2039  0.1466
13484TIP3   OH261942   3.979   3.336   7.941 -0.5783  0.2037  0.4158
13484TIP3    H161943   4.006   3.245   7.926  1.1385  0.8733 -0.8509
13484TIP3    H261944   3.960   3.370   7.854 -0.4962  1.2742  0.8089
13485TIP3   OH261945   0.316   2.388  31.030 -0.3531  0.3024  0.2743
13485TIP3    H161946   0.270   2.463  31.068 -0.1890  0.4686  0.1470
13485TIP3    H261947   0.264   2.312  31.056 -0.5465  0.4649  0.3631
13486TIP3   OH261948   0.032   2.833  13.107 -0.6642 -0.5636  0.6693
13486TIP3    H161949   0.022   2.909  13.164  1.1186 -0.3671  0.7841
13486TIP3    H261950   0.067   2.764  13.164  1.2926 -0.3136 -0.1675
13487TIP3   OH261951   1.123   0.565   4.231  0.5250  0.3561  0.0674
13487TIP3    H161952   1.207   0.534   4.266 -0.0287 -0.5050  0.6514
13487TIP3    H261953   1.091   0.492   4.178 -0.8322 -0.1389  1.5186
13488TIP3   OH261954   2.115   1.715  37.588 -0.0337  0.4553  0.0260
13488TIP3    H161955   2.205   1.685  37.584 -0.2501 -0.1893 -0.1613
13488TIP3    H261956   2.089   1.727  37.497 -0.3875 -0.1331  0.0452
13489TIP3   OH261957   0.007   4.091   2.367  0.4482 -0.2718  0.4380
13489TIP3    H161958   0.010   3.996   2.359  0.2548 -0.1841 -0.8346
13489TIP3    H261959   0.085   4.113   2.419  1.1716 -1.0279 -0.2897
13490TIP3   OH261960   1.992   2.906  27.005  0.6055 -0.6659  0.5053
13490TIP3    H161961   2.077   2.946  27.023  0.1645  0.5025  0.1365
13490TIP3    H261962   1.988   2.830  27.062  1.8029 -0.6117  0.6907
13491TIP3   OH261963   2.231   2.243  27.754  0.8393  0.2546  0.0002
13491TIP3    H161964   2.173   2.225  27.829  0.0891  1.7550 -0.1834
13491TIP3    H261965   2.315   2.203  27.779  1.0127  1.8150  2.2490
13492TIP3   OH261966   3.327   0.117  29.617  0.1959  0.4852  0.1998
13492TIP3    H161967   3.397   0.171  29.583  1.2738 -0.4655  0.8474
13492TIP3    H261968   3.269   0.179  29.662  0.2266  1.3665 -0.9249
13493TIP3   OH261969   1.900   4.141  16.293 -0.3197 -0.4513 -0.2092
13493TIP3    H161970   1.861   4.144  16.206  0.5393 -2.0260 -0.6913
13493TIP3    H261971   1.829   4.114  16.351 -1.0366  1.1518 -0.2963
13494TIP3   OH261972   2.563   3.835  37.581 -0.0068  0.0376 -0.2541
13494TIP3    H161973   2.616   3.876  37.512 -0.6968  0.2051 -0.7036
13494TIP3    H261974   2.494   3.900  37.599 -1.4476 -1.1043 -1.3599
13495TIP3   OH261975   0.220   0.485   6.516  0.4448 -0.6892  0.1677
13495TIP3    H161976   0.134   0.463   6.553  0.2628 -1.3335 -0.5973
13495TIP3    H261977   0.222   0.439   6.432  1.4090 -0.4091  0.0233
13496TIP3   OH261978   0.308   3.239  34.554  0.2688 -0.1421  0.3013
13496TIP3    H161979   0.253   3.232  34.476  0.6352 -2.5914  0.1693
13496TIP3    H261980   0.251   3.216  34.627  0.3616  0.4171  0.5570
13497TIP3   OH261981   0.878   0.249  27.941  0.1814 -0.3370 -0.0177
13497TIP3    H161982   0.889   0.215  27.852  0.8449  0.6439 -0.3241
13497TIP3    H261983   0.952   0.308  27.954 -0.8689  0.9107  0.5288
13498TIP3   OH261984   1.877   0.682  27.942 -0.3782  0.4650 -0.5852
13498TIP3    H161985   1.818   0.607  27.942 -0.1451  0.2592 -2.0234
13498TIP3    H261986   1.884   0.707  28.035 -0.4286 -1.2999 -0.0685
13499TIP3   OH261987   1.638   4.254   7.401  0.1115 -0.2925 -0.1746
13499TIP3    H161988   1.586   4.224   7.326 -0.5045 -0.4342  0.2949
13499TIP3    H261989   1.670   4.340   7.375 -1.0091  0.1467 -0.1918
13500TIP3   OH261990   3.804   3.830  24.930 -0.8894 -0.3564 -0.2255
13500TIP3    H161991   3.840   3.781  25.004 -0.9850  1.1157  0.8413
13500TIP3    H261992   3.825   3.921  24.950 -1.8942  0.1727 -1.4725
13501TIP3   OH261993   4.021   0.355   3.590 -0.2114 -0.1753  0.1416
13501TIP3    H161994   4.049   0.395   3.508  0.0353 -0.7008 -0.0346
13501TIP3    H261995   4.094   0.298   3.615 -1.1762 -1.7195 -0.4108
13502TIP3   OH261996   0.080   2.859  35.636  0.1165 -0.5422 -0.2606
13502TIP3    H161997   0.032   2.873  35.555  0.5577  0.4879 -0.3629
13502TIP3    H261998   0.028   2.903  35.703 -0.8658 -2.3816  0.2595
13503TIP3   OH261999   3.003   2.540  28.885  0.0447 -0.5616 -0.8626
13503TIP3    H162000   2.978   2.631  28.901 -2.3446 -0.9043 -2.2517
13503TIP3    H262001   3.017   2.535  28.791  0.0915 -1.6623 -0.8087
13504TIP3   OH262002   1.409   1.893  18.620 -0.0054  0.2337 -0.1118
13504TIP3    H162003   1.374   1.980  18.642 -0.0760  0.0394  0.5547
13504TIP3    H262004   1.343   1.832  18.651  1.3400 -0.1865  2.1327
13505TIP3   OH262005   0.741   0.189  12.223 -0.7535 -0.0939  0.2894
13505TIP3    H162006   0.791   0.245  12.164 -2.1994  0.5833 -0.3377
13505TIP3    H262007   0.798   0.114  12.239  0.3683  0.5461 -0.5492
13506TIP3   OH262008   0.324   0.524  35.081  0.0522 -0.3488 -0.2832
13506TIP3    H162009   0.356   0.523  34.991  1.0964  0.3970  0.0576
13506TIP3    H262010   0.385   0.582  35.127  1.3112 -2.9977  1.5819
13507TIP3   OH262011   2.303   1.246  27.048  0.2410  0.0259 -0.2608
13507TIP3    H162012   2.291   1.159  27.085  0.8551  0.1012  0.1170
13507TIP3    H262013   2.281   1.306  27.120  0.3382  0.1821 -0.3612
13508TIP3   OH262014   4.000   2.743  39.570  0.6136 -0.2819  0.1314
13508TIP3    H162015   3.952   2.817  39.609 -0.0763 -1.0098  0.7054
13508TIP3    H262016   4.077   2.783  39.529 -1.1547  1.1222 -2.0549
13509TIP3   OH262017   4.262   3.000   9.626 -0.3407  0.4741  0.2383
13509TIP3    H162018   4.169   2.989   9.604  0.5498 -2.5902 -2.8321
13509TIP3    H262019   4.282   2.926   9.683  0.7111 -0.4242 -1.2393
13510TIP3   OH262020   1.650   4.327  13.142 -0.0083 -0.3241  0.1144
13510TIP3    H162021   1.599   4.303  13.220 -0.3540 -0.7117 -0.2281
13510TIP3    H262022   1.735   4.285  13.157  0.5015  0.9685  1.0542
13511TIP3   OH262023   1.180   0.811  34.039 -0.1330  0.1856  0.3686
13511TIP3    H162024   1.208   0.744  33.977  2.4886 -0.6885  2.3226
13511TIP3    H262025   1.115   0.768  34.094 -1.5755  0.6072 -0.9371
13512TIP3   OH262026   1.854   2.363   2.012  0.0274 -0.0064 -0.3671
13512TIP3    H162027   1.761   2.358   1.989  0.3514 -0.8649 -1.5808
13512TIP3    H262028   1.881   2.450   1.982 -0.7210  0.9292  1.4785
13513TIP3   OH262029   3.351   1.699  36.223  0.1280  0.3467  0.2269
13513TIP3    H162030   3.330   1.791  36.240 -0.6825  0.3900 -0.8899
13513TIP3    H262031   3.268   1.660  36.195  0.6218 -0.5396 -0.0482
13514TIP3   OH262032   2.010   2.142  39.550 -0.4272 -0.1720  0.6382
13514TIP3    H162033   2.004   2.129  39.455 -1.6013 -0.3921  0.7226
13514TIP3    H262034   2.104   2.134  39.569 -0.2682 -1.0908 -0.3752
13515TIP3   OH262035   3.649   2.223  28.624  0.5921 -0.2613 -0.0338
13515TIP3    H162036   3.696   2.182  28.697  1.0045  1.8750  0.9846
13515TIP3    H262037   3.682   2.313  28.622 -1.2759  0.4499 -1.2329
13516TIP3   OH262038   3.081   3.619   3.394  0.1659  0.5009 -0.1423
13516TIP3    H162039   3.009   3.651   3.339 -1.1755 -1.8441  0.1231
13516TIP3    H262040   3.156   3.672   3.367 -0.8306  0.6899 -2.9582
13517TIP3   OH262041   3.884   3.421  40.194 -0.1948  0.3206  0.4013
13517TIP3    H162042   3.948   3.386  40.256  1.7401  0.9804 -1.1361
13517TIP3    H262043   3.827   3.346  40.174  2.2815 -1.3456 -0.8599
13518TIP3   OH262044   0.469   0.091   7.110 -0.1669  0.1847  0.2102
13518TIP3    H162045   0.413   0.168   7.124 -0.6268 -0.1685  0.3537
13518TIP3    H262046   0.517   0.111   7.030 -0.9743  0.2321 -0.2807
13519TIP3   OH262047   1.370   3.659  28.403  0.2383 -0.0176 -0.1144
13519TIP3    H162048   1.362   3.702  28.318 -0.2302 -0.3728 -0.2593
13519TIP3    H262049   1.326   3.718  28.464 -0.7491 -0.4605 -0.3791
13520TIP3   OH262050   0.404   0.033  29.296  0.5873  0.3390 -0.3007
13520TIP3    H162051   0.410   0.061  29.204 -1.2713  0.0155 -0.5697
13520TIP3    H262052   0.324  -0.019  29.299 -0.5401  2.0456  1.9395
13521TIP3   OH262053   0.223   4.347  23.769 -0.1970  0.2392  0.3288
13521TIP3    H162054   0.181   4.430  23.746  1.7055  1.5431  1.2299
13521TIP3    H262055   0.208   4.338  23.863 -1.4469 -1.1140  0.0277
13522TIP3   OH262056   0.698   1.259  21.577 -0.0988  0.0819  0.3150
13522TIP3    H162057   0.645   1.181  21.595  0.4855 -0.5894 -0.6990
13522TIP3    H262058   0.727   1.247  21.486 -0.9908  2.0952 -0.2837
13523TIP3   OH262059   1.215   3.647  13.444 -0.2958  0.2973  0.5434
13523TIP3    H162060   1.187   3.696  13.368  0.7435 -0.8373 -0.6291
13523TIP3    H262061   1.296   3.690  13.472 -0.2457  0.2278  0.5066
13524TIP3   OH262062   2.245   2.673  40.243  0.1068  0.4366 -0.6271
13524TIP3    H162063   2.245   2.743  40.308  0.1473 -0.1511  0.0241
13524TIP3    H262064   2.173   2.615  40.269  1.4231 -0.9306  0.1612
13525TIP3   OH262065   0.244   1.131  22.176 -0.0033  0.3013 -0.7684
13525TIP3    H162066   0.192   1.069  22.227 -0.6994  2.3953  1.2425
13525TIP3    H262067   0.335   1.112  22.200 -0.3390  1.4632  1.6060
13526TIP3   OH262068   0.993   2.281  10.348 -0.4216 -0.0961  0.2372
13526TIP3    H162069   0.977   2.342  10.419  0.7031 -1.1131  1.4068
13526TIP3    H262070   1.081   2.247  10.364 -0.4776 -0.9994 -1.1494
13527TIP3   OH262071   0.527   3.573  40.758  0.0833  0.1683 -0.1069
13527TIP3    H162072   0.566   3.521  40.688 -3.0374 -2.0414 -0.3770
13527TIP3    H262073   0.467   3.633  40.714 -0.3154  0.2669  0.5624
13528TIP3   OH262074   0.671   1.812  30.025  0.2122 -0.2657  0.6528
13528TIP3    H162075   0.612   1.881  29.994 -1.4354  0.2478  4.3208
13528TIP3    H262076   0.738   1.805  29.957 -2.9628  0.4359 -2.9198
13529TIP3   OH262077   0.527   3.312  11.838  0.0514  0.8560 -0.3522
13529TIP3    H162078   0.562   3.358  11.914  1.4549 -1.8273  0.7763
13529TIP3    H262079   0.539   3.372  11.765 -0.5237  3.1790  1.3538
13530TIP3   OH262080   4.217   0.167   3.977 -0.3028 -0.3616  0.4947
13530TIP3    H162081   4.288   0.112   3.947 -0.5323 -0.7232  0.6102
13530TIP3    H262082   4.204   0.142   4.069 -1.0223 -0.7753  0.2895
13531TIP3   OH262083   4.345   2.679  13.447 -0.5175  0.0024  0.3946
13531TIP3    H162084   4.340   2.774  13.436 -1.4400  0.1968  2.1818
13531TIP3    H262085   4.404   2.666  13.522  0.8677 -0.9419 -0.7985
13532TIP3   OH262086   3.233   0.869  11.884  0.5303  0.0230  0.2547
13532TIP3    H162087   3.164   0.932  11.902  0.0494 -0.5479  0.4596
13532TIP3    H262088   3.306   0.895  11.940  0.6870  0.9631 -0.3751
13533TIP3   OH262089   0.230   2.583  31.699  0.2252  0.3050 -0.2361
13533TIP3    H162090   0.268   2.606  31.784 -2.1542  2.5062  0.3760
13533TIP3    H262091   0.278   2.636  31.636 -0.1550  1.2209  0.2152
13534TIP3   OH262092   0.389   2.642   3.044  0.5861 -0.0201 -0.5448
13534TIP3    H162093   0.485   2.633   3.050  0.7419  0.5544 -1.8365
13534TIP3    H262094   0.362   2.568   2.990  0.1259 -0.8894  0.8250
13535TIP3   OH262095   4.254   0.779  27.797 -0.6607  0.3319  0.0265
13535TIP3    H162096   4.231   0.703  27.743  0.4497  0.0838 -0.1162
13535TIP3    H262097   4.323   0.748  27.855  0.1813  1.3452 -0.3859
13536TIP3   OH262098   2.173   3.948  35.908 -0.5029  0.1331  1.0082
13536TIP3    H162099   2.216   3.868  35.937 -0.3950 -0.1654  0.0466
13536TIP3    H262100   2.150   3.931  35.817 -2.2282  0.4683  1.3566
13537TIP3   OH262101   0.879   1.180   6.664 -0.0732  0.4131  0.0417
13537TIP3    H162102   0.867   1.274   6.676 -0.2925  0.1333  2.4971
13537TIP3    H262103   0.943   1.155   6.731 -1.0696 -1.4001  0.3840
13538TIP3   OH262104   4.168   2.761  41.420  0.7697 -0.4253  0.1031
13538TIP3    H162105   4.160   2.750  41.515 -1.7763  1.1792  0.1762
13538TIP3    H262106   4.203   2.849  41.409  0.0932 -0.2185 -0.4406
13539TIP3   OH262107   3.323   3.668  11.812 -0.4927  0.2177  0.7864
13539TIP3    H162108   3.240   3.627  11.837 -1.2810  1.2368 -0.0419
13539TIP3    H262109   3.376   3.664  11.891 -0.5217 -2.3307  0.7343
13540TIP3   OH262110   1.110   2.499  29.789 -0.4740 -0.3747 -0.0793
13540TIP3    H162111   1.128   2.543  29.873  0.6228 -1.6464  0.3913
13540TIP3    H262112   1.031   2.447  29.806 -0.1182 -0.8187  0.2617
13541TIP3   OH262113   1.631   3.451  15.966  0.0370 -0.2985  0.4862
13541TIP3    H162114   1.601   3.533  15.925 -1.9792 -1.2995 -0.1869
13541TIP3    H262115   1.578   3.444  16.045  1.3804 -0.1714  1.4266
13542TIP3   OH262116   2.500   4.279   3.608 -0.3696 -0.3838 -0.3084
13542TIP3    H162117   2.568   4.239   3.553  1.5430  0.4596  1.2980
13542TIP3    H262118   2.489   4.367   3.572  0.7507  0.1067  0.5098
13543TIP3   OH262119   1.233   0.962  30.845 -0.8006  0.2232 -0.1923
13543TIP3    H162120   1.217   0.915  30.763 -1.3030  1.5013 -0.8640
13543TIP3    H262121   1.310   0.920  30.882  0.2521  0.4472 -1.9893
13544TIP3   OH262122   2.475   3.819   5.801 -0.3090 -0.0222 -0.1453
13544TIP3    H162123   2.503   3.906   5.829 -1.7759  0.2993  0.4000
13544TIP3    H262124   2.394   3.834   5.752 -0.4363 -1.0574 -0.2724
13545TIP3   OH262125   1.628   2.447  13.931 -0.3942  0.1571  0.3153
13545TIP3    H162126   1.714   2.486  13.914  0.1090 -0.3097  1.6162
13545TIP3    H262127   1.566   2.519  13.918  0.3096  0.8265  0.5711
13546TIP3   OH262128   1.365   0.263   2.893  0.1295  0.3810  0.0128
13546TIP3    H162129   1.303   0.215   2.949  1.3273 -0.7256  0.4486
13546TIP3    H262130   1.433   0.199   2.873  0.1072  0.9606 -2.1681
13547TIP3   OH262131   0.965   3.497  16.185 -0.4015 -1.2561  0.2170
13547TIP3    H162132   0.998   3.585  16.197 -0.0361 -1.4220  0.4496
13547TIP3    H262133   0.876   3.499  16.221 -1.3564 -0.3464 -2.0239
13548TIP3   OH262134   0.050   1.627   5.202  0.2901 -0.0488 -0.6502
13548TIP3    H162135   0.115   1.572   5.159  1.8331  0.8761  0.4083
13548TIP3    H262136   0.020   1.687   5.134  1.3930  0.2542 -0.8844
13549TIP3   OH262137   1.707   2.335   4.511  0.1640  0.1261  0.1957
13549TIP3    H162138   1.616   2.352   4.534  0.3694  1.3510  0.1530
13549TIP3    H262139   1.754   2.414   4.538  0.6987  0.9244 -2.7364
13550TIP3   OH262140   4.044   0.189  29.870  0.2012 -0.6171  0.8030
13550TIP3    H162141   4.040   0.284  29.883  0.7772 -0.3278 -0.9635
13550TIP3    H262142   3.975   0.155  29.928 -0.4146  0.9112  1.0317
13551TIP3   OH262143   4.089   3.762  28.034  0.1493 -0.3493 -0.0563
13551TIP3    H162144   4.135   3.819  28.095  0.7912 -1.9165  0.9784
13551TIP3    H262145   4.089   3.811  27.951  1.3862  0.7844  0.5711
13552TIP3   OH262146   1.978   3.670  12.728  0.3803  0.3374 -0.2155
13552TIP3    H162147   2.066   3.671  12.689 -0.6791  0.0656 -2.8093
13552TIP3    H262148   1.947   3.581  12.713 -1.7204  1.3914 -2.8844
13553TIP3   OH262149   1.181   4.040   1.577 -0.1814  0.0583  0.2382
13553TIP3    H162150   1.119   4.101   1.617 -0.6504 -0.9403  1.0847
13553TIP3    H262151   1.255   4.038   1.637 -1.6399 -2.8110  2.1726
13554TIP3   OH262152   3.485   1.159  38.713 -0.1635  0.4271  0.5260
13554TIP3    H162153   3.484   1.067  38.739 -0.0606  0.6008  1.1484
13554TIP3    H262154   3.568   1.170  38.666  0.0100  0.3015  0.8055
13555TIP3   OH262155   2.025   3.405  18.290 -0.0913  0.2224 -0.2978
13555TIP3    H162156   1.964   3.332  18.277  1.2982 -1.3476  1.4233
13555TIP3    H262157   2.111   3.363  18.301  0.5687  1.9544  2.1864
13556TIP3   OH262158   1.541   1.374   3.672 -0.5207  0.3396  0.0575
13556TIP3    H162159   1.518   1.467   3.674 -0.7695  0.3266 -1.2536
13556TIP3    H262160   1.457   1.328   3.667 -0.5723 -0.1363  3.2246
13557TIP3   OH262161   2.170   4.196  38.056 -0.4098  0.4815 -0.1500
13557TIP3    H162162   2.149   4.130  37.990 -1.6715 -0.2695  0.9567
13557TIP3    H262163   2.252   4.167  38.095 -0.0548  0.5191 -0.8629
13558TIP3   OH262164   1.637   2.092  35.433 -0.0086  0.1310  0.0974
13558TIP3    H162165   1.606   2.172  35.390  0.6447  0.4076  0.1174
13558TIP3    H262166   1.585   2.022  35.395 -0.2645  0.5141 -0.2692
13559TIP3   OH262167   0.910   4.085  35.295  0.2369 -0.0333 -0.2208
13559TIP3    H162168   0.985   4.060  35.241  0.0923 -1.0809  0.0531
13559TIP3    H262169   0.877   4.003  35.331  0.9033  0.6671  2.2385
13560TIP3   OH262170   3.556   2.794   6.517 -0.8083 -0.0792  0.4022
13560TIP3    H162171   3.557   2.761   6.607 -2.4718 -1.0266  0.1007
13560TIP3    H262172   3.628   2.748   6.474  0.9594  1.4557  1.5681
13561TIP3   OH262173   0.257   3.895  30.430  0.1918 -0.1427 -0.5787
13561TIP3    H162174   0.238   3.981  30.467 -1.3659 -0.3974 -0.7409
13561TIP3    H262175   0.346   3.904  30.394  1.2352  0.5119  1.9378
13562TIP3   OH262176   4.157   0.138  29.294  0.0783 -0.0301 -0.3526
13562TIP3    H162177   4.064   0.139  29.275 -0.6124  3.4701  2.1838
13562TIP3    H262178   4.171   0.057  29.343 -1.9314 -0.0530  0.2471
13563TIP3   OH262179   0.537   1.353  30.625  0.6383 -0.0022  0.0884
13563TIP3    H162180   0.544   1.288  30.694 -1.1182  1.3249  1.6154
13563TIP3    H262181   0.451   1.394  30.638 -0.0249 -0.0192 -3.2221
13564TIP3   OH262182   1.275   2.530  18.020 -0.3096 -0.0520  0.2653
13564TIP3    H162183   1.221   2.520  17.942 -0.9708  1.9154  0.4184
13564TIP3    H262184   1.346   2.588  17.993 -0.3997  0.4337  1.0496
13565TIP3   OH262185   0.469   0.808  37.970  0.0178  0.3849 -0.1132
13565TIP3    H162186   0.433   0.807  38.059 -1.9722  2.5842 -0.7771
13565TIP3    H262187   0.475   0.901  37.948  0.1044 -0.1012 -2.4202
13566TIP3   OH262188   1.715   3.458   3.873  0.7261  0.0211  0.5530
13566TIP3    H162189   1.644   3.395   3.859 -0.9779  2.0264 -0.5092
13566TIP3    H262190   1.731   3.454   3.967  0.8099 -2.0833  0.4924
13567TIP3   OH262191   0.778   0.678  41.627  0.1937 -0.3649  0.2603
13567TIP3    H162192   0.764   0.676  41.532  1.3204 -2.1149  0.0900
13567TIP3    H262193   0.705   0.627  41.663  0.5492 -0.9385  0.1900
13568TIP3   OH262194   3.806   0.350  32.639 -0.0461  0.2919 -0.0039
13568TIP3    H162195   3.782   0.419  32.700  1.6809  0.9233  0.0026
13568TIP3    H262196   3.892   0.321  32.667  0.4493  0.0561 -1.6584
13569TIP3   OH262197   0.512   2.193  13.209 -0.0850 -0.1376 -0.3014
13569TIP3    H162198   0.530   2.102  13.230  1.3634  0.0025 -0.7734
13569TIP3    H262199   0.469   2.228  13.287 -1.0805 -1.3191 -0.2928
13570TIP3   OH262200   1.218   0.824  39.355  0.5766 -0.3497 -0.3847
13570TIP3    H162201   1.299   0.876  39.350  1.7828 -2.2188 -1.7404
13570TIP3    H262202   1.248   0.734  39.348 -1.4485 -1.2800  1.7596
13571TIP3   OH262203   2.501   2.948  28.146  0.5058 -0.1752 -0.1964
13571TIP3    H162204   2.503   3.020  28.083 -0.6382 -0.9731 -1.1805
13571TIP3    H262205   2.483   2.990  28.230 -1.6096  0.5865 -0.9733
13572TIP3   OH262206   1.922   3.846  12.924  0.4672 -0.1138 -0.4229
13572TIP3    H162207   1.978   3.917  12.891  2.1410 -1.3695 -0.4433
13572TIP3    H262208   1.959   3.767  12.886  0.2044 -1.2529  1.5462
13573TIP3   OH262209   0.232   1.181  21.663  0.3644 -0.0467 -0.4542
13573TIP3    H162210   0.147   1.218  21.639 -0.0246 -1.4718 -1.4127
13573TIP3    H262211   0.276   1.252  21.710 -1.1507  0.8895 -0.3525
13574TIP3   OH262212   0.380   2.752  31.533  0.0666 -0.0521 -0.0479
13574TIP3    H162213   0.432   2.733  31.455  0.1875 -0.1850  0.0662
13574TIP3    H262214   0.362   2.846  31.527 -0.8726 -0.2651 -0.8201
13575TIP3   OH262215   2.507   1.371   1.019  0.1026  0.2677  0.2762
13575TIP3    H162216   2.566   1.444   1.002  1.0927 -0.5095  0.2944
13575TIP3    H262217   2.557   1.293   0.994 -1.3224 -0.3560 -0.8133
13576TIP3   OH262218   4.398   0.635  21.931 -0.4158  0.5109  0.0631
13576TIP3    H162219   4.363   0.710  21.883 -1.0378 -0.3287 -0.8222
13576TIP3    H262220   4.324   0.575  21.939 -0.4098  0.7474  2.3654
13577TIP3   OH262221   3.933   1.729  13.391 -0.1803 -0.0689 -0.4019
13577TIP3    H162222   3.887   1.811  13.373 -2.2834 -1.3497 -1.2017
13577TIP3    H262223   4.018   1.757  13.426 -1.0234  2.4317 -0.1194
13578TIP3   OH262224   3.574   3.745   9.062 -0.2576  0.1593 -0.0372
13578TIP3    H162225   3.480   3.732   9.049 -0.0539 -0.8913 -0.5439
13578TIP3    H262226   3.607   3.659   9.090  0.9662 -0.2491 -2.4486
13579TIP3   OH262227   2.689   1.764   1.909 -0.8918 -0.0954  0.6980
13579TIP3    H162228   2.600   1.771   1.941 -0.6743  2.0014  1.0264
13579TIP3    H262229   2.744   1.763   1.988 -0.5954 -0.5579  0.4898
13580TIP3   OH262230   1.528   3.276   2.582 -0.1758  0.7629  0.2942
13580TIP3    H162231   1.567   3.335   2.647 -0.3596 -1.5419  2.6748
13580TIP3    H262232   1.475   3.215   2.634 -0.3341 -1.2338 -2.0339
13581TIP3   OH262233   3.563   2.561  33.888  0.4177 -0.2215 -0.4972
13581TIP3    H162234   3.524   2.628  33.832 -1.4977  0.3786  1.3941
13581TIP3    H262235   3.536   2.478  33.848 -2.9820  0.1673  0.6713
13582TIP3   OH262236   3.535   0.032   2.510  0.3904 -0.6441 -0.3185
13582TIP3    H162237   3.510   0.067   2.424 -0.1038 -0.6729 -0.1869
13582TIP3    H262238   3.589  -0.045   2.489  0.7789 -0.2981 -0.6022
13583TIP3   OH262239   0.524   0.987   1.085  0.6429 -0.8855  0.5643
13583TIP3    H162240   0.587   0.999   1.156  0.4073  0.3268  0.5961
13583TIP3    H262241   0.477   0.907   1.108  1.1731 -0.9934  1.3144
13584TIP3   OH262242   2.750   4.239   9.322  0.4078 -0.3428  0.5199
13584TIP3    H162243   2.718   4.205   9.238  0.2658  1.3743 -0.1537
13584TIP3    H262244   2.843   4.256   9.307  0.6359 -1.0509  1.0678
13585TIP3   OH262245   1.089   2.382   5.946  0.3296 -1.0498  0.0732
13585TIP3    H162246   1.081   2.370   6.041 -0.8729  0.2284  0.1607
13585TIP3    H262247   1.148   2.456   5.937 -0.6411 -0.2949 -0.1303
13586TIP3   OH262248   0.448   3.468  38.960 -0.1173  0.0781  0.2562
13586TIP3    H162249   0.428   3.374  38.963  0.8376 -0.1416  0.0104
13586TIP3    H262250   0.541   3.473  38.980  0.1058  0.8825 -0.9057
13587TIP3   OH262251   0.408   2.310  29.810  0.2711  0.1002  0.0856
13587TIP3    H162252   0.332   2.258  29.838 -0.7997  1.5237 -0.0429
13587TIP3    H262253   0.377   2.356  29.731  0.7690  1.8276  0.8556
13588TIP3   OH262254   1.557   0.780  11.063  0.0673  0.0792  0.1174
13588TIP3    H162255   1.588   0.841  11.130 -1.4850  2.2856 -1.0239
13588TIP3    H262256   1.588   0.817  10.980 -0.8029 -0.7512 -0.6089
13589TIP3   OH262257   0.886   3.954   0.357  0.0695  0.2316  0.5228
13589TIP3    H162258   0.819   4.021   0.370 -0.6741 -0.3480 -0.2562
13589TIP3    H262259   0.964   3.990   0.400 -0.0617  1.9808 -0.5736
13590TIP3   OH262260   4.247   3.714   0.499 -0.5783 -0.6027 -0.4664
13590TIP3    H162261   4.293   3.773   0.440 -3.7777  1.4978 -1.1175
13590TIP3    H262262   4.302   3.711   0.578  1.3791  0.4261 -1.7064
13591TIP3   OH262263   2.910   1.445   4.245 -0.3341 -0.1442 -0.4267
13591TIP3    H162264   2.956   1.443   4.162 -0.7135 -1.6157 -0.6210
13591TIP3    H262265   2.969   1.400   4.306 -0.6303 -0.2172 -0.1947
13592TIP3   OH262266   0.156   4.062   9.838 -0.7744 -0.1354  0.0541
13592TIP3    H162267   0.184   4.041   9.749  0.7607  0.4880  0.3653
13592TIP3    H262268   0.157   3.978   9.884 -1.1472 -0.3901 -0.3888
13593TIP3   OH262269   3.732   4.089  37.505 -0.0157 -0.0201 -0.3065
13593TIP3    H162270   3.722   4.089  37.600  1.8631  1.7263 -0.0383
13593TIP3    H262271   3.693   4.172  37.477  2.2307  0.9876 -0.6253
13594TIP3   OH262272   3.690   4.268   4.712 -0.0218 -0.7980 -0.1725
13594TIP3    H162273   3.700   4.293   4.804 -1.3635 -1.1763  0.0980
13594TIP3    H262274   3.716   4.345   4.663 -0.7604 -0.0697  0.5595
13595TIP3   OH262275   4.363   0.436  26.863  0.2903 -0.0753  0.1719
13595TIP3    H162276   4.267   0.440  26.864  0.2250  1.5796 -2.2653
13595TIP3    H262277   4.389   0.441  26.955 -1.9473 -1.7618  0.9780
13596TIP3   OH262278   0.176   0.986  38.814 -0.2893  0.7579 -0.1637
13596TIP3    H162279   0.218   0.947  38.737  0.0899  0.9408 -0.0498
13596TIP3    H262280   0.082   0.975  38.798 -0.1931 -0.6159  0.0846
13597TIP3   OH262281   3.231   1.386   7.456  0.0689 -0.4230  0.3743
13597TIP3    H162282   3.253   1.455   7.394 -1.3712  0.2320  0.5523
13597TIP3    H262283   3.314   1.364   7.497  1.2177 -1.3344 -2.1970
13598TIP3   OH262284   3.784   2.202  29.223  0.1082 -0.2067  0.1181
13598TIP3    H162285   3.729   2.125  29.231  0.6557 -0.6041  0.1311
13598TIP3    H262286   3.838   2.201  29.302  1.3688 -0.8243 -0.7068
13599TIP3   OH262287   2.426   0.316   2.363 -0.0178 -0.1336  0.5940
13599TIP3    H162288   2.417   0.365   2.282 -0.1681 -1.0108  0.0584
13599TIP3    H262289   2.353   0.344   2.417 -1.8358 -1.8256 -0.8237
13600TIP3   OH262290   3.497   0.699  32.998 -0.1814 -0.4906 -0.1526
13600TIP3    H162291   3.529   0.712  33.087  0.0101  0.3318 -0.3402
13600TIP3    H262292   3.402   0.707  33.005 -0.0882  0.8351 -0.2234
13601TIP3   OH262293   0.614   0.445   2.923 -0.1491 -0.2886 -0.4359
13601TIP3    H162294   0.519   0.441   2.917 -0.3545 -3.8010  2.1762
13601TIP3    H262295   0.631   0.506   2.995  0.0163  3.3949 -3.2375
13602TIP3   OH262296   1.544   2.008   0.234 -0.3840 -0.3856 -0.2581
13602TIP3    H162297   1.454   1.985   0.258  0.7974 -2.4138  2.7662
13602TIP3    H262298   1.552   2.101   0.258 -1.8074  0.0169 -1.2119
13603TIP3   OH262299   3.923   3.185  26.826  0.3459  0.0497 -0.5394
13603TIP3    H162300   3.902   3.124  26.897 -0.7066 -0.0769 -0.9392
13603TIP3    H262301   3.903   3.271  26.862  1.1886  0.1142 -0.2030
13604TIP3   OH262302   2.409   0.285  10.711  0.1381 -0.1787  0.5675
13604TIP3    H162303   2.441   0.255  10.626 -1.9023 -0.4157 -0.1827
13604TIP3    H262304   2.320   0.315  10.694  0.2540  1.3759  2.3268
13605TIP3   OH262305   4.351   0.002   2.674 -0.2569 -0.5427  0.0791
13605TIP3    H162306   4.395   0.038   2.597 -0.5925 -1.4738 -0.5675
13605TIP3    H262307   4.385   0.053   2.748 -1.0198  1.3533 -0.8295
13606TIP3   OH262308   3.985   2.741  25.726  0.2082 -0.0448  0.3079
13606TIP3    H162309   3.908   2.794  25.706 -0.6012 -0.6215  1.7571
13606TIP3    H262310   4.027   2.726  25.641  0.0093  2.1930 -0.2481
13607TIP3   OH262311   1.521   2.125   7.101 -0.0493  0.0619  0.1303
13607TIP3    H162312   1.555   2.146   7.014 -0.2412  1.5127  0.3799
13607TIP3    H262313   1.429   2.150   7.097  0.0849  0.7136  0.9267
13608TIP3   OH262314   1.504   3.171   3.349 -0.1089  0.1354  0.1311
13608TIP3    H162315   1.490   3.109   3.420  1.1214 -0.9494 -0.5374
13608TIP3    H262316   1.575   3.227   3.380 -1.5057  1.5454  0.9143
13609TIP3   OH262317   0.016   1.310  33.939 -0.2840 -0.1252  0.2444
13609TIP3    H162318  -0.041   1.243  33.902 -0.5371  0.0944  0.2398
13609TIP3    H262319  -0.025   1.334  34.022 -2.0764  2.4668 -1.2711
13610TIP3   OH262320   0.151   3.662   7.561  0.4128  0.3866  0.3926
13610TIP3    H162321   0.214   3.734   7.567 -1.5830  2.1889  0.8000
13610TIP3    H262322   0.081   3.696   7.504 -0.0532 -1.6800 -0.3395
13611TIP3   OH262323   0.388   1.685  21.676  0.3856  0.5298 -0.0438
13611TIP3    H162324   0.481   1.673  21.659  0.3192  0.0497 -0.0774
13611TIP3    H262325   0.347   1.604  21.645  0.0315  0.4755  0.5517
13612TIP3   OH262326   1.019   0.055  12.815 -0.3022 -0.4455 -0.2353
13612TIP3    H162327   0.959   0.050  12.740 -0.7573  0.7305  0.0320
13612TIP3    H262328   0.992   0.134  12.862  1.3524 -0.0059  0.0077
13613TIP3   OH262329   0.236   0.155  36.729  0.0232  0.5456 -0.0285
13613TIP3    H162330   0.142   0.170  36.734 -0.0809 -0.0111 -0.2916
13613TIP3    H262331   0.251   0.075  36.779  0.4211  0.8725  0.3904
13614TIP3   OH262332   4.372   4.396  35.071 -0.6587  0.6267 -0.1043
13614TIP3    H162333   4.417   4.331  35.017 -1.6786  0.5789 -0.9238
13614TIP3    H262334   4.417   4.393  35.155 -0.4244 -0.8465 -0.2616
13615TIP3   OH262335   0.164   1.650  11.966  0.4413 -0.2313 -0.2355
13615TIP3    H162336   0.200   1.633  12.053  1.1237 -1.6356 -0.7641
13615TIP3    H262337   0.085   1.701  11.982  2.2296  2.3563  1.0085
13616TIP3   OH262338   1.651   0.158  34.517 -0.0836  0.1642 -0.6515
13616TIP3    H162339   1.637   0.252  34.525 -2.1736 -0.0067 -1.8747
13616TIP3    H262340   1.606   0.121  34.593  0.9250  0.1188 -0.0488
13617TIP3   OH262341   2.624   2.691   0.146  0.4703 -0.4534 -0.5090
13617TIP3    H162342   2.534   2.658   0.148  0.6692 -1.0082 -0.6552
13617TIP3    H262343   2.678   2.615   0.127  1.2182 -0.6676  2.0059
13618TIP3   OH262344   1.867   2.068  32.797 -0.5078 -0.2911  0.3914
13618TIP3    H162345   1.800   2.072  32.866  1.1235 -2.0250  2.2236
13618TIP3    H262346   1.843   2.138  32.736 -3.6930 -0.5412  1.1618
13619TIP3   OH262347   0.110   0.679  39.118 -0.5030  0.2068  0.1090
13619TIP3    H162348   0.178   0.688  39.051  1.4255  0.5425  2.0123
13619TIP3    H262349   0.102   0.584  39.131 -1.6781  0.0770 -1.2918
13620TIP3   OH262350   3.473   4.182  24.603  1.1619  0.0415 -0.0074
13620TIP3    H162351   3.429   4.234  24.536  0.4459  1.0489  1.2116
13620TIP3    H262352   3.460   4.091  24.575 -1.1228  0.3402 -0.0568
13621TIP3   OH262353   3.165   2.721  35.776  0.1164  0.2658  0.1357
13621TIP3    H162354   3.181   2.635  35.737  0.9588 -0.0421  1.1030
13621TIP3    H262355   3.159   2.781  35.702 -0.9067 -0.6771 -0.5772
13622TIP3   OH262356   4.049   0.668  26.046  0.3076  0.1308 -0.0261
13622TIP3    H162357   4.076   0.581  26.077  1.6012  0.2733 -0.7004
13622TIP3    H262358   3.954   0.661  26.035  0.3470 -1.0846  0.2576
13623TIP3   OH262359   3.200   1.867  36.372  0.0374  0.7212 -0.5606
13623TIP3    H162360   3.211   1.954  36.409  0.0336  0.0265  1.1827
13623TIP3    H262361   3.157   1.817  36.441 -0.0596 -0.6313 -1.5647
13624TIP3   OH262362   0.403   0.489  12.890  0.5289 -0.0629 -0.2273
13624TIP3    H162363   0.331   0.454  12.942  0.0718 -2.1237 -2.0950
13624TIP3    H262364   0.365   0.562  12.841  0.2888  0.2267  0.3873
13625TIP3   OH262365   4.183   4.056  38.858  0.2839  0.2634  0.1201
13625TIP3    H162366   4.128   4.098  38.924 -0.6069 -2.2617  1.1363
13625TIP3    H262367   4.142   4.077  38.775 -2.0821 -1.1649  0.8284
13626TIP3   OH262368   2.565   4.069   7.118  0.6639  0.0112  0.1445
13626TIP3    H162369   2.494   4.114   7.163  0.9840  1.5703 -0.8400
13626TIP3    H262370   2.543   3.976   7.125 -1.4561  0.4555 -0.1401
13627TIP3   OH262371   0.429   4.132  30.316  0.3467  0.2313 -0.1327
13627TIP3    H162372   0.425   4.141  30.412  1.2143  0.3859 -0.1039
13627TIP3    H262373   0.452   4.040  30.302 -0.3220  0.0697 -0.2156
13628TIP3   OH262374   2.113   4.240  27.874  0.2676 -0.3395  0.1326
13628TIP3    H162375   2.092   4.325  27.835  0.2682  0.0138  0.8817
13628TIP3    H262376   2.050   4.231  27.946  1.6405  0.0334  1.4425
13629TIP3   OH262377   1.689   2.800  40.767 -0.2421 -0.5261  0.8068
13629TIP3    H162378   1.656   2.859  40.699  2.4933  0.1391 -0.0869
13629TIP3    H262379   1.662   2.841  40.849 -0.0557  0.9599  0.1628
13630TIP3   OH262380   4.170   4.158  38.532  0.7369 -0.2240 -0.5043
13630TIP3    H162381   4.201   4.192  38.447 -0.0884  0.5085 -0.5306
13630TIP3    H262382   4.081   4.129  38.514  1.5460 -2.8653 -0.5739
13631TIP3   OH262383   2.575   0.650   3.683  0.3681  0.2677  0.2434
13631TIP3    H162384   2.516   0.586   3.723  0.4549 -1.4013 -2.0954
13631TIP3    H262385   2.531   0.676   3.602  1.4554  1.3326 -0.0315
13632TIP3   OH262386   0.194   1.685  12.797  0.8302 -0.0204  0.6515
13632TIP3    H162387   0.196   1.590  12.812  1.3039 -0.2246 -0.5467
13632TIP3    H262388   0.269   1.719  12.845  2.6132 -0.7118 -1.4537
13633TIP3   OH262389   3.978   2.078  31.344  0.0953  0.7004 -0.1846
13633TIP3    H162390   3.884   2.084  31.331  0.1986  1.1152 -0.8044
13633TIP3    H262391   4.010   2.168  31.330  0.6068  0.5180 -0.2385
13634TIP3   OH262392   0.020   0.329   9.537  0.1320  0.1274 -0.3267
13634TIP3    H162393   0.085   0.319   9.467 -0.7606 -0.2690 -1.1208
13634TIP3    H262394   0.005   0.423   9.542 -0.6986  0.0787 -1.5377
13635TIP3   OH262395   0.716   2.116  33.990  0.5966 -0.2081 -0.2045
13635TIP3    H162396   0.735   2.207  33.966  1.3158 -0.4254 -0.5130
13635TIP3    H262397   0.631   2.098  33.950  0.1697  0.5063  0.3564
13636TIP3   OH262398   0.893   0.457   6.022 -0.1657  0.1106 -0.0766
13636TIP3    H162399   0.884   0.407   6.103  0.5698  0.3825  0.1791
13636TIP3    H262400   0.902   0.391   5.954 -1.3763 -0.1364 -0.0291
13637TIP3   OH262401   0.676   3.287   1.666  0.0453  0.5218 -0.0652
13637TIP3    H162402   0.654   3.229   1.739 -1.6768 -0.0175 -0.9512
13637TIP3    H262403   0.639   3.243   1.589  0.8158  1.6275 -1.1016
13638TIP3   OH262404   3.940   2.998  24.823 -0.6612 -0.2397  0.2106
13638TIP3    H162405   3.917   2.924  24.767  0.0205  0.2158 -0.6972
13638TIP3    H262406   4.024   3.029  24.789 -0.0176 -0.2010  1.7472
13639TIP3   OH262407   3.311   1.957  41.166 -0.1681  0.4957  0.1571
13639TIP3    H162408   3.277   1.889  41.108 -0.1173  0.7501 -0.1760
13639TIP3    H262409   3.406   1.951  41.157 -0.1170 -0.2041  1.0754
13640TIP3   OH262410   3.079   3.066   2.810  0.0182 -0.2588 -1.0720
13640TIP3    H162411   3.170   3.096   2.802  0.7318 -1.8779  0.3268
13640TIP3    H262412   3.076   2.986   2.757  0.5830 -2.4461  1.9544
13641TIP3   OH262413   0.775   3.957   2.554 -0.3295  0.4997 -0.0062
13641TIP3    H162414   0.870   3.945   2.541 -0.2704 -0.3172  1.0340
13641TIP3    H262415   0.764   4.051   2.563  0.3909  0.6033 -0.1155
13642TIP3   OH262416   3.834   2.087  39.288  0.4482  0.0354 -0.1169
13642TIP3    H162417   3.859   2.068  39.378 -3.7179 -0.3786  1.1484
13642TIP3    H262418   3.826   2.183  39.285 -0.0679  0.0064  0.1960
13643TIP3   OH262419   4.270   3.396   3.465  0.5444 -0.4308 -0.6771
13643TIP3    H162420   4.331   3.417   3.535 -1.1859  1.9162  0.2543
13643TIP3    H262421   4.187   3.379   3.509 -0.2058 -0.5404 -2.0647
13644TIP3   OH262422   0.002   3.271  23.204  0.0021 -0.3848 -0.3336
13644TIP3    H162423  -0.062   3.201  23.204  2.1799 -2.5213  0.9062
13644TIP3    H262424   0.002   3.305  23.293 -0.3641  0.5918 -0.6841
13645TIP3   OH262425   2.386   2.424  11.448 -0.2703 -0.1539 -0.1031
13645TIP3    H162426   2.447   2.424  11.375 -1.1863 -1.8187 -0.9436
13645TIP3    H262427   2.364   2.516  11.462  1.7596  0.4068 -0.3059
13646TIP3   OH262428   0.298   1.105  26.522  0.2020 -0.3298  0.3844
13646TIP3    H162429   0.279   1.193  26.554  0.4540 -0.4803  0.9694
13646TIP3    H262430   0.351   1.119  26.443 -1.5086  0.0646 -0.7383
13647TIP3   OH262431   0.955   0.171   2.182 -0.4268  0.1286  0.9574
13647TIP3    H162432   0.930   0.233   2.113 -3.2964 -0.2812  1.5028
13647TIP3    H262433   1.017   0.111   2.140 -0.2034  1.3463 -0.5231
13648TIP3   OH262434   1.091   2.398  39.973  0.2021 -0.7238 -0.0544
13648TIP3    H162435   1.166   2.453  39.996 -0.5325  1.1701 -1.8895
13648TIP3    H262436   1.022   2.427  40.033  0.1551 -0.5095 -0.2117
13649TIP3   OH262437   3.929   3.316   8.217  0.0514  0.3000 -0.1387
13649TIP3    H162438   3.910   3.319   8.123 -1.1743 -0.8176  0.0382
13649TIP3    H262439   4.013   3.271   8.224  1.3250  2.4387 -0.7882
13650TIP3   OH262440   0.067   1.583  37.032 -0.1635  0.7298 -0.2825
13650TIP3    H162441  -0.002   1.602  36.969 -1.6966  0.0104  1.1109
13650TIP3    H262442   0.085   1.666  37.075 -1.3292  0.6258  0.4454
13651TIP3   OH262443   2.390   2.972   0.210  0.1694 -0.7421 -0.0009
13651TIP3    H162444   2.366   3.026   0.135  0.8350  1.8817  1.5227
13651TIP3    H262445   2.486   2.971   0.210  0.1915 -0.1085  1.1683
13652TIP3   OH262446   1.334   4.042  18.317 -0.1630  1.0500  0.0609
13652TIP3    H162447   1.401   3.983  18.352 -0.8107  0.0860 -0.2695
13652TIP3    H262448   1.264   3.983  18.287 -0.4589  1.9384 -1.0626
13653TIP3   OH262449   3.653   2.833   1.012 -0.1953 -0.8659 -0.8246
13653TIP3    H162450   3.726   2.822   1.073 -0.7556 -0.8313 -0.1414
13653TIP3    H262451   3.668   2.919   0.973 -0.9555  0.0686  0.8274
13654TIP3   OH262452   2.058   4.361  32.738 -0.2611  0.4691 -0.5378
13654TIP3    H162453   2.070   4.291  32.803  2.2601  1.6127  0.3856
13654TIP3    H262454   2.021   4.433  32.788  0.3852  0.9005 -0.6707
13655TIP3   OH262455   0.744   2.552   4.909 -0.3730 -0.2845 -0.5558
13655TIP3    H162456   0.783   2.581   4.991 -0.2553 -1.5219 -0.1450
13655TIP3    H262457   0.702   2.630   4.873  0.5243  0.5409  0.1182
13656TIP3   OH262458   1.081   1.464   7.353 -0.0701  0.5198  0.1511
13656TIP3    H162459   1.045   1.517   7.424  0.3458  0.1466  0.6498
13656TIP3    H262460   1.175   1.483   7.355  0.0994 -0.3095  0.4108
13657TIP3   OH262461   3.525   3.347  36.081  0.0546 -0.0023  0.1820
13657TIP3    H162462   3.451   3.324  36.137 -0.4841  2.7867  0.7779
13657TIP3    H262463   3.597   3.364  36.143  0.0055  1.2165 -0.0712
13658TIP3   OH262464   0.719   0.141  28.348 -0.4069 -0.4229  0.3109
13658TIP3    H162465   0.758   0.189  28.421 -0.1523  1.1777 -0.8344
13658TIP3    H262466   0.646   0.195  28.319 -0.8321 -1.2983 -0.2880
13659TIP3   OH262467   2.514   0.469  32.039  0.1285 -0.2067  0.5861
13659TIP3    H162468   2.539   0.468  31.946  1.0061  1.4459  0.7666
13659TIP3    H262469   2.559   0.394  32.077 -0.6149 -1.1853 -0.3842
13660TIP3   OH262470   0.438   0.601  28.885 -0.1497  0.3842 -0.2102
13660TIP3    H162471   0.471   0.522  28.927  1.3400  0.3260 -1.4241
13660TIP3    H262472   0.488   0.672  28.927 -0.6660  0.5835  0.0741
13661TIP3   OH262473   4.045   1.686   5.936  0.1769 -0.3574  0.4089
13661TIP3    H162474   4.101   1.714   5.863  0.8808 -0.0791  1.0446
13661TIP3    H262475   4.091   1.716   6.014 -0.0327 -1.6021  1.0252
13662TIP3   OH262476   2.288   3.707  34.887 -0.0508  0.4709  0.3872
13662TIP3    H162477   2.270   3.745  34.973 -0.4720  0.2556  0.3957
13662TIP3    H262478   2.365   3.652  34.900  0.0400  0.6387  0.5660
13663TIP3   OH262479   1.972   0.269  35.227 -0.2947  0.1872  0.3441
13663TIP3    H162480   1.938   0.349  35.187  0.8036  0.2693 -0.5082
13663TIP3    H262481   2.060   0.260  35.189  0.2734 -0.4844  1.7559
13664TIP3   OH262482   0.275   1.229  35.272 -0.2042  0.4005  0.1816
13664TIP3    H162483   0.336   1.290  35.231  1.4887 -0.4024  1.3948
13664TIP3    H262484   0.282   1.149  35.219 -1.2230  0.7020 -0.4492
13665TIP3   OH262485   2.834   3.745  38.296  0.0381 -0.1304  0.5966
13665TIP3    H162486   2.835   3.840  38.308  0.4242 -0.2816  1.9651
13665TIP3    H262487   2.868   3.732  38.207 -0.1325  1.0097  0.3443
13666TIP3   OH262488   2.422   1.869  30.439  0.3237  0.2808  0.8374
13666TIP3    H162489   2.450   1.947  30.487  0.5524  1.7754 -1.5686
13666TIP3    H262490   2.503   1.831  30.406  0.0882 -0.1393  0.7369
13667TIP3   OH262491   1.882   0.880  12.764 -0.3682  0.2191  0.1135
13667TIP3    H162492   1.897   0.958  12.710  0.1991  0.0864  0.0811
13667TIP3    H262493   1.887   0.807  12.702 -0.4302  0.1207  0.2246
13668TIP3   OH262494   3.932   2.959  30.854  0.0534 -0.5457 -0.0112
13668TIP3    H162495   3.986   3.032  30.824  0.5540 -1.1923 -0.6941
13668TIP3    H262496   3.990   2.883  30.852 -0.7377 -1.1550 -0.2492
13669TIP3   OH262497   2.733   2.634  10.123  0.4561  0.0730  0.3513
13669TIP3    H162498   2.711   2.561  10.180 -1.6642  1.2410  1.1213
13669TIP3    H262499   2.781   2.695  10.179 -1.8278  1.3271  1.0836
13670TIP3   OH262500   4.001   2.515  11.987  0.0276 -0.4153  0.1379
13670TIP3    H162501   4.040   2.436  11.949 -0.2405 -0.2182 -0.5728
13670TIP3    H262502   3.938   2.482  12.051  1.6696 -0.7343  1.6854
13671TIP3   OH262503   2.830   1.936   9.041  0.4252 -0.2520 -0.1486
13671TIP3    H162504   2.850   1.972   8.954  1.8744 -1.7823 -0.4985
13671TIP3    H262505   2.742   1.969   9.060 -0.6406 -1.1173 -2.9160
13672TIP3   OH262506   1.866   0.314  32.033  0.6543 -0.4695 -0.2057
13672TIP3    H162507   1.907   0.373  32.096 -0.8768 -0.6521  1.0461
13672TIP3    H262508   1.937   0.257  32.003  1.7292  0.6481  0.1597
13673TIP3   OH262509   2.797   1.963  10.163 -0.6465  0.3744 -0.0084
13673TIP3    H162510   2.855   1.993  10.094 -0.7201  0.8289  0.1244
13673TIP3    H262511   2.845   1.892  10.205  0.7765  2.1120  1.4715
13674TIP3   OH262512   2.130   4.035   1.951 -0.1189  0.4169  0.4094
13674TIP3    H162513   2.109   3.979   2.026 -0.2165  1.3635  1.1069
13674TIP3    H262514   2.049   4.037   1.900 -1.2425  2.5508  2.1174
13675TIP3   OH262515   4.085   3.019  31.767 -0.7805 -0.2627  0.1004
13675TIP3    H162516   4.036   3.012  31.684 -0.3569  0.2712 -0.1994
13675TIP3    H262517   4.022   3.057  31.828 -0.1801  2.3723 -0.8082
13676TIP3   OH262518   2.012   1.567  35.741  0.1952  0.6559  0.8661
13676TIP3    H162519   2.045   1.605  35.822 -1.3632  0.8821  1.4322
13676TIP3    H262520   1.964   1.488  35.769  1.1738 -0.3015 -0.0339
13677TIP3   OH262521   4.002   3.079  26.312 -0.0851  0.3390 -0.0965
13677TIP3    H162522   4.088   3.114  26.334  1.1414 -1.5997 -1.4753
13677TIP3    H262523   3.953   3.083  26.394  2.1249 -0.6656  1.3764
13678TIP3   OH262524   3.456   2.470   3.304  0.0116  0.3359  0.4836
13678TIP3    H162525   3.384   2.528   3.328 -0.5367  0.0027 -0.3067
13678TIP3    H262526   3.530   2.501   3.355 -0.4989  1.1613  0.7401
13679TIP3   OH262527   3.615   0.569  33.888  0.1497  0.5843  0.6222
13679TIP3    H162528   3.623   0.537  33.798 -0.4184 -0.7493  1.0084
13679TIP3    H262529   3.521   0.581  33.901  0.3120  2.0446  0.6469
13680TIP3   OH262530   2.537   3.414  27.673 -0.2666 -0.5781  0.2864
13680TIP3    H162531   2.581   3.491  27.707 -1.3398  0.9641 -1.6444
13680TIP3    H262532   2.456   3.409  27.723  0.1640 -0.9496  0.9614
13681TIP3   OH262533   2.849   4.087  30.957  0.3955  0.3097  0.0578
13681TIP3    H162534   2.860   4.131  31.041  2.3124 -0.5768  0.3388
13681TIP3    H262535   2.925   4.115  30.905  1.9510 -2.7985  0.3907
13682TIP3   OH262536   3.067   0.796  30.420  0.3275 -0.3473  0.0065
13682TIP3    H162537   2.972   0.800  30.427  0.2434  1.3505 -1.2889
13682TIP3    H262538   3.099   0.857  30.487  0.4267  0.0919 -0.4333
13683TIP3   OH262539   0.646   2.051  31.754 -0.2150 -0.5615 -0.4802
13683TIP3    H162540   0.609   2.088  31.834  0.6123  0.9804 -0.7839
13683TIP3    H262541   0.650   1.957  31.771 -0.6468 -0.3307  1.0345
13684TIP3   OH262542   1.311   3.766  34.563 -0.1175  0.0864  0.0266
13684TIP3    H162543   1.288   3.694  34.623 -0.9706 -1.0955 -1.6151
13684TIP3    H262544   1.400   3.746  34.535 -0.8878 -1.3252 -1.6441
13685TIP3   OH262545   0.078   1.786  35.125 -0.2941  0.2327  0.0223
13685TIP3    H162546   0.139   1.837  35.179 -1.3364 -0.1577  1.6468
13685TIP3    H262547   0.027   1.851  35.077 -0.3007  0.6598  0.5978
13686TIP3   OH262548   0.843   0.308  35.424 -0.3537  0.3062 -0.0116
13686TIP3    H162549   0.788   0.261  35.487 -1.6525  1.2673 -0.3680
13686TIP3    H262550   0.784   0.327  35.351  0.8854  0.0250 -1.1103
13687TIP3   OH262551   0.596   1.849  39.563  0.8686  0.2773 -0.6857
13687TIP3    H162552   0.514   1.829  39.608  0.8272  2.1983  0.2387
13687TIP3    H262553   0.578   1.833  39.471 -0.8769  1.5209 -0.6116
13688TIP3   OH262554   0.138   0.667   7.668  0.7710  0.0606 -0.5720
13688TIP3    H162555   0.228   0.655   7.639  1.3343  0.0861  1.0466
13688TIP3    H262556   0.124   0.761   7.667  0.3844  0.0138 -1.8060
13689TIP3   OH262557   1.969   3.211  31.028  0.3196 -0.6765 -0.6364
13689TIP3    H162558   2.034   3.175  30.968  0.2533  0.9461 -1.7443
13689TIP3    H262559   2.006   3.295  31.056 -1.9464  1.0778 -2.5780
13690TIP3   OH262560   2.108   1.926  31.469  0.0998 -0.2791 -0.1003
13690TIP3    H162561   2.191   1.886  31.497  0.7401  0.6887 -0.5688
13690TIP3    H262562   2.092   1.995  31.533 -1.3704 -1.6554  1.1202
13691TIP3   OH262563   0.041   3.363  38.728  0.0192 -0.6873 -0.4097
13691TIP3    H162564  -0.027   3.295  38.732 -1.3801  0.5497 -1.7147
13691TIP3    H262565  -0.007   3.445  38.737  1.6275  0.1663  0.7517
13692TIP3   OH262566   1.839   2.475   8.576 -0.3578 -0.6078  0.0981
13692TIP3    H162567   1.910   2.447   8.634 -0.0679 -1.8379 -0.8228
13692TIP3    H262568   1.864   2.442   8.490 -3.0708 -3.1093  0.1042
13693TIP3   OH262569   3.959   0.963  29.485  0.1508  0.1898  0.0184
13693TIP3    H162570   3.996   0.877  29.465  0.3729  0.1265  0.6757
13693TIP3    H262571   3.995   1.021  29.418 -1.9802 -0.6817 -1.9844
13694TIP3   OH262572   4.177   1.810  40.398 -0.4501  0.7193 -0.2836
13694TIP3    H162573   4.157   1.729  40.446  1.1377  1.3852  1.6433
13694TIP3    H262574   4.098   1.828  40.348 -0.3417 -2.8146 -2.0426
13695TIP3   OH262575   0.550   2.144  28.609 -0.0446  0.0166 -0.0516
13695TIP3    H162576   0.565   2.053  28.584 -2.0269 -0.4339  0.2076
13695TIP3    H262577   0.557   2.192  28.526 -1.1222 -0.6966 -0.5814
13696TIP3   OH262578   3.607   2.997   6.175  0.4887 -0.3623  0.2910
13696TIP3    H162579   3.586   3.081   6.217  0.0574 -0.7946  0.9493
13696TIP3    H262580   3.552   2.933   6.221  0.0759 -0.8607 -0.8760
13697TIP3   OH262581   1.353   2.047  13.186  0.2558 -0.4019 -0.0243
13697TIP3    H162582   1.341   2.024  13.094 -0.9286 -0.9536  0.2372
13697TIP3    H262583   1.265   2.069  13.216  0.5647 -0.6052  1.0665
13698TIP3   OH262584   2.821   0.188  36.932 -0.1531 -0.0024 -0.3836
13698TIP3    H162585   2.804   0.283  36.931 -1.9856 -0.2748  0.4585
13698TIP3    H262586   2.817   0.165  37.025 -0.0354 -0.9523 -0.6117
13699TIP3   OH262587   0.870   3.899  30.743  0.6964  0.3201  0.0929
13699TIP3    H162588   0.891   3.807  30.762 -0.0355 -0.2256 -1.5922
13699TIP3    H262589   0.941   3.929  30.686  0.3519  0.4683 -0.2564
13700TIP3   OH262590   0.261   0.855   7.018 -0.4346  0.9606  0.0107
13700TIP3    H162591   0.201   0.853   6.944 -0.3060  2.6176 -0.1723
13700TIP3    H262592   0.329   0.917   6.992  0.2209  0.7106  1.0733
13701TIP3   OH262593   2.414   0.220   3.854  0.1105  0.5745 -0.4083
13701TIP3    H162594   2.467   0.142   3.867 -2.4303 -1.0674  0.7174
13701TIP3    H262595   2.324   0.190   3.861 -1.2123  2.7509 -4.6272
13702TIP3   OH262596   1.568   0.192   8.358  0.4148  0.3062  0.5438
13702TIP3    H162597   1.625   0.203   8.282 -0.7362 -0.9655 -0.5404
13702TIP3    H262598   1.613   0.128   8.413  1.0849  0.9780  0.7992
13703TIP3   OH262599   0.411   3.298  10.689  0.2434  0.2068  0.3506
13703TIP3    H162600   0.373   3.325  10.772  1.8600  2.1013  0.5677
13703TIP3    H262601   0.406   3.376  10.634  1.9455 -0.0606 -0.2481
13704TIP3   OH262602   2.415   3.435   5.609  0.3433  0.0317 -0.8109
13704TIP3    H162603   2.427   3.347   5.574 -1.6258 -0.4513 -0.3740
13704TIP3    H262604   2.338   3.428   5.666  1.0843  1.6809  0.4856
13705TIP3   OH262605   3.774   2.917  29.467  0.2077 -0.2113 -0.1252
13705TIP3    H162606   3.732   2.856  29.527  1.7700 -1.4790 -0.2412
13705TIP3    H262607   3.787   2.997  29.518 -0.6262 -0.4355  0.4600
13706TIP3   OH262608   3.355   3.679  35.501 -0.2047 -0.1897 -0.3161
13706TIP3    H162609   3.376   3.592  35.468  1.5987  0.1497 -0.1566
13706TIP3    H262610   3.336   3.666  35.594  0.9781 -0.3026 -0.0804
13707TIP3   OH262611   0.415   0.803  38.235  0.0112  0.7173 -0.3101
13707TIP3    H162612   0.429   0.733  38.300 -0.2672  0.2765 -0.7243
13707TIP3    H262613   0.449   0.882  38.278 -1.2005  0.6454  0.8316
13708TIP3   OH262614   2.678   0.874  41.292  0.2094 -0.4005  0.3756
13708TIP3    H162615   2.758   0.871  41.344  0.1784 -1.7337  0.3796
13708TIP3    H262616   2.705   0.849  41.204  0.1754  1.3857 -0.1780
13709TIP3   OH262617   1.981   0.553   4.987  0.2920  0.0818  0.2895
13709TIP3    H162618   1.934   0.636   4.976  0.7363  0.4351  0.9932
13709TIP3    H262619   1.993   0.520   4.898 -2.4018 -0.6655  0.1396
13710TIP3   OH262620   2.794   2.418  40.631 -0.5328 -0.1982 -0.2241
13710TIP3    H162621   2.848   2.403  40.553  0.1877  1.8755 -0.1856
13710TIP3    H262622   2.851   2.396  40.704 -0.5638 -0.2964 -0.2286
13711TIP3   OH262623   3.299   3.955  11.712  0.3839 -0.5789 -0.1319
13711TIP3    H162624   3.336   3.867  11.711  3.2433  0.4859  0.8140
13711TIP3    H262625   3.298   3.979  11.805 -1.6065 -0.0482 -0.2469
13712TIP3   OH262626   1.060   4.332   6.973  0.0359  0.6411  0.2751
13712TIP3    H162627   1.130   4.384   7.014 -0.5291  0.5517  1.3872
13712TIP3    H262628   1.102   4.249   6.951 -0.3467 -0.6807  3.8194
13713TIP3   OH262629   3.873   1.492  28.416  0.1877 -0.1271  0.0315
13713TIP3    H162630   3.800   1.464  28.361  0.9797 -0.9659 -0.6199
13713TIP3    H262631   3.861   1.587  28.426 -0.8211 -0.2126 -0.3068
13714TIP3   OH262632   3.796   2.747   0.068 -0.3910 -0.5585 -0.2854
13714TIP3    H162633   3.723   2.808   0.068  0.3108  0.3855 -2.4294
13714TIP3    H262634   3.784   2.694   0.147 -1.8447  1.3487  0.8380
13715TIP3   OH262635   0.706   2.650   1.938 -0.1286 -0.5441 -0.3911
13715TIP3    H162636   0.726   2.702   1.860 -1.1585 -0.6031 -0.7078
13715TIP3    H262637   0.757   2.569   1.927  1.3365  0.2880  0.0124
13716TIP3   OH262638   1.360   0.597  40.104 -0.2585  0.3126 -0.1072
13716TIP3    H162639   1.361   0.570  40.012  0.2654 -0.8228  0.2222
13716TIP3    H262640   1.424   0.541  40.147 -0.6113  0.7148  0.9912
13717TIP3   OH262641   1.960   2.999   1.844  0.1642  0.0320 -0.0977
13717TIP3    H162642   1.895   3.066   1.820  0.1583  0.5920  1.3386
13717TIP3    H262643   1.923   2.917   1.811 -1.8438  0.1761  1.5582
13718TIP3   OH262644   2.482   1.235  27.492 -0.2361 -0.0470 -0.5389
13718TIP3    H162645   2.460   1.142  27.497  0.2736 -0.1377  0.1332
13718TIP3    H262646   2.545   1.249  27.563 -0.1862  0.7774 -0.7338
13719TIP3   OH262647   1.840   2.669  12.540  0.8145 -0.3253  0.3863
13719TIP3    H162648   1.847   2.754  12.497  0.8598 -0.0427  0.9433
13719TIP3    H262649   1.747   2.660  12.560  0.6598 -0.8211 -0.4818
13720TIP3   OH262650   1.794   2.943  13.216 -0.2034  0.5547 -0.3491
13720TIP3    H162651   1.884   2.933  13.246 -0.7472  0.1410  1.2558
13720TIP3    H262652   1.755   2.857  13.230 -1.5029  1.3609  1.3713
13721TIP3   OH262653   0.724   0.599   3.157  0.2930 -0.0327  0.5034
13721TIP3    H162654   0.676   0.682   3.154 -1.3331 -0.8550  2.0418
13721TIP3    H262655   0.811   0.624   3.187  0.0839  1.2069  0.1595
13722TIP3   OH262656   0.735   2.384   1.136 -0.3383  0.1110  0.1168
13722TIP3    H162657   0.651   2.417   1.167 -0.2979  1.2235 -0.9138
13722TIP3    H262658   0.713   2.330   1.060  0.0130  2.5474 -1.8470
13723TIP3   OH262659   0.084   2.791   1.094 -0.3683 -0.0917  0.0959
13723TIP3    H162660   0.145   2.800   1.021  0.3514 -0.6153  0.6206
13723TIP3    H262661   0.075   2.697   1.106  0.1899 -0.0177  1.2217
13724TIP3   OH262662   0.357   3.116  13.600 -0.1010  0.6707 -0.8531
13724TIP3    H162663   0.281   3.067  13.632  1.2313 -1.7300 -1.0970
13724TIP3    H262664   0.339   3.129  13.507 -0.3886  0.4340 -0.8335
13725TIP3   OH262665   1.304   0.713  32.109  1.0154 -0.3773  0.4569
13725TIP3    H162666   1.270   0.653  32.042 -0.6830 -0.7560  1.5855
13725TIP3    H262667   1.354   0.656  32.168  1.5270 -0.2373  0.1634
13726TIP3   OH262668   0.518   3.682  23.403  0.3695 -0.2472 -0.5136
13726TIP3    H162669   0.523   3.597  23.360  1.1887 -0.4824  0.0254
13726TIP3    H262670   0.426   3.692  23.427  0.2654 -0.9737 -0.6071
13727TIP3   OH262671   2.332   3.203  33.599  0.4618 -0.3170  0.1725
13727TIP3    H162672   2.390   3.279  33.588 -0.7413  0.4124 -1.8038
13727TIP3    H262673   2.244   3.241  33.603 -0.1005 -1.5546 -0.0572
13728TIP3   OH262674   1.076   0.968  32.820 -0.0725 -0.6099 -0.1074
13728TIP3    H162675   1.107   0.962  32.911  1.2578 -2.3619 -0.6153
13728TIP3    H262676   1.085   1.061  32.798  0.6511 -0.3458  1.2029
13729TIP3   OH262677   1.963   2.346  10.290  0.2962  0.5031 -0.0592
13729TIP3    H162678   1.972   2.263  10.243  1.2661  1.2507 -1.2481
13729TIP3    H262679   2.046   2.357  10.336  0.3591  1.0285 -0.2902
13730TIP3   OH262680   4.216   2.173  21.464 -1.0120  0.1212  0.3560
13730TIP3    H162681   4.255   2.260  21.455 -1.6603  0.2478 -1.7584
13730TIP3    H262682   4.164   2.162  21.385  0.0804 -2.7123 -0.0908
13731TIP3   OH262683   3.172   0.380  35.289  0.3952  0.6880  0.1336
13731TIP3    H162684   3.178   0.285  35.297  0.3743  0.6139 -0.6095
13731TIP3    H262685   3.199   0.414  35.374 -0.8957 -0.0174  0.8534
13732TIP3   OH262686   3.816   4.229  28.926  0.3517 -0.2271  0.0918
13732TIP3    H162687   3.729   4.191  28.939 -0.4619  1.8594  1.1133
13732TIP3    H262688   3.822   4.241  28.831  0.0166 -1.4446 -0.1028
13733TIP3   OH262689   4.171   4.117  37.312  0.2711 -0.1019  0.0733
13733TIP3    H162690   4.251   4.162  37.284  0.9298 -0.5025  1.2352
13733TIP3    H262691   4.154   4.149  37.400 -1.8538  1.2460 -0.7392
13734TIP3   OH262692   0.217   3.256  14.503 -0.7397 -0.2939 -0.2224
13734TIP3    H162693   0.247   3.168  14.528 -0.8416 -0.0484  0.8168
13734TIP3    H262694   0.294   3.312  14.516  0.1051 -0.5559 -3.2317
13735TIP3   OH262695   3.029   3.996  12.822 -0.6725 -0.3535  0.0306
13735TIP3    H162696   3.080   3.937  12.878 -3.0014 -1.2622  1.3477
13735TIP3    H262697   3.060   3.978  12.734  1.6817 -0.3781  0.7761
13736TIP3   OH262698   2.900   3.185  11.071 -0.1313 -0.0732  0.3853
13736TIP3    H162699   2.920   3.186  10.977  1.2136  0.2328  0.6622
13736TIP3    H262700   2.808   3.159  11.075 -0.5104  0.8944 -1.0695
13737TIP3   OH262701   2.406   1.118   4.025  0.3258 -0.2258  0.2728
13737TIP3    H162702   2.414   1.198   3.972 -0.0128 -0.5562 -0.2915
13737TIP3    H262703   2.496   1.093   4.045  0.4292  0.4168  0.6428
13738TIP3   OH262704   1.208   1.038   3.437  0.7255 -0.3855  0.3323
13738TIP3    H162705   1.157   0.962   3.408 -0.7939  1.3915 -1.9425
13738TIP3    H262706   1.290   1.033   3.388 -0.4499  0.7750 -1.8651
13739TIP3   OH262707   3.644   0.174  35.002  0.3789  0.4329  0.2257
13739TIP3    H162708   3.618   0.170  34.910  0.6229  1.0979  0.1248
13739TIP3    H262709   3.629   0.085  35.035  1.4810 -0.1447 -0.7780
13740TIP3   OH262710   1.683   2.720   0.664 -0.1551  0.3021  0.1528
13740TIP3    H162711   1.622   2.790   0.687  0.8465  1.0934  0.4883
13740TIP3    H262712   1.734   2.757   0.591  0.8978  0.2358  0.8378
13741TIP3   OH262713   2.845   0.954  11.065 -0.8181  0.0469  0.0234
13741TIP3    H162714   2.759   0.956  11.105 -1.0307  0.4792 -0.4518
13741TIP3    H262715   2.900   1.005  11.125 -1.3325  1.4691 -0.6715
13742TIP3   OH262716   2.084   4.110  38.777  0.5153 -0.6114 -0.0519
13742TIP3    H162717   2.076   4.020  38.810 -0.0659 -0.3284  0.6112
13742TIP3    H262718   2.020   4.115  38.706  0.0543 -0.5297  0.3624
13743TIP3   OH262719   4.342   2.446  34.641 -0.3667 -0.0183 -0.4304
13743TIP3    H162720   4.436   2.436  34.655 -0.4018  0.4088  0.1432
13743TIP3    H262721   4.308   2.476  34.725 -0.9665  0.1432 -0.7227
13744TIP3   OH262722   1.669   3.444  31.612  0.0318  0.0160  0.1799
13744TIP3    H162723   1.701   3.355  31.596 -0.6106 -0.4758  1.4727
13744TIP3    H262724   1.612   3.463  31.538  1.3275 -0.0415 -0.8830
13745TIP3   OH262725   1.589   0.433  31.936 -0.0086  0.1256  0.0455
13745TIP3    H162726   1.556   0.458  31.850 -1.2318  0.5774  0.6219
13745TIP3    H262727   1.657   0.369  31.918 -1.7984 -1.5352 -1.1940
13746TIP3   OH262728   0.332   2.108  27.746 -0.2913  0.2862 -0.5324
13746TIP3    H162729   0.346   2.099  27.652  1.3077 -1.2236 -0.1979
13746TIP3    H262730   0.394   2.175  27.773  0.4649 -0.4918 -0.3113
13747TIP3   OH262731   2.360   4.153   1.939 -0.7480 -0.1114  0.4633
13747TIP3    H162732   2.375   4.140   1.845  1.6544 -0.6863  0.8451
13747TIP3    H262733   2.288   4.095   1.961 -2.3223  1.0754 -1.2406
13748TIP3   OH262734   3.575   0.270   8.504  0.5030 -0.3122 -0.2173
13748TIP3    H162735   3.506   0.204   8.509  3.2860 -3.4548  1.4254
13748TIP3    H262736   3.617   0.255   8.420  0.8292 -0.2889 -0.0613
13749TIP3   OH262737   1.001   4.196  34.237 -0.2206 -0.2295 -0.0401
13749TIP3    H162738   1.064   4.263  34.264 -0.1317 -0.1312 -0.4939
13749TIP3    H262739   1.039   4.114  34.266 -1.1878  0.0431  2.2123
13750TIP3   OH262740   0.031   0.841  23.201 -0.6272  0.0245 -0.1500
13750TIP3    H162741   0.027   0.778  23.273 -2.1180 -1.9618 -1.8529
13750TIP3    H262742   0.049   0.925  23.243  0.5974 -1.3825  2.3040
13751TIP3   OH262743   2.900   1.481  32.587  0.0484 -0.0539 -0.4466
13751TIP3    H162744   2.946   1.401  32.562  1.0394  0.0312  0.9737
13751TIP3    H262745   2.969   1.540  32.617 -0.7026  1.2481 -1.2048
13752TIP3   OH262746   0.586   1.017  32.006 -0.4707 -0.1098 -0.6527
13752TIP3    H162747   0.654   1.030  31.939  0.5373 -0.1743  0.3293
13752TIP3    H262748   0.614   0.939  32.054 -1.0030  0.1350  0.0700
13753TIP3   OH262749   3.965   1.201  34.633 -0.3176  0.4063 -0.2017
13753TIP3    H162750   4.042   1.230  34.584  0.7981 -1.1862  0.5122
13753TIP3    H262751   3.969   1.250  34.715 -1.2321  1.8155 -0.9720
13754TIP3   OH262752   4.239   2.372  36.443 -0.6397  0.1946  0.2241
13754TIP3    H162753   4.190   2.452  36.425 -1.5812 -0.9434 -2.9031
13754TIP3    H262754   4.209   2.345  36.530 -0.0238  3.3339  1.5259
13755TIP3   OH262755   1.656   0.690  36.685 -0.2048 -0.1690  0.4266
13755TIP3    H162756   1.728   0.730  36.733  0.0195  0.2188 -0.2187
13755TIP3    H262757   1.581   0.748  36.701  0.3858  1.1818 -1.4211
13756TIP3   OH262758   2.674   2.274  11.293 -0.1115 -0.7007  0.2375
13756TIP3    H162759   2.641   2.217  11.363  2.5500 -0.9028  1.4509
13756TIP3    H262760   2.595   2.310  11.253 -1.8062 -2.4378  1.7786
13757TIP3   OH262761   1.176   1.925   2.770  0.2242  0.2842  0.0009
13757TIP3    H162762   1.081   1.914   2.781  0.2392  0.7531  0.6770
13757TIP3    H262763   1.200   1.861   2.704 -0.6816  0.6236 -0.6753
13758TIP3   OH262764   0.699   1.081   6.095 -0.4968 -0.2475  0.1553
13758TIP3    H162765   0.759   1.023   6.141  0.7546  0.1751 -0.8559
13758TIP3    H262766   0.649   1.024   6.037 -0.4738 -0.5119  0.3981
13759TIP3   OH262767   4.249   2.991  28.463 -0.0315 -0.4960  0.2536
13759TIP3    H162768   4.316   2.923  28.459 -0.1992 -0.6384 -0.3085
13759TIP3    H262769   4.196   2.969  28.539  0.5109 -0.4262  0.6565
13760TIP3   OH262770   1.177   0.696   1.477  0.4017  0.1050  0.6491
13760TIP3    H162771   1.143   0.609   1.457  4.2260 -1.4051 -0.2409
13760TIP3    H262772   1.126   0.755   1.421 -1.4251 -1.7006  0.2896
13761TIP3   OH262773   1.258   1.318  10.344 -0.4127  0.1376 -0.7341
13761TIP3    H162774   1.342   1.363  10.356 -1.3413  1.6858  0.1548
13761TIP3    H262775   1.199   1.360  10.406 -1.3126 -2.4152  0.2815
13762TIP3   OH262776   2.825   2.441  11.117 -0.2931  0.3320 -0.3948
13762TIP3    H162777   2.831   2.401  11.204  1.4100  0.7406 -0.2825
13762TIP3    H262778   2.884   2.388  11.063  1.8750  2.4576 -0.2885
13763TIP3   OH262779   2.156   0.353  29.232  0.3571  0.1436  0.7502
13763TIP3    H162780   2.089   0.316  29.175  0.3837  0.1170  0.7370
13763TIP3    H262781   2.203   0.415  29.176  1.0301 -0.6078  0.4621
13764TIP3   OH262782   3.521   0.593   1.313 -0.1257  0.4610  0.3082
13764TIP3    H162783   3.591   0.659   1.318  1.3684 -0.8413 -1.6810
13764TIP3    H262784   3.466   0.621   1.240  0.3779 -0.3208 -0.3919
13765TIP3   OH262785   0.717   2.727   8.773 -0.1020  0.3309  0.5929
13765TIP3    H162786   0.672   2.796   8.821 -2.3676 -0.5968 -0.0726
13765TIP3    H262787   0.745   2.665   8.841 -0.3560  0.6321  0.9747
13766TIP3   OH262788   3.864   0.779  33.380  0.3411 -1.0608 -0.4221
13766TIP3    H162789   3.952   0.812  33.399  0.9060 -1.8590 -1.5329
13766TIP3    H262790   3.875   0.684  33.372 -0.9907 -1.4221  1.3701
13767TIP3   OH262791   2.511   3.551   9.027  0.3816 -0.0924 -0.2017
13767TIP3    H162792   2.470   3.552   9.113  1.4341 -1.8405  0.3604
13767TIP3    H262793   2.472   3.477   8.982 -0.4614  1.0480 -1.4222
13768TIP3   OH262794   1.336   1.763  27.101 -0.0685  0.0051  0.0981
13768TIP3    H162795   1.381   1.846  27.114  0.7522 -0.4728  0.4131
13768TIP3    H262796   1.390   1.716  27.037  0.0247 -0.6810  0.6735
13769TIP3   OH262797   4.188   0.668  13.307 -0.1933  0.4337  0.1968
13769TIP3    H162798   4.204   0.748  13.357  0.2050  0.2684  0.3403
13769TIP3    H262799   4.138   0.612  13.367 -1.8931  1.1753 -0.4546
13770TIP3   OH262800   3.206   0.160   9.117 -0.0947  0.3279 -0.0569
13770TIP3    H162801   3.179   0.238   9.069 -1.3353 -1.1366 -1.9115
13770TIP3    H262802   3.293   0.139   9.082 -0.5260 -0.1044 -0.9132
13771TIP3   OH262803   2.830   1.523  29.554  0.0960 -1.1137 -0.1060
13771TIP3    H162804   2.864   1.599  29.507 -0.0803 -0.8662  0.1637
13771TIP3    H262805   2.755   1.557  29.603  1.6339 -0.7907  2.2409
13772TIP3   OH262806   3.082   2.235  10.447 -0.7108 -0.2108  0.6632
13772TIP3    H162807   2.987   2.239  10.437 -0.8341  0.3070  1.8507
13772TIP3    H262808   3.112   2.181  10.373 -1.6464  1.7495 -1.2684
13773TIP3   OH262809   3.072   2.166  38.016 -0.0011  0.1983  0.2740
13773TIP3    H162810   2.979   2.154  38.033  0.1765  0.1786  1.2427
13773TIP3    H262811   3.084   2.134  37.926 -1.0796  0.9970 -0.1764
13774TIP3   OH262812   0.239   3.686   8.848  0.0817 -0.4903  0.0988
13774TIP3    H162813   0.271   3.737   8.923  1.3739 -0.4797 -0.4247
13774TIP3    H262814   0.308   3.620   8.834 -0.9183 -1.5256 -0.0753
13775TIP3   OH262815   1.369   2.974  32.162  0.2699  0.4041  0.3088
13775TIP3    H162816   1.300   3.039  32.168  0.1480  0.1894  1.8434
13775TIP3    H262817   1.441   3.018  32.118 -0.3798  1.0542 -0.1096
13776TIP3   OH262818   3.012   2.900  34.276 -0.0148 -0.1650 -0.1953
13776TIP3    H162819   2.944   2.839  34.248 -0.2357  0.1291 -0.3113
13776TIP3    H262820   3.005   2.973  34.214  0.8782 -0.4470 -0.6435
13777TIP3   OH262821   1.991   2.222  27.937  0.5775 -0.4075  0.0007
13777TIP3    H162822   1.933   2.295  27.919  0.8433 -0.3608 -0.6908
13777TIP3    H262823   1.963   2.190  28.023 -1.1092 -1.0020 -0.7269
13778TIP3   OH262824   1.584   0.478  39.302  0.1366 -0.1283  0.0410
13778TIP3    H162825   1.607   0.570  39.287 -0.2996 -0.2112 -1.2751
13778TIP3    H262826   1.490   0.480  39.322  0.0873 -0.3012 -0.1703
13779TIP3   OH262827   4.376   1.962   0.167  0.8642  0.1120  0.2388
13779TIP3    H162828   4.445   1.983   0.229  1.1088  0.1271 -0.0330
13779TIP3    H262829   4.416   1.976   0.081  0.4827  0.2511  0.0799
13780TIP3   OH262830   3.846   3.630  10.783  0.2231 -0.1843 -0.0321
13780TIP3    H162831   3.833   3.542  10.818  0.2637 -0.6522 -1.1384
13780TIP3    H262832   3.810   3.688  10.850  1.3585 -0.9602  1.3032
13781TIP3   OH262833   0.293   3.056  40.815  0.5071 -0.1101  0.2007
13781TIP3    H162834   0.235   3.132  40.818  0.3687 -0.1695 -0.7776
13781TIP3    H262835   0.240   2.984  40.850  0.1812 -0.0398 -0.1412
13782TIP3   OH262836   1.020   2.871  36.748  0.2683  0.6168  0.1377
13782TIP3    H162837   1.050   2.960  36.768 -0.5871  1.1828 -0.9858
13782TIP3    H262838   0.949   2.883  36.685 -0.4784 -0.8207  0.6425
13783TIP3   OH262839   0.781   3.569  40.555  0.1489  0.2759  0.0478
13783TIP3    H162840   0.838   3.526  40.490 -0.7687  0.7682 -1.1157
13783TIP3    H262841   0.842   3.609  40.617  1.0523 -0.3571 -0.3959
13784TIP3   OH262842   2.526   3.096   2.111 -0.5918 -0.2268  0.1725
13784TIP3    H162843   2.541   3.186   2.081 -0.6860  0.0451  0.9150
13784TIP3    H262844   2.510   3.047   2.030 -0.9149  0.4945 -0.2216
13785TIP3   OH262845   1.830   3.576   0.678  0.1617 -0.7870  0.3285
13785TIP3    H162846   1.898   3.542   0.621  0.6115 -0.6764  0.7907
13785TIP3    H262847   1.761   3.511   0.675 -1.4676  0.8496 -3.2017
13786TIP3   OH262848   1.353   3.723  19.218  0.4236  0.5959 -0.4409
13786TIP3    H162849   1.396   3.808  19.224  2.2059 -0.2688 -0.4304
13786TIP3    H262850   1.310   3.723  19.133  2.0909  0.7920 -1.3163
13787TIP3   OH262851   3.071   1.267  38.555 -0.0275 -0.1306  0.5566
13787TIP3    H162852   3.145   1.303  38.506  1.7699 -2.2925  1.4492
13787TIP3    H262853   3.077   1.308  38.641 -0.2871  0.2111  0.4119
13788TIP3   OH262854   2.253   3.124  28.456 -0.1376 -0.3520  0.2806
13788TIP3    H162855   2.224   3.207  28.492  1.7256  1.3263 -1.8061
13788TIP3    H262856   2.217   3.122  28.367  0.8101 -1.1647 -0.1164
13789TIP3   OH262857   0.308   0.335  40.802 -0.3993 -0.3093 -0.9177
13789TIP3    H162858   0.366   0.290  40.740 -0.2688 -1.9205  0.3107
13789TIP3    H262859   0.356   0.414  40.826  0.1598 -0.3616 -1.8020
13790TIP3   OH262860   2.407   3.253   3.039  0.0362  0.2626 -0.1029
13790TIP3    H162861   2.328   3.209   3.008  0.2115  0.4114 -0.7676
13790TIP3    H262862   2.441   3.298   2.962  1.2579 -0.5262 -0.0559
13791TIP3   OH262863   2.435   1.050  11.609 -0.5382 -0.0041 -0.1175
13791TIP3    H162864   2.480   1.005  11.538 -0.5010  0.5776 -0.4623
13791TIP3    H262865   2.485   1.130  11.623 -0.4320 -0.2018  0.6946
13792TIP3   OH262866   0.878   1.862  12.899 -0.2789 -0.4799  0.0499
13792TIP3    H162867   0.842   1.837  12.984  0.2244 -0.2206  0.3480
13792TIP3    H262868   0.928   1.786  12.870  1.5666  0.2450  1.1294
13793TIP3   OH262869   0.503   3.762  12.508 -0.0970 -0.1590  0.0824
13793TIP3    H162870   0.474   3.837  12.455  0.3582  0.2041  0.3368
13793TIP3    H262871   0.587   3.790  12.544  1.0279 -1.5522 -1.3608
13794TIP3   OH262872   2.573   3.672  28.414  0.6835  0.1937  0.0324
13794TIP3    H162873   2.493   3.710  28.378 -0.4193 -1.3182  0.7928
13794TIP3    H262874   2.590   3.722  28.493  1.4472  1.5811 -0.9595
13795TIP3   OH262875   0.123   1.680   0.445 -0.1450  0.1154  0.2418
13795TIP3    H162876   0.171   1.759   0.421 -0.2367  0.7215  1.9251
13795TIP3    H262877   0.034   1.695   0.412  0.2282 -0.0348 -0.8948
13796TIP3   OH262878   1.534   0.244  28.341 -0.1941  0.1640  0.3195
13796TIP3    H162879   1.535   0.232  28.436  0.3299  1.7717  0.5428
13796TIP3    H262880   1.444   0.268  28.320 -0.7561 -1.8828  0.1295
13797TIP3   OH262881   0.254   2.249   3.838  0.0461 -0.5726  0.9611
13797TIP3    H162882   0.306   2.190   3.892 -1.1405 -1.9858  0.6332
13797TIP3    H262883   0.202   2.190   3.782 -0.2728  0.8074 -0.2517
13798TIP3   OH262884   3.878   2.063  37.111 -0.5501  0.6246 -0.0816
13798TIP3    H162885   3.802   2.100  37.155 -0.2191 -0.0844  1.1117
13798TIP3    H262886   3.953   2.097  37.159 -0.2396 -1.8232  1.2901
13799TIP3   OH262887   2.990   3.078   3.133 -0.3852 -0.2969 -0.2559
13799TIP3    H162888   3.050   3.013   3.096 -0.1393  1.1581 -2.5997
13799TIP3    H262889   3.047   3.142   3.177 -0.4966 -0.6521  0.4234
13800TIP3   OH262890   0.604   3.217   6.848 -0.5357 -0.0775 -0.0281
13800TIP3    H162891   0.689   3.243   6.884 -0.7162 -0.2907  0.5684
13800TIP3    H262892   0.624   3.175   6.765 -0.0529 -0.1676  0.1351
13801TIP3   OH262893   0.943   4.323  23.180 -0.1277  0.5066 -0.3857
13801TIP3    H162894   0.884   4.314  23.105 -0.4075  0.8038 -0.2049
13801TIP3    H262895   0.892   4.372  23.245 -0.9309 -2.0692  1.0952
13802TIP3   OH262896   1.517   2.879  27.256 -0.0111 -0.2230 -0.3528
13802TIP3    H162897   1.426   2.854  27.239  0.5646 -0.9631 -2.7706
13802TIP3    H262898   1.556   2.803  27.299 -0.6039  0.2567  1.0784
13803TIP3   OH262899   0.353   3.728   2.697 -0.3680  0.1571  0.0149
13803TIP3    H162900   0.410   3.652   2.681  0.3876  0.9714 -1.3587
13803TIP3    H262901   0.403   3.802   2.664 -1.0085  1.3093  1.5233
13804TIP3   OH262902   1.480   4.257  13.363  0.7777  0.3608  0.2216
13804TIP3    H162903   1.396   4.257  13.317  1.0238  0.5480 -0.2348
13804TIP3    H262904   1.480   4.175  13.412  0.3357  0.3510  0.2100
13805TIP3   OH262905   1.428   1.005  38.955 -0.0707  0.5614 -0.0186
13805TIP3    H162906   1.496   1.057  38.998  0.1805  0.3724 -0.1814
13805TIP3    H262907   1.453   1.005  38.863 -1.1407  1.7938 -0.3460
13806TIP3   OH262908   1.299   2.938  10.253 -0.5907 -0.7362 -0.1997
13806TIP3    H162909   1.309   3.033  10.263 -0.9849 -0.6589 -0.5192
13806TIP3    H262910   1.370   2.913  10.193 -1.5737 -0.3569 -1.5746
13807TIP3   OH262911   3.415   4.340  28.117  0.3082 -0.1551 -0.1332
13807TIP3    H162912   3.349   4.307  28.178 -0.5981 -0.8778 -1.4448
13807TIP3    H262913   3.364   4.390  28.052  1.2287  0.5114 -0.3620
13808TIP3   OH262914   4.308   1.976  28.870 -0.1037  0.1573 -0.6361
13808TIP3    H162915   4.275   2.065  28.882  0.6844  0.2806  0.7448
13808TIP3    H262916   4.388   1.973  28.921  0.4383 -1.0501 -1.5015
13809TIP3   OH262917   4.333   2.204  28.188 -0.1927 -1.0019 -0.4277
13809TIP3    H162918   4.313   2.112  28.170 -1.3806 -0.8591  0.0692
13809TIP3    H262919   4.320   2.212  28.283  1.9367 -0.7934 -0.1041
13810TIP3   OH262920   3.602   2.429  34.665  0.6303  0.1056 -0.0144
13810TIP3    H162921   3.525   2.470  34.704 -0.4924 -0.9907 -0.9776
13810TIP3    H262922   3.659   2.410  34.739 -0.3359  0.3315  0.8108
13811TIP3   OH262923   2.830   2.705  34.208  0.6511 -0.0219  0.3135
13811TIP3    H162924   2.745   2.678  34.173  0.5271  1.7192 -0.7977
13811TIP3    H262925   2.864   2.626  34.251 -0.8462 -1.1712 -0.5297
13812TIP3   OH262926   2.736   1.265  38.852 -0.4384  0.0806 -0.1525
13812TIP3    H162927   2.831   1.267  38.844 -0.1556  0.8744  2.6063
13812TIP3    H262928   2.707   1.217  38.774  2.0563  1.2403 -1.9228
13813TIP3   OH262929   3.227   2.865  40.266 -0.0422 -0.0767  0.0194
13813TIP3    H162930   3.217   2.817  40.348 -1.9696  3.2116  1.9235
13813TIP3    H262931   3.138   2.892  40.243  0.7503  1.2256 -1.7643
13814TIP3   OH262932   3.487   3.878  24.544 -0.4616 -0.0445  0.3327
13814TIP3    H162933   3.411   3.849  24.493 -0.8978  0.9964  0.3692
13814TIP3    H262934   3.494   3.814  24.615 -1.0080 -0.4266  0.0507
13815TIP3   OH262935   1.999   3.085  38.559 -0.1078 -0.6361  0.1111
13815TIP3    H162936   2.000   2.989  38.555 -0.5191 -0.6554  0.4485
13815TIP3    H262937   1.913   3.107  38.593 -0.2749 -0.1140 -0.6223
13816TIP3   OH262938   2.144   2.239  40.890 -0.2011  0.3463  0.1101
13816TIP3    H162939   2.214   2.215  40.829 -0.6060 -0.4943 -0.0390
13816TIP3    H262940   2.092   2.160  40.899 -0.5528  0.6679  1.0149
13817TIP3   OH262941   0.922   4.046  36.846  0.1732 -1.0940 -0.0446
13817TIP3    H162942   0.862   3.990  36.896  0.1142 -0.5002  0.5699
13817TIP3    H262943   0.888   4.134  36.859  0.3377 -0.8951 -0.9014
13818TIP3   OH262944   2.247   3.247  31.595 -0.2512  0.4140  0.0090
13818TIP3    H162945   2.222   3.336  31.618 -0.5886  0.2753  0.1828
13818TIP3    H262946   2.289   3.255  31.510 -3.9262  0.2325 -1.9949
13819TIP3   OH262947   0.580   2.020  41.586  0.6190  0.7239 -0.3353
13819TIP3    H162948   0.586   2.061  41.673 -2.4605  0.2757  0.2025
13819TIP3    H262949   0.543   2.089  41.530  0.2029  0.2480 -0.6524
13820TIP3   OH262950   2.057   1.788  33.003 -0.2237 -0.4115 -0.2224
13820TIP3    H162951   2.134   1.743  33.038  0.3242 -1.1399 -2.2255
13820TIP3    H262952   2.055   1.872  33.049  2.4483  0.1006 -0.8895
13821TIP3   OH262953   3.387   3.490  38.189 -0.4061 -0.0458 -0.0398
13821TIP3    H162954   3.474   3.451  38.191 -0.6202 -0.4833  1.2126
13821TIP3    H262955   3.386   3.551  38.262 -1.1686 -0.0783 -0.0177
13822TIP3   OH262956   2.153   4.092  27.212  0.2591  0.0683 -0.2981
13822TIP3    H162957   2.206   4.143  27.273  0.4655 -0.7541  0.2336
13822TIP3    H262958   2.211   4.022  27.182 -1.0797 -2.2153  2.0250
13823TIP3   OH262959   2.865   1.689   9.146 -0.0226 -0.0855  0.2349
13823TIP3    H162960   2.957   1.666   9.135 -0.3572 -1.3033 -0.1355
13823TIP3    H262961   2.856   1.775   9.104  0.5008 -0.8981 -1.6195
13824TIP3   OH262962   1.708   3.714  41.334  0.9650  0.1037  0.5656
13824TIP3    H162963   1.650   3.790  41.323  1.6656  0.6197  0.3792
13824TIP3    H262964   1.682   3.677  41.419  0.6440  0.5767  0.6799
13825TIP3   OH262965   0.699   1.137  12.934 -0.6118 -0.1137 -0.0960
13825TIP3    H162966   0.673   1.064  12.876 -1.2740  0.0055  0.0382
13825TIP3    H262967   0.676   1.106  13.022  2.1814 -1.1076  0.3886
13826TIP3   OH262968   3.759   2.508  28.119 -0.6689 -0.5346 -0.6736
13826TIP3    H162969   3.842   2.505  28.167 -1.1297  0.2383  0.2242
13826TIP3    H262970   3.733   2.417  28.110 -0.4511 -0.7220  0.3825
13827TIP3   OH262971   0.970   4.307  31.774 -0.2047 -0.4165  0.1617
13827TIP3    H162972   1.056   4.265  31.778 -1.7051 -3.6981  1.5242
13827TIP3    H262973   0.951   4.333  31.864 -0.1730  1.5164 -0.3367
13828TIP3   OH262974   3.811   2.419  25.464 -0.3188  0.0059  0.2998
13828TIP3    H162975   3.756   2.428  25.387 -1.0532 -0.1930  0.7923
13828TIP3    H262976   3.776   2.482  25.527  0.0310 -0.1027  0.6131
13829TIP3   OH262977   1.132   2.049  30.732 -0.3411 -0.1248  0.4353
13829TIP3    H162978   1.179   2.056  30.648  0.5234  0.0309  0.9214
13829TIP3    H262979   1.163   1.967  30.770  0.4046  0.5305  1.2746
13830TIP3   OH262980   2.609   4.060   2.757  0.1902 -0.1180 -0.2413
13830TIP3    H162981   2.542   4.052   2.825  0.3245 -2.3574 -0.2931
13830TIP3    H262982   2.658   3.977   2.761  3.3346  1.5837  0.1430
13831TIP3   OH262983   3.486   1.840   0.076  0.0465  0.1559  0.1808
13831TIP3    H162984   3.464   1.933   0.074 -3.0965 -0.5158 -0.8185
13831TIP3    H262985   3.547   1.829   0.003 -1.1291  1.1003 -0.9830
13832TIP3   OH262986   0.024   3.269  39.496  0.7604  0.5560  0.5569
13832TIP3    H162987  -0.025   3.211  39.555  0.7240  0.5245  0.4974
13832TIP3    H262988   0.046   3.213  39.421 -0.1971  0.8978 -0.0002
13833TIP3   OH262989   3.074   0.386  34.027  0.1874  0.4028  0.0229
13833TIP3    H162990   2.999   0.410  34.082 -0.4671 -1.4576  0.0386
13833TIP3    H262991   3.150   0.418  34.074 -0.2335 -2.1830  2.7941
13834TIP3   OH262992   0.048   2.285  41.047  0.3658  0.5633  0.1311
13834TIP3    H162993   0.142   2.282  41.064  0.3786  1.3890  0.2236
13834TIP3    H262994   0.026   2.197  41.015  1.2512  0.5165 -0.3592
13835TIP3   OH262995   3.992   0.010  34.864 -0.0645  0.0497  0.1839
13835TIP3    H162996   3.930   0.030  34.793  0.1361 -0.1152 -0.0389
13835TIP3    H262997   4.001  -0.085  34.861 -0.3909 -0.0000  0.7119
13836TIP3   OH262998   1.944   3.402  18.592  0.1327  0.4856 -0.1606
13836TIP3    H162999   1.879   3.457  18.636  0.7320  2.2816 -1.3991
13836TIP3    H263000   1.942   3.431  18.501  1.8763 -0.2095 -0.4625
13837TIP3   OH263001   1.343   1.540  10.604  0.8473 -0.2592  0.4749
13837TIP3    H163002   1.381   1.454  10.592  1.1959  0.0697 -0.9555
13837TIP3    H263003   1.251   1.530  10.579  0.5268 -0.5243  1.6970
13838TIP3   OH263004   3.605   0.737  32.245 -0.0161 -0.2554  0.6816
13838TIP3    H163005   3.604   0.828  32.214  2.8507 -0.0348  0.9521
13838TIP3    H263006   3.583   0.743  32.338 -1.3116 -0.0496  0.3797
13839TIP3   OH263007   1.981   2.966  31.884  0.2171 -0.0916 -0.1925
13839TIP3    H163008   2.068   2.968  31.923  0.0252  1.1729  0.2212
13839TIP3    H263009   1.924   3.001  31.952 -0.4395  0.1751 -0.8649
13840TIP3   OH263010   0.141   0.148  39.020  0.3501  0.6088 -0.0432
13840TIP3    H163011   0.228   0.146  38.980  1.4352  2.1713  2.0768
13840TIP3    H263012   0.150   0.096  39.100 -0.2085  2.0439  0.9904
13841TIP3   OH263013   1.995   1.782   9.882  0.3962 -0.1420 -0.7325
13841TIP3    H163014   1.921   1.843   9.882 -0.1179 -0.7482  0.3127
13841TIP3    H263015   2.031   1.787   9.970  0.1326 -1.5798 -0.5144
13842TIP3   OH263016   3.007   3.457  11.571 -0.5523  0.0958 -0.2978
13842TIP3    H163017   2.964   3.410  11.500 -0.6655  1.6937 -1.3395
13842TIP3    H263018   2.936   3.481  11.631 -0.8415  0.8549 -0.9200
13843TIP3   OH263019   4.198   0.567  22.597  0.2032  1.0248 -0.0822
13843TIP3    H163020   4.282   0.611  22.582  0.7321 -0.3631 -1.3830
13843TIP3    H263021   4.134   0.623  22.554  0.6427  1.3684 -0.3012
13844TIP3   OH263022   1.290   4.376   2.914  0.0179 -0.0420 -0.0750
13844TIP3    H163023   1.338   4.347   2.992  0.6473  1.5832  0.1861
13844TIP3    H263024   1.212   4.419   2.949  0.3313  0.7443 -0.3255
13845TIP3   OH263025   0.433   0.216   8.254  0.2541  0.4003  0.7354
13845TIP3    H163026   0.421   0.183   8.344  0.1333 -0.2446  0.4877
13845TIP3    H263027   0.473   0.143   8.207 -2.6731 -0.5426 -0.5617
13846TIP3   OH263028   0.852   1.963   2.275  0.1402 -0.4853  0.2528
13846TIP3    H163029   0.812   2.047   2.298  0.4957  0.0948 -1.1526
13846TIP3    H263030   0.904   1.939   2.352  1.5030  1.4961  0.0317
13847TIP3   OH263031   0.062   3.416  40.406  0.6350  0.1024  0.2669
13847TIP3    H163032   0.023   3.370  40.331  0.5374 -0.3636  0.5954
13847TIP3    H263033   0.134   3.466  40.369  0.4303  0.0676 -0.1801
13848TIP3   OH263034   3.303   1.805  29.644  0.6961  0.1563 -0.1013
13848TIP3    H163035   3.351   1.726  29.668  2.7906  1.0979 -0.9837
13848TIP3    H263036   3.269   1.786  29.556 -0.3985 -0.4195  0.4276
13849TIP3   OH263037   3.203   0.907  33.756  0.0029  0.8573 -0.3114
13849TIP3    H163038   3.127   0.963  33.740 -0.2592  0.4734 -0.4358
13849TIP3    H263039   3.251   0.951  33.826 -0.8993  0.5635  0.5101
13850TIP3   OH263040   0.687   2.059   0.507 -0.9626  0.0594 -0.1830
13850TIP3    H163041   0.663   2.022   0.591  0.7476  1.3667  0.9644
13850TIP3    H263042   0.761   2.006   0.477  0.0477  1.0827  0.3953
13851TIP3   OH263043   1.897   3.183  36.855  1.0945  0.4329 -0.2013
13851TIP3    H163044   1.832   3.237  36.900  1.6160  1.9582 -1.2128
13851TIP3    H263045   1.892   3.210  36.763  1.6182 -1.0061 -0.6778
13852TIP3   OH263046   1.479   1.246  36.532  0.4216  0.1175  0.5370
13852TIP3    H163047   1.503   1.261  36.624  0.3516  1.0571  0.4163
13852TIP3    H263048   1.395   1.201  36.536 -0.0463  1.0034  0.9420
13853TIP3   OH263049   0.356   3.963  36.725 -0.0953  0.1101 -0.0462
13853TIP3    H163050   0.370   4.016  36.803 -0.3858  1.0602 -0.6225
13853TIP3    H263051   0.369   3.873  36.754  1.5257  0.5587  0.7151
13854TIP3   OH263052   1.595   3.733  39.428 -0.0288 -0.7765  0.2079
13854TIP3    H163053   1.513   3.708  39.386 -0.5090  2.0553 -0.7275
13854TIP3    H263054   1.568   3.775  39.510  0.5357 -0.5830  0.2965
13855TIP3   OH263055   1.396   1.782  12.171  0.2493  0.0266  0.1188
13855TIP3    H163056   1.443   1.863  12.191 -1.0401  0.2481  2.6532
13855TIP3    H263057   1.465   1.719  12.152  1.3678  1.2497 -0.0602
13856TIP3   OH263058   0.435   2.555  10.747 -0.0981 -0.0761 -0.2653
13856TIP3    H163059   0.448   2.461  10.753 -1.1446 -0.1490  1.5940
13856TIP3    H263060   0.388   2.578  10.827 -1.3278  1.7738 -1.4443
13857TIP3   OH263061   2.243   3.333  13.567 -0.0011  0.3083  0.3986
13857TIP3    H163062   2.276   3.252  13.606 -2.1873 -2.3356 -2.6993
13857TIP3    H263063   2.163   3.353  13.617  0.3943  0.4119  0.9968
13858TIP3   OH263064   0.925   3.649  11.996  0.5829  0.7286  0.4523
13858TIP3    H163065   1.013   3.653  12.033  1.2143  1.5579 -1.0699
13858TIP3    H263066   0.935   3.678  11.905 -1.5101  2.5722  0.7129
13859TIP3   OH263067   2.043   1.344  10.528  0.5761  0.1222  0.1875
13859TIP3    H163068   2.110   1.276  10.530  0.1248 -0.3268  0.5223
13859TIP3    H263069   2.064   1.402  10.601  0.2698 -0.3486  0.6552
13860TIP3   OH263070   4.173   0.259   2.034  0.9961 -0.4030  0.4671
13860TIP3    H163071   4.197   0.280   1.943 -0.8280  0.2861  0.0983
13860TIP3    H263072   4.106   0.191   2.025 -0.2079  0.6637  1.2197
13861TIP3   OH263073   3.315   1.469  11.633  0.4840 -0.0748 -0.1361
13861TIP3    H163074   3.293   1.388  11.588  1.5433 -1.2819  1.4057
13861TIP3    H263075   3.347   1.527  11.564  1.6063 -1.6980 -1.0411
13862TIP3   OH263076   1.870   2.578  13.844  0.1569  0.4987  0.1948
13862TIP3    H163077   1.954   2.535  13.858  0.7457  1.4411 -0.2987
13862TIP3    H263078   1.893   2.670  13.827 -1.0105  0.8960  0.6296
13863TIP3   OH263079   3.782   0.507   0.635  0.5535  0.1909  0.0886
13863TIP3    H163080   3.693   0.540   0.644  0.6507  0.8449 -1.2333
13863TIP3    H263081   3.838   0.582   0.653  0.9421 -0.6447  2.8713
13864TIP3   OH263082   1.390   0.837  12.850  0.3081 -0.3173  0.1312
13864TIP3    H163083   1.473   0.802  12.821  0.3254 -1.1245  1.1004
13864TIP3    H263084   1.334   0.760  12.864 -1.3952  0.2541 -2.6452
13865TIP3   OH263085   4.189   1.842  28.266 -0.4125 -0.8501  0.1848
13865TIP3    H163086   4.151   1.761  28.300 -0.9107 -0.0275  1.6792
13865TIP3    H263087   4.150   1.911  28.319  1.2866  0.2330  0.1189
13866TIP3   OH263088   4.325   4.124  34.063  0.4587  0.3280  0.2486
13866TIP3    H163089   4.231   4.132  34.045  0.2434 -1.0858  0.6262
13866TIP3    H263090   4.353   4.213  34.085 -0.5153  0.9945 -1.0873
13867TIP3   OH263091   3.675   2.029  11.507 -0.0352 -0.3598  0.8369
13867TIP3    H163092   3.749   1.973  11.484  1.0453  0.9543  1.0662
13867TIP3    H263093   3.708   2.088  11.574 -1.0959  0.6800  0.4855
13868TIP3   OH263094   4.058   1.422   6.060  0.0764 -0.5331  0.3425
13868TIP3    H163095   4.116   1.479   6.008  0.6088 -1.2194  0.1509
13868TIP3    H263096   3.983   1.476   6.082  0.2817  0.0528 -0.3667
13869TIP3   OH263097   1.358   3.067  38.559 -0.5558 -0.7941  0.2122
13869TIP3    H163098   1.339   2.987  38.609  0.3929 -2.1827 -1.5113
13869TIP3    H263099   1.448   3.054  38.528 -0.8499  0.3290 -1.2112
13870TIP3   OH263100   1.893   2.129  41.255  0.1843  0.2293 -0.2308
13870TIP3    H163101   1.824   2.136  41.322 -0.3875  2.5894 -0.9992
13870TIP3    H263102   1.846   2.109  41.175  0.4695  1.0921 -0.6176
13871TIP3   OH263103   0.667   0.268   1.770  0.2792  0.1388  0.3386
13871TIP3    H163104   0.585   0.234   1.733  1.0173 -0.4267 -0.8277
13871TIP3    H263105   0.641   0.303   1.856 -0.8369 -1.7976  0.8687
13872TIP3   OH263106   2.628   1.592   8.825  0.4851  0.0901 -0.1166
13872TIP3    H163107   2.666   1.579   8.912  0.3996 -0.6379 -0.1838
13872TIP3    H263108   2.640   1.685   8.807 -0.3818  0.4628  1.0950
13873TIP3   OH263109   3.615   3.310  30.479 -0.3307  0.3536 -0.1155
13873TIP3    H163110   3.615   3.225  30.437 -1.3556  0.7683 -1.0069
13873TIP3    H263111   3.626   3.291  30.572 -1.1350 -0.7978 -0.2380
13874TIP3   OH263112   1.037   1.146  28.320 -0.7776 -0.1344 -0.5417
13874TIP3    H163113   1.040   1.127  28.414 -1.3613  1.2574 -0.2083
13874TIP3    H263114   1.006   1.066  28.279 -0.8923 -0.6296  0.4981
13875TIP3   OH263115   1.505   3.285  16.850  0.6612 -0.0879  1.1639
13875TIP3    H163116   1.433   3.241  16.896  0.7673 -0.4245  1.0111
13875TIP3    H263117   1.502   3.251  16.761 -0.8533  2.1035  0.3002
13876TIP3   OH263118   1.000   0.966  15.965 -0.2582 -0.5401 -0.6087
13876TIP3    H163119   1.023   0.934  15.878 -1.0837 -1.7634 -0.4164
13876TIP3    H263120   0.910   0.997  15.956 -0.0650  0.0977 -0.3755
13877TIP3   OH263121   2.452   0.131   3.474  0.3546 -0.5285 -0.0209
13877TIP3    H163122   2.478   0.115   3.383 -0.5309 -0.4650 -0.2917
13877TIP3    H263123   2.359   0.151   3.469  0.2380 -0.7981  0.9386
13878TIP3   OH263124   4.146   1.276  38.161  0.6142 -0.3163 -0.7217
13878TIP3    H163125   4.234   1.297  38.192  0.4792 -1.1626  0.3008
13878TIP3    H263126   4.160   1.216  38.087  0.9078  0.1111 -1.0121
13879TIP3   OH263127   3.111   2.315  33.449  0.5048 -0.2255 -0.3059
13879TIP3    H163128   3.017   2.317  33.468  0.3763  3.2066 -0.6093
13879TIP3    H263129   3.119   2.259  33.371 -1.1666 -1.1018  0.1054
13880TIP3   OH263130   1.882   0.193  15.355  0.0247 -0.7115  0.7484
13880TIP3    H163131   1.951   0.251  15.321 -2.3914  1.2915 -1.1372
13880TIP3    H263132   1.856   0.233  15.438  0.7643 -1.1714  1.2064
13881TIP3   OH263133   1.643   0.959   3.702 -0.6267  0.2514  0.2230
13881TIP3    H163134   1.636   1.042   3.750 -0.5735 -1.2143  2.9917
13881TIP3    H263135   1.724   0.966   3.653 -1.0545  2.1444 -0.2857
13882TIP3   OH263136   1.031   3.123  40.706  0.2679 -0.0356 -0.1083
13882TIP3    H163137   1.033   3.187  40.635  1.3590 -0.8108 -0.8095
13882TIP3    H263138   0.945   3.133  40.745 -0.0172  1.0366 -0.9583
13883TIP3   OH263139   4.329   0.393  28.518  0.1042  0.2768  0.2610
13883TIP3    H163140   4.293   0.416  28.603 -1.5226  0.5069 -0.4529
13883TIP3    H263141   4.409   0.345  28.538  0.5386  1.5684  1.8788
13884TIP3   OH263142   4.243   0.748  28.459  0.0250  0.4432 -0.0513
13884TIP3    H163143   4.176   0.679  28.463 -0.1732  0.6692  0.9530
13884TIP3    H263144   4.307   0.723  28.526 -0.4024  1.5613  0.8147
13885TIP3   OH263145   3.742   0.054   6.806  0.3133  0.2949  0.3944
13885TIP3    H163146   3.768   0.142   6.781 -1.6427  0.7632 -0.1260
13885TIP3    H263147   3.702   0.063   6.892 -0.7432  0.0803 -0.0636
13886TIP3   OH263148   2.484   2.220  38.736 -0.2079  0.2950 -0.3682
13886TIP3    H163149   2.570   2.181  38.719  0.3154  0.9760  0.6324
13886TIP3    H263150   2.427   2.145  38.752  0.2752 -0.1519 -0.6879
13887TIP3   OH263151   3.384   3.752  27.901  0.8983  0.3636 -0.1233
13887TIP3    H163152   3.310   3.708  27.942  1.5515  0.2893  1.0234
13887TIP3    H263153   3.412   3.693  27.831  0.2218  0.1296 -0.1956
13888TIP3   OH263154   1.074   0.180  34.126  0.0865 -0.3446 -0.0643
13888TIP3    H163155   1.163   0.213  34.132  0.3848 -0.8609 -1.2590
13888TIP3    H263156   1.033   0.235  34.059 -0.7478  0.3931  1.0165
13889TIP3   OH263157   3.529   2.216   7.367  0.3348  0.0687  0.0331
13889TIP3    H163158   3.503   2.300   7.329 -0.6319 -0.0150  0.4901
13889TIP3    H263159   3.555   2.238   7.457 -0.2729 -0.1745  0.2681
13890TIP3   OH263160   0.884   3.870  35.464  0.2159  0.1102 -0.3271
13890TIP3    H163161   0.824   3.826  35.524 -0.4754  0.8491 -0.4511
13890TIP3    H263162   0.945   3.917  35.520  0.6288 -0.5626 -0.2024
13891TIP3   OH263163   3.744   1.493  36.441 -0.7935  0.3250 -0.1193
13891TIP3    H163164   3.734   1.551  36.365 -0.3896 -1.1218 -1.3337
13891TIP3    H263165   3.664   1.440  36.441 -0.5431 -0.0588  0.1296
13892TIP3   OH263166   0.993   0.397   4.870 -1.1679  0.8369 -0.5375
13892TIP3    H163167   0.932   0.447   4.815 -0.0831 -0.4845 -3.0951
13892TIP3    H263168   1.078   0.408   4.827 -0.0855  0.3289  1.3532
13893TIP3   OH263169   4.096   4.354  11.830 -0.4227  0.2702  0.0893
13893TIP3    H163170   4.063   4.340  11.919  1.3220 -0.0433  0.7314
13893TIP3    H263171   4.188   4.331  11.835 -0.0825  1.1060 -1.6121
13894TIP3   OH263172   1.437   0.938  40.024 -0.3295  0.1099 -0.8708
13894TIP3    H163173   1.438   1.002  39.953  0.6831  0.1275 -0.8641
13894TIP3    H263174   1.346   0.936  40.053 -0.6860  0.3773 -1.9112
13895TIP3   OH263175   3.486   2.776  12.591 -0.5619  0.1991 -0.0072
13895TIP3    H163176   3.507   2.748  12.502  0.7709  0.4274  0.2017
13895TIP3    H263177   3.521   2.866  12.597 -0.0028 -0.0602  0.9400
13896TIP3   OH263178   4.345   0.969  12.536  0.2113 -0.2702  0.7252
13896TIP3    H163179   4.282   1.041  12.531  1.9898  1.6469  3.1700
13896TIP3    H263180   4.376   0.958  12.447 -0.3977  1.7687  0.1967
13897TIP3   OH263181   1.196   4.046   0.387  0.1889 -0.1782 -0.1167
13897TIP3    H163182   1.209   4.124   0.440  0.1181  0.3012 -0.7934
13897TIP3    H263183   1.230   3.974   0.440 -3.7232 -0.4190  2.5414
13898TIP3   OH263184   2.545   1.966  38.818  0.0514 -0.4433  0.1193
13898TIP3    H163185   2.479   1.911  38.776  1.0983 -0.9031 -0.9617
13898TIP3    H263186   2.615   1.905  38.842  0.6256  0.2170  0.1372
13899TIP3   OH263187   1.112   0.725  41.226  0.1166  0.0505 -0.0107
13899TIP3    H163188   1.119   0.704  41.319 -1.1375  0.8704  0.2911
13899TIP3    H263189   1.198   0.757  41.201  0.7720 -1.1717  0.5915
13900TIP3   OH263190   3.745   2.173   8.357 -0.3419  0.5321 -0.0181
13900TIP3    H163191   3.722   2.153   8.448  0.9281 -1.6108 -0.1122
13900TIP3    H263192   3.663   2.163   8.309 -0.5753 -0.5596  0.5738
13901TIP3   OH263193   0.997   2.953   2.306  0.5130 -0.4256  0.0307
13901TIP3    H163194   0.907   2.957   2.340  0.8018 -0.2388  0.7868
13901TIP3    H263195   1.028   3.043   2.311  0.8869 -0.5632  0.1510
13902TIP3   OH263196   0.140   4.189   0.578  0.2412 -0.5671  0.1363
13902TIP3    H163197   0.163   4.136   0.654 -1.0964 -2.4454 -0.7018
13902TIP3    H263198   0.195   4.155   0.507 -2.0331 -2.3262 -0.8935
13903TIP3   OH263199   2.380   1.456   9.737 -0.0695  0.0411 -0.5851
13903TIP3    H163200   2.452   1.396   9.757  2.4106  3.7177  2.8718
13903TIP3    H263201   2.336   1.471   9.820 -1.0769  2.3668 -1.4405
13904TIP3   OH263202   4.403   2.043  40.934  0.2993  0.3451  0.7385
13904TIP3    H163203   4.493   2.012  40.942  1.2175  2.4188 -0.6390
13904TIP3    H263204   4.354   1.988  40.995  2.2081 -1.8123  0.4879
13905TIP3   OH263205   0.700   0.825  39.336  0.1997  0.0272 -0.3208
13905TIP3    H163206   0.606   0.835  39.323  0.2429  0.1224 -0.5682
13905TIP3    H263207   0.726   0.755  39.276  0.7943  2.0162 -2.5457
13906TIP3   OH263208   3.760   0.820  12.635 -0.3815  0.2344  0.2839
13906TIP3    H163209   3.729   0.903  12.598 -0.3772 -0.3144 -1.0286
13906TIP3    H263210   3.845   0.806  12.594 -1.2540 -1.3771 -1.1398
13907TIP3   OH263211   2.029   2.584  40.369 -0.4636 -0.0542  0.0861
13907TIP3    H163212   2.051   2.605  40.460 -0.3754 -0.1607  0.0928
13907TIP3    H263213   1.938   2.611  40.359 -0.4869 -0.0791  0.2203
13908TIP3   OH263214   3.247   2.366  35.689  0.6049 -0.2533  0.0060
13908TIP3    H163215   3.277   2.454  35.666 -0.4320  0.4215  1.1466
13908TIP3    H263216   3.160   2.359  35.649  0.1332 -0.2491  0.9954
13909TIP3   OH263217   2.647   0.262  30.876  0.1398 -0.4525 -0.3087
13909TIP3    H163218   2.594   0.308  30.810 -1.0489  0.1801  1.0427
13909TIP3    H263219   2.583   0.213  30.927  1.0033 -0.5768  0.6743
13910TIP3   OH263220   1.979   4.008  29.099  0.5056 -0.1805 -0.2222
13910TIP3    H163221   2.040   4.064  29.147 -0.9375  0.4165  1.0027
13910TIP3    H263222   1.954   4.059  29.023 -0.9848  1.0322  1.0082
13911TIP3   OH263223   3.077   1.022  31.985  0.4333 -0.1541 -0.2417
13911TIP3    H163224   3.153   1.069  31.950  0.4711  0.1440  0.2280
13911TIP3    H263225   3.105   0.931  31.989  0.8305 -0.0248  0.0692
13912TIP3   OH263226   1.434   1.778   4.459 -0.1917 -0.0486 -0.1127
13912TIP3    H163227   1.380   1.793   4.381 -0.5390 -0.9320 -0.0567
13912TIP3    H263228   1.441   1.864   4.500 -4.0592 -0.2817  1.4944
13913TIP3   OH263229   1.551   3.827   1.070 -0.1408  0.2972 -0.0463
13913TIP3    H163230   1.635   3.803   1.110 -0.7478 -0.1033  0.9956
13913TIP3    H263231   1.528   3.752   1.015 -0.1513  0.1231  0.1968
13914TIP3   OH263232   0.388   3.259   4.580  0.3499  0.5378 -0.3790
13914TIP3    H163233   0.307   3.243   4.628  0.5658  1.0745  0.1806
13914TIP3    H263234   0.457   3.246   4.645  0.6864  0.5322 -0.7361
13915TIP3   OH263235   2.436   3.190  27.988  0.1590  0.3004  0.3110
13915TIP3    H163236   2.365   3.127  27.979 -1.0132  1.6077  0.1686
13915TIP3    H263237   2.421   3.232  28.072  0.3690  1.0556 -0.0209
13916TIP3   OH263238   3.502   1.964  33.728 -0.0267  0.7613  0.5882
13916TIP3    H163239   3.425   1.910  33.742  1.5681 -2.3931 -1.6248
13916TIP3    H263240   3.522   2.000  33.814 -1.3306 -2.1044  2.2255
13917TIP3   OH263241   0.860   1.386  34.555 -0.2977  0.1176  0.2131
13917TIP3    H163242   0.885   1.364  34.645  0.3774 -0.0386 -0.0081
13917TIP3    H263243   0.892   1.313  34.503  2.3646  1.7534 -0.6054
13918TIP3   OH263244   0.323   1.215  32.634 -0.1911  0.2525  0.2710
13918TIP3    H163245   0.375   1.252  32.563 -0.7646 -0.7499 -0.6894
13918TIP3    H263246   0.307   1.289  32.693 -0.2630  1.2446 -0.9613
13919TIP3   OH263247   1.845   0.646  40.747  0.4931  0.1754  0.4683
13919TIP3    H163248   1.831   0.735  40.715  0.2493 -0.2053 -0.5296
13919TIP3    H263249   1.759   0.618  40.778 -0.7214 -1.3673 -3.6166
13920TIP3   OH263250   0.745   3.821  40.392  0.6060  0.2183  0.6106
13920TIP3    H163251   0.774   3.730  40.382 -0.3008 -0.0921  0.6773
13920TIP3    H263252   0.695   3.821  40.474  0.4074  0.7245  0.4940
13921TIP3   OH263253   0.951   3.000  32.712 -0.2126 -0.8282  0.4570
13921TIP3    H163254   1.025   3.026  32.767  1.2665 -0.1675 -1.7043
13921TIP3    H263255   0.989   2.940  32.647 -1.1787  0.6447 -1.6007
13922TIP3   OH263256   2.325   2.949  17.909 -0.1753  0.2910  0.1163
13922TIP3    H163257   2.368   2.875  17.865 -3.5504 -0.5721 -2.0718
13922TIP3    H263258   2.318   3.017  17.841  1.8975  2.3603  1.7877
13923TIP3   OH263259   3.140   2.142  33.659  0.3153 -0.4281 -0.1862
13923TIP3    H163260   3.200   2.184  33.597 -1.5805  1.9150 -0.6019
13923TIP3    H263261   3.057   2.138  33.612 -0.2898 -2.0891  0.9455
13924TIP3   OH263262   3.888   2.756  24.674 -0.2688  0.4950  0.2755
13924TIP3    H163263   3.972   2.711  24.661  1.5663  3.2158  1.6938
13924TIP3    H263264   3.860   2.780  24.585  1.6133  1.3908 -0.1361
13925TIP3   OH263265   3.959   3.044   6.938 -0.2755  0.2084  0.0433
13925TIP3    H163266   3.884   3.098   6.913 -0.6231 -0.0818  0.4541
13925TIP3    H263267   3.930   2.997   7.016  0.5713  0.6056  0.6146
13926TIP3   OH263268   3.675   0.894   9.865 -0.0392  0.2556  0.0890
13926TIP3    H163269   3.639   0.808   9.888 -1.3818  0.8264  0.2316
13926TIP3    H263270   3.605   0.936   9.814 -0.0249  1.8305  1.2960
13927TIP3   OH263271   3.649   2.269  35.731 -0.0491 -0.3590  0.3420
13927TIP3    H163272   3.567   2.257  35.683 -0.3831 -2.2129  1.2969
13927TIP3    H263273   3.638   2.219  35.812  1.8327 -0.2505  0.7217
13928TIP3   OH263274   1.912   2.362   3.584  0.2816 -0.1865  0.0857
13928TIP3    H163275   2.001   2.329   3.590 -0.5463 -2.4145  1.0035
13928TIP3    H263276   1.902   2.420   3.659  0.9543  0.1227 -0.0573
13929TIP3   OH263277   0.001   4.010  39.183  0.0531 -0.5166 -0.2018
13929TIP3    H163278   0.011   3.920  39.152 -1.4535 -0.4014 -1.1426
13929TIP3    H263279  -0.093   4.019  39.201  0.1317  0.9452 -0.3920
13930TIP3   OH263280   3.542   2.691   9.597  0.2006  0.0915  0.0480
13930TIP3    H163281   3.449   2.694   9.577 -0.2496  1.6965  2.0792
13930TIP3    H263282   3.581   2.755   9.539 -0.1175  0.1351 -0.1188
13931TIP3   OH263283   3.387   1.275  10.855  0.4318 -0.4254  0.2136
13931TIP3    H163284   3.371   1.277  10.760 -0.6613 -1.6444  0.3343
13931TIP3    H263285   3.396   1.367  10.880 -0.7053  0.0169 -0.8707
13932TIP3   OH263286   0.318   1.448  38.289  0.5027 -0.3559  0.0534
13932TIP3    H163287   0.394   1.397  38.262 -0.3390 -2.2406  1.0671
13932TIP3    H263288   0.253   1.434  38.221  0.4988 -0.0536 -0.0100
13933TIP3   OH263289   4.335   1.969  26.313  0.0541  0.0240  0.7418
13933TIP3    H163290   4.374   1.885  26.336  1.6321  0.0472 -1.5235
13933TIP3    H263291   4.402   2.034  26.335 -0.6425  0.5801  1.2646
13934TIP3   OH263292   1.286   0.256  35.923 -0.1502 -0.0595 -0.1253
13934TIP3    H163293   1.251   0.313  35.991 -0.0682 -0.7989  0.5505
13934TIP3    H263294   1.218   0.255  35.856 -0.4142  0.3568  0.1287
13935TIP3   OH263295   3.879   0.711   5.131 -0.2884 -0.4662 -0.0124
13935TIP3    H163296   3.811   0.645   5.145  0.1014 -1.0230 -0.6770
13935TIP3    H263297   3.939   0.699   5.204 -0.4086 -0.6062  0.0637
13936TIP3   OH263298   3.785   3.429  35.877 -0.1920  0.2692  0.5070
13936TIP3    H163299   3.806   3.481  35.954  0.0643  0.5219  0.2712
13936TIP3    H263300   3.827   3.475  35.805  2.6104 -1.7802  0.6536
13937TIP3   OH263301   3.063   1.722  27.733  0.5540 -0.2901  0.2161
13937TIP3    H163302   3.095   1.670  27.807 -1.7381  0.7616  2.0753
13937TIP3    H263303   3.036   1.804  27.772 -3.6538 -0.8076 -1.1681
13938TIP3   OH263304   1.488   4.259   2.232  0.0237  0.6513 -0.0862
13938TIP3    H163305   1.498   4.199   2.306 -2.7283 -0.8111 -0.7274
13938TIP3    H263306   1.567   4.247   2.180  0.9841  0.0012  1.4711
13939TIP3   OH263307   2.436   0.857  32.014 -0.0995 -0.0198  0.1489
13939TIP3    H163308   2.420   0.947  32.043  0.1012  0.0850 -0.0623
13939TIP3    H263309   2.463   0.810  32.093  2.5827  0.7549 -0.2060
13940TIP3   OH263310   0.191   4.010  28.704 -0.6028  0.3962 -0.2518
13940TIP3    H163311   0.270   3.956  28.713 -0.4668  0.5632 -0.4338
13940TIP3    H263312   0.145   3.999  28.787 -0.7654 -0.2958 -0.4212
13941TIP3   OH263313   0.855   3.075  33.710  0.1574  0.2784 -0.2237
13941TIP3    H163314   0.909   3.000  33.686 -1.0610 -0.4388 -0.8047
13941TIP3    H263315   0.766   3.049  33.687 -0.4497  1.4214  0.7292
13942TIP3   OH263316   0.238   3.592  39.163 -0.0607  0.0041 -0.0148
13942TIP3    H163317   0.307   3.586  39.098 -0.0737  1.0939 -0.1484
13942TIP3    H263318   0.248   3.513  39.216  0.9862 -0.0819 -0.3189
13943TIP3   OH263319   2.820   3.255   1.796 -0.6576 -0.3584  0.1702
13943TIP3    H163320   2.904   3.269   1.839 -1.2463  0.6087  1.0449
13943TIP3    H263321   2.826   3.167   1.760  0.9861 -0.0474 -0.3941
13944TIP3   OH263322   0.368   0.157  30.130  0.8096  0.2216 -0.2818
13944TIP3    H163323   0.303   0.136  30.197  0.6808  1.6970  0.0939
13944TIP3    H263324   0.435   0.089  30.140  0.3858 -0.0714  0.7864
13945TIP3   OH263325   0.830   0.572   6.368  0.1937 -0.3517 -0.0354
13945TIP3    H163326   0.840   0.477   6.375  1.7497 -0.2579 -0.6327
13945TIP3    H263327   0.919   0.606   6.375 -0.4710  1.1898  1.5594
13946TIP3   OH263328   1.499   2.914  41.282  1.1080  0.2014 -0.2673
13946TIP3    H163329   1.419   2.890  41.235  1.2526  1.2419 -1.0868
13946TIP3    H263330   1.470   2.980  41.345  1.1132 -0.3837  0.3667
13947TIP3   OH263331   1.315   0.537  38.742 -0.0139 -0.5277  0.6163
13947TIP3    H163332   1.403   0.501  38.741  0.1129 -0.2194 -0.8745
13947TIP3    H263333   1.264   0.480  38.684 -0.1848  0.7105 -0.5039
13948TIP3   OH263334   1.902   4.303  11.057 -0.0186  0.3024 -0.3719
13948TIP3    H163335   1.825   4.360  11.064  0.6528  1.0847  1.0496
13948TIP3    H263336   1.947   4.312  11.141  0.4118 -1.9404 -0.2957
13949TIP3   OH263337   3.495   2.813  29.192  0.2545 -0.1872 -0.1758
13949TIP3    H163338   3.497   2.859  29.108 -0.2374 -0.2535 -0.2267
13949TIP3    H263339   3.583   2.824  29.228 -0.2371  2.0423  0.4972
13950TIP3   OH263340   0.875   0.720   1.790 -0.2267  0.6830  0.1450
13950TIP3    H163341   0.865   0.634   1.748 -1.5469  0.8060  0.1688
13950TIP3    H263342   0.906   0.700   1.878  0.7785  0.3192 -0.2749
13951TIP3   OH263343   0.777   1.979   3.980 -0.2811 -0.5105  0.2511
13951TIP3    H163344   0.816   1.892   3.980 -0.0665 -0.4291 -0.9356
13951TIP3    H263345   0.830   2.030   3.919  0.7588  1.0080  2.2740
13952TIP3   OH263346   3.046   2.105   5.615  0.0824 -0.9510  0.2960
13952TIP3    H163347   2.977   2.100   5.548  1.3234  2.5925 -1.4950
13952TIP3    H263348   3.020   2.180   5.670  1.8660 -0.3187  0.3232
13953TIP3   OH263349   0.059   3.718  12.483 -0.4645 -0.5024  0.1549
13953TIP3    H163350   0.105   3.760  12.556  1.0691  0.2849 -1.1867
13953TIP3    H263351   0.089   3.627  12.485 -1.9537 -0.9949  1.6454
13954TIP3   OH263352   3.652   4.268  35.389 -0.4516 -0.4561 -0.1584
13954TIP3    H163353   3.720   4.238  35.329  2.5462  3.1666  1.0245
13954TIP3    H263354   3.657   4.207  35.463 -0.1525 -1.5531 -1.0550
13955TIP3   OH263355   1.042   1.888  37.711 -0.5256  0.3998  0.6731
13955TIP3    H163356   0.987   1.861  37.784 -1.2070  0.3516  0.1541
13955TIP3    H263357   1.083   1.807  37.680  0.8224  0.5948  1.8216
13956TIP3   OH263358   2.214   1.551  36.777 -0.1661  0.6714 -0.3742
13956TIP3    H163359   2.188   1.598  36.699 -1.4144 -0.2847 -0.5659
13956TIP3    H263360   2.292   1.502  36.751  0.1829  1.3648 -0.6387
13957TIP3   OH263361   2.887   0.459   1.900  0.9734  0.2057 -0.2196
13957TIP3    H163362   2.978   0.464   1.870 -0.0358  1.0318 -3.5590
13957TIP3    H263363   2.853   0.547   1.888 -0.4312 -0.2348  0.3558
13958TIP3   OH263364   1.937   1.193   6.357  0.3764 -0.0287  0.6608
13958TIP3    H163365   2.010   1.225   6.303  2.0873  0.1873  2.9310
13958TIP3    H263366   1.869   1.259   6.346  1.9333  1.7665  1.2811
13959TIP3   OH263367   1.157   1.328  41.645 -0.0008 -0.0408 -0.3236
13959TIP3    H163368   1.221   1.387  41.604 -0.8510  2.3838  1.6074
13959TIP3    H263369   1.088   1.318  41.578  1.2325 -0.7792 -1.5347
13960TIP3   OH263370   3.216   3.972   4.775  0.2147  0.2915  0.0877
13960TIP3    H163371   3.127   3.944   4.753  0.6154 -1.0020  0.0051
13960TIP3    H263372   3.211   3.996   4.867  0.2695 -2.1911  0.8184
13961TIP3   OH263373   1.386   4.179  13.783  0.1696 -0.0967  0.1446
13961TIP3    H163374   1.457   4.204  13.842 -1.2247  0.3345  1.6954
13961TIP3    H263375   1.395   4.084  13.773  2.7370  0.2511 -2.1367
13962TIP3   OH263376   3.923   3.731  38.499 -0.5514  0.3754 -0.0470
13962TIP3    H163377   3.919   3.760  38.590 -1.3950  1.4772 -0.4026
13962TIP3    H263378   4.012   3.752  38.470 -0.6589  1.1855  0.1788
13963TIP3   OH263379   0.114   2.642  13.631  0.3787  0.5094 -0.0451
13963TIP3    H163380   0.134   2.554  13.599 -1.8887  0.3204 -1.0697
13963TIP3    H263381   0.164   2.649  13.713  0.0230 -2.0213  0.4761
13964TIP3   OH263382   0.432   0.462   7.860  0.0439 -0.3021 -0.7592
13964TIP3    H163383   0.349   0.457   7.908  1.4288  1.4015  2.1004
13964TIP3    H263384   0.464   0.371   7.857 -0.6729 -0.6204  0.5671
13965TIP3   OH263385   0.101   2.995  12.783  0.6014 -0.7899 -0.2492
13965TIP3    H163386   0.181   2.956  12.818  1.0072 -0.2490 -0.5612
13965TIP3    H263387   0.076   2.936  12.711  1.1085 -0.5840 -0.6008
13966TIP3   OH263388   4.081   1.959   8.074  0.2782  0.4322  0.3284
13966TIP3    H163389   4.061   2.013   8.150 -0.2038 -0.4588  0.8595
13966TIP3    H263390   4.173   1.935   8.086  0.2866  0.5393  0.4818
13967TIP3   OH263391   1.393   3.233   8.422  0.0068  0.3101  0.7313
13967TIP3    H163392   1.337   3.156   8.432 -1.0706  1.0759  0.8128
13967TIP3    H263393   1.471   3.213   8.473 -0.2689 -0.7105  0.7763
13968TIP3   OH263394   0.184   2.979  40.333  0.3975 -0.0231  0.1453
13968TIP3    H163395   0.216   2.897  40.295  0.4866 -0.0125  0.1965
13968TIP3    H263396   0.110   2.952  40.387  0.5628 -0.0976  0.3341
13969TIP3   OH263397   0.287   1.154  28.955  0.0814  0.8615 -0.1301
13969TIP3    H163398   0.304   1.080  29.013 -1.0350 -0.5332 -1.4668
13969TIP3    H263399   0.370   1.170  28.911 -0.0451 -0.7974 -1.0631
13970TIP3   OH263400   2.725   2.770  12.060 -0.0639 -0.4582 -0.5219
13970TIP3    H163401   2.758   2.763  12.149 -0.5570 -0.0025 -0.2990
13970TIP3    H263402   2.630   2.778  12.070 -0.1737 -0.9667 -1.1141
13971TIP3   OH263403   2.425   2.348  29.946 -0.2002 -0.0368  0.2502
13971TIP3    H163404   2.397   2.438  29.932 -1.3318 -0.0935  1.7971
13971TIP3    H263405   2.351   2.307  29.991  0.5937 -1.5213  0.2633
13972TIP3   OH263406   2.872   2.854  36.756  0.0373  0.4395  0.3169
13972TIP3    H163407   2.849   2.813  36.839 -1.3280  1.3053  0.3915
13972TIP3    H263408   2.911   2.783  36.705 -0.2028 -0.3903  1.2536
13973TIP3   OH263409   3.383   3.924  35.026  0.0298  0.7601  0.0139
13973TIP3    H163410   3.317   3.889  35.085  0.3587  1.3709  0.7655
13973TIP3    H263411   3.398   4.013  35.057  2.1391  0.2410  0.7097
13974TIP3   OH263412   3.910   3.070  26.568 -0.1443  0.0642  0.7837
13974TIP3    H163413   3.850   3.092  26.640 -0.1546 -0.2776  0.8817
13974TIP3    H263414   3.970   3.006  26.606  1.6250  1.9428  1.3174
13975TIP3   OH263415   4.092   1.909  33.384  0.1082  0.3683 -0.0349
13975TIP3    H163416   4.014   1.873  33.427 -0.7307 -0.0781 -1.8650
13975TIP3    H263417   4.075   2.004  33.381 -0.4721  0.2526 -0.6068
13976TIP3   OH263418   1.103   0.876  39.607 -0.2050  0.2155  0.1423
13976TIP3    H163419   1.140   0.843  39.525  1.5804 -2.5101  1.8363
13976TIP3    H263420   1.178   0.879  39.667 -1.9638 -1.4811  2.6280
13977TIP3   OH263421   2.799   0.476  31.426  0.8913 -0.0525 -0.4575
13977TIP3    H163422   2.890   0.479  31.455  0.8732  3.4561 -0.3387
13977TIP3    H263423   2.749   0.514  31.498 -0.3206  0.4275 -1.5113
13978TIP3   OH263424   2.018   2.237  29.712  0.2965  0.1896  0.4539
13978TIP3    H163425   2.025   2.185  29.632 -0.2444 -0.6242  0.9283
13978TIP3    H263426   2.006   2.327  29.681  0.3171 -0.0871 -0.3721
13979TIP3   OH263427   3.999   1.053  30.139  0.3837 -0.3660 -0.0798
13979TIP3    H163428   3.978   1.146  30.144 -0.5863 -0.5362 -0.8722
13979TIP3    H263429   4.015   1.028  30.230 -2.0843 -0.0349  0.5009
13980TIP3   OH263430   1.197   1.290   9.700 -0.6079  0.2513 -0.3427
13980TIP3    H163431   1.181   1.315   9.609 -0.3509  1.8093  0.0088
13980TIP3    H263432   1.284   1.326   9.719 -1.2878  1.2882  0.9611
13981TIP3   OH263433   1.999   3.162   1.250 -0.0894  0.8216 -0.2173
13981TIP3    H163434   2.079   3.205   1.221  0.6031 -0.0902  0.2745
13981TIP3    H263435   1.942   3.163   1.174  0.6961  0.7927 -0.8239
13982TIP3   OH263436   2.902   1.192  12.180 -0.7571  0.2926 -0.0423
13982TIP3    H163437   2.893   1.263  12.116  0.0297  0.1428 -0.3229
13982TIP3    H263438   2.989   1.202  12.216 -0.5601 -0.6424 -0.2219
13983TIP3   OH263439   1.244   0.586  32.870  0.1197 -0.6422  0.0446
13983TIP3    H163440   1.190   0.566  32.947 -0.4775 -0.8250 -0.4148
13983TIP3    H263441   1.189   0.563  32.796  0.7813 -0.6827 -0.4378
13984TIP3   OH263442   4.349   2.528  37.714  0.0472 -0.1088  0.4724
13984TIP3    H163443   4.357   2.453  37.773  0.2374  0.0146  0.6033
13984TIP3    H263444   4.308   2.596  37.766 -0.8138 -0.3623  0.1427
13985TIP3   OH263445   0.287   1.198  12.534 -0.0907  0.0663 -0.0975
13985TIP3    H163446   0.218   1.264  12.546 -0.7808 -0.5667 -0.5020
13985TIP3    H263447   0.329   1.191  12.620  0.7748  1.8656 -0.3205
13986TIP3   OH263448   3.168   0.273  37.628 -0.0004  0.0023 -0.4043
13986TIP3    H163449   3.189   0.270  37.722 -2.8183 -0.4377  0.2850
13986TIP3    H263450   3.139   0.185  37.607 -0.0318  0.2724 -1.5562
13987TIP3   OH263451   4.057   1.201  24.336  0.8081  0.1199 -0.0538
13987TIP3    H163452   4.072   1.202  24.431  1.1888 -0.4809 -0.1058
13987TIP3    H263453   4.121   1.263  24.301 -0.4699  1.6648  0.2265
13988TIP3   OH263454   3.142   2.828  37.522 -0.2830 -0.4153 -0.0165
13988TIP3    H163455   3.213   2.831  37.458 -0.3628  0.0229 -0.0874
13988TIP3    H263456   3.147   2.741  37.560  0.8547 -0.0913  0.6235
13989TIP3   OH263457   1.723   2.254  29.519 -0.1447  0.2571 -0.0214
13989TIP3    H163458   1.677   2.248  29.435 -1.0971  1.0679  0.4146
13989TIP3    H263459   1.812   2.283  29.495 -0.0723 -0.5652 -0.8173
13990TIP3   OH263460   3.733   3.291  33.296 -0.2201 -0.0982  0.1045
13990TIP3    H163461   3.699   3.248  33.217  0.5189  0.1347 -0.3443
13990TIP3    H263462   3.672   3.264  33.365 -1.7157  0.8157 -0.7854
13991TIP3   OH263463   3.008   0.885  35.804 -0.4078  0.1756 -0.9015
13991TIP3    H163464   2.988   0.978  35.796  1.9440  0.8846  0.3513
13991TIP3    H263465   3.047   0.862  35.719  0.0073  0.6309 -0.8399
13992TIP3   OH263466   3.361   2.399  33.367 -0.1020  0.1431 -0.0043
13992TIP3    H163467   3.376   2.479  33.417 -0.6057  0.4380 -0.3113
13992TIP3    H263468   3.275   2.369  33.396  1.4638 -2.2391  2.7216
13993TIP3   OH263469   1.620   0.329   2.231 -0.1375  0.1630  0.1095
13993TIP3    H163470   1.631   0.422   2.249  1.6129 -0.3758  2.1815
13993TIP3    H263471   1.569   0.327   2.149 -0.3267  2.8957  0.0531
13994TIP3   OH263472   1.842   4.088   7.330  0.2455 -0.5379  0.0688
13994TIP3    H163473   1.782   4.034   7.280 -1.0252 -1.3347  2.2971
13994TIP3    H263474   1.785   4.139   7.388  1.4221  2.8187 -1.4734
13995TIP3   OH263475   4.335   1.203  11.564  0.1064 -0.3859 -0.0829
13995TIP3    H163476   4.384   1.136  11.516  0.3923  1.0054 -1.8246
13995TIP3    H263477   4.372   1.202  11.652 -0.5559 -3.1516  0.2702
13996TIP3   OH263478   0.378   0.528  22.721  0.4675 -0.2255 -0.8228
13996TIP3    H163479   0.458   0.516  22.670  0.5300  0.5285 -0.9122
13996TIP3    H263480   0.409   0.555  22.808  0.2936  1.8018 -1.3465
13997TIP3   OH263481   0.891   0.798   8.158 -0.1833  0.5949 -0.4529
13997TIP3    H163482   0.817   0.846   8.119 -0.3014  1.2508  0.5492
13997TIP3    H263483   0.894   0.716   8.109 -0.7122  1.1332 -1.4290
13998TIP3   OH263484   2.949   0.212   0.315 -0.0108 -0.6035 -0.1145
13998TIP3    H163485   3.036   0.176   0.333  0.3845  0.2167 -0.3454
13998TIP3    H263486   2.946   0.293   0.365 -0.7124 -0.7203  0.0322
13999TIP3   OH263487   2.322   0.119   7.308 -0.1952 -0.1411  0.0818
13999TIP3    H163488   2.275   0.203   7.310 -1.0178 -0.5292 -1.6007
13999TIP3    H263489   2.284   0.070   7.381 -0.3201  0.6228  0.5487
14000TIP3   OH263490   3.364   1.507   5.855  0.5309  0.2066 -0.5243
14000TIP3    H163491   3.316   1.557   5.789 -1.1606 -1.9548 -1.0327
14000TIP3    H263492   3.299   1.446   5.890  2.2271 -0.8779  0.8596
14001TIP3   OH263493   0.510   3.005   1.268 -0.3142 -0.3423 -0.2963
14001TIP3    H163494   0.432   3.050   1.236 -1.3037 -1.4628  0.4378
14001TIP3    H263495   0.494   2.992   1.362  1.0460 -0.0316  0.0101
14002TIP3   OH263496   2.032   1.937   1.584  0.0815 -0.3328  0.1702
14002TIP3    H163497   2.102   1.967   1.642 -0.5347  3.4398 -0.8133
14002TIP3    H263498   1.987   1.869   1.634  1.8201  0.1653  2.5704
14003TIP3   OH263499   2.673   4.215  31.430  0.4059  0.5204 -0.2486
14003TIP3    H163500   2.721   4.136  31.456  0.4057  0.3774 -0.6765
14003TIP3    H263501   2.664   4.266  31.511 -0.8340 -0.5667  0.3367
14004TIP3   OH263502   3.936   2.280  10.325 -0.4962  0.4387 -0.4886
14004TIP3    H163503   3.889   2.339  10.384 -2.4006 -1.1693 -0.2774
14004TIP3    H263504   4.016   2.258  10.373 -0.9543  0.8931  0.5195
14005TIP3   OH263505   2.144   1.444  40.050  0.2028 -0.1531 -0.0429
14005TIP3    H163506   2.073   1.400  40.002  1.1657  0.9364 -2.6567
14005TIP3    H263507   2.100   1.496  40.117 -1.3406 -0.7244 -0.5756
14006TIP3   OH263508   0.149   2.960  31.839  0.0056 -0.0216 -0.4379
14006TIP3    H163509   0.103   3.012  31.773  2.1229  0.9887 -1.2216
14006TIP3    H263510   0.234   3.003  31.848  0.4155 -1.1577  1.7195
14007TIP3   OH263511   2.305   2.664  31.388 -0.1447  0.2376  0.8064
14007TIP3    H163512   2.215   2.631  31.393  0.1842 -0.5826  1.6465
14007TIP3    H263513   2.355   2.592  31.348  0.4366  0.0069  1.9130
14008TIP3   OH263514   2.532   2.160  28.750 -0.1816  0.2124  0.0753
14008TIP3    H163515   2.564   2.122  28.832 -1.2479  0.0525  0.4455
14008TIP3    H263516   2.519   2.084  28.693  1.9481  0.4424 -0.7890
14009TIP3   OH263517   0.483   1.955   7.201  0.0129  0.4288 -0.0299
14009TIP3    H163518   0.390   1.935   7.192 -0.6027  3.2197 -0.7943
14009TIP3    H263519   0.519   1.945   7.113 -0.0633  1.4337 -0.1866
14010TIP3   OH263520   3.328   0.210   5.958  0.7559 -0.6852 -0.6334
14010TIP3    H163521   3.259   0.251   6.011 -1.4725  0.4186 -4.0876
14010TIP3    H263522   3.369   0.147   6.018 -0.9569  0.9981  2.5897
14011TIP3   OH263523   4.388   3.771  11.067  0.5564  0.4106 -0.1427
14011TIP3    H163524   4.391   3.846  11.008 -1.8273  0.1606 -0.7031
14011TIP3    H263525   4.428   3.700  11.018  0.2009  0.6278 -0.7539
14012TIP3   OH263526   3.299   4.151  37.332  0.4388 -0.4130  0.6512
14012TIP3    H163527   3.338   4.238  37.345  2.2076 -0.7653 -1.6027
14012TIP3    H263528   3.222   4.151  37.389 -0.3998  3.1169 -0.2133
14013TIP3   OH263529   3.420   0.720  41.088  0.2726 -0.3175  0.3601
14013TIP3    H163530   3.430   0.744  41.180  0.4303  2.2114 -0.2345
14013TIP3    H263531   3.326   0.705  41.077 -0.2539  2.5295  0.3206
14014TIP3   OH263532   4.382   3.145  27.468  0.1486 -0.4433 -0.0148
14014TIP3    H163533   4.475   3.155  27.448  0.0516 -0.6168 -0.5844
14014TIP3    H263534   4.362   3.055  27.441  0.1974 -1.0065  1.6750
14015TIP3   OH263535   3.081   2.150   1.679 -0.1567 -0.0074  0.1328
14015TIP3    H163536   3.159   2.171   1.626 -0.2326 -0.0678 -0.0048
14015TIP3    H263537   3.008   2.158   1.617 -0.2948  0.3883  0.3462
14016TIP3   OH263538   1.018   2.974   7.297 -0.6543 -0.4246 -0.0408
14016TIP3    H163539   1.030   2.884   7.267 -1.7004 -0.0560 -1.7615
14016TIP3    H263540   0.924   2.990   7.286 -0.3056  1.2268 -0.9386
14017TIP3   OH263541   1.919   0.755  37.248 -0.0365 -0.4165  0.7264
14017TIP3    H163542   1.938   0.662  37.238  1.4594 -0.3512  2.4306
14017TIP3    H263543   1.852   0.760  37.316 -0.9338 -0.2740 -0.1429
14018TIP3   OH263544   1.324   1.125   3.859  0.6795 -0.0070  0.2403
14018TIP3    H163545   1.419   1.134   3.850  0.6206  0.5242  0.0982
14018TIP3    H263546   1.306   1.156   3.947  0.6207  0.0465  0.2094
14019TIP3   OH263547   3.262   3.676  28.293 -0.8184  0.0276 -0.3084
14019TIP3    H163548   3.272   3.764  28.331 -1.2330  0.6016 -1.4806
14019TIP3    H263549   3.193   3.635  28.346  1.4528 -0.7712  2.2340
14020TIP3   OH263550   3.817   4.148   1.860  0.0867  0.7387 -0.7600
14020TIP3    H163551   3.737   4.095   1.865 -1.1226  2.4382 -1.4695
14020TIP3    H263552   3.804   4.218   1.924  1.6901  0.2188  0.1968
14021TIP3   OH263553   3.312   1.354  38.455 -0.1681  0.0495  0.2142
14021TIP3    H163554   3.347   1.421  38.513 -1.5938  2.0890 -1.1356
14021TIP3    H263555   3.376   1.347  38.384 -0.9855  1.6189 -0.7346
14022TIP3   OH263556   3.286   0.648  10.590 -0.2106 -0.0972 -0.2603
14022TIP3    H163557   3.272   0.737  10.622  0.5162 -0.5391  1.4379
14022TIP3    H263558   3.206   0.627  10.542 -0.9643  1.0124  0.4469
14023TIP3   OH263559   0.592   2.423   5.294 -0.4042 -0.3355  0.0054
14023TIP3    H163560   0.644   2.413   5.373  0.7045  2.3218 -0.2774
14023TIP3    H263561   0.596   2.517   5.274 -3.1108 -0.4330 -1.5590
14024TIP3   OH263562   0.287   1.330  34.162  0.4731 -0.0494  0.0230
14024TIP3    H163563   0.194   1.315  34.145  0.6935  0.5271 -1.8643
14024TIP3    H263564   0.324   1.242  34.169 -0.0630 -0.2916 -0.1410
14025TIP3   OH263565   3.115   3.674  11.441  0.5149  0.0098  0.1744
14025TIP3    H163566   3.082   3.764  11.445 -0.3666 -0.3406  1.2843
14025TIP3    H263567   3.102   3.639  11.530  2.3294 -0.7106  0.2110
14026TIP3   OH263568   2.248   4.314  33.879 -0.3688 -0.4751 -0.8064
14026TIP3    H163569   2.309   4.253  33.921 -1.0421 -1.5567 -1.3516
14026TIP3    H263570   2.177   4.325  33.942 -0.4651 -0.6213 -0.8877
14027TIP3   OH263571   2.479   2.315  10.662 -0.8426 -0.0957  0.1159
14027TIP3    H163572   2.491   2.249  10.594 -1.9019  0.9116 -1.0872
14027TIP3    H263573   2.419   2.274  10.725  0.1051 -1.0116  0.4472
14028TIP3   OH263574   3.100   3.218  28.575  0.1395 -0.3528  0.7858
14028TIP3    H163575   3.136   3.129  28.568 -1.1101 -0.8528  0.4241
14028TIP3    H263576   3.005   3.206  28.568 -0.0309  1.0505  0.3773
14029TIP3   OH263577   1.691   1.542   1.633 -0.0682 -0.1296 -0.4177
14029TIP3    H163578   1.634   1.541   1.556  0.0569  0.3659 -0.5191
14029TIP3    H263579   1.644   1.490   1.698  0.2728 -1.3810 -1.1364
14030TIP3   OH263580   0.938   0.496  14.014 -0.2262  0.0307  0.0391
14030TIP3    H163581   0.956   0.579  14.057  0.8048 -0.3321  0.3275
14030TIP3    H263582   1.018   0.475  13.967 -0.7603 -0.4112 -0.6968
14031TIP3   OH263583   1.264   2.317   0.092 -0.0533  0.3198  0.3872
14031TIP3    H163584   1.271   2.288   0.182 -2.3735  0.0381  0.5207
14031TIP3    H263585   1.179   2.285   0.062  0.8162  0.0659 -2.0344
14032TIP3   OH263586   0.236   3.972   1.997  0.4325  0.2613  0.5531
14032TIP3    H163587   0.151   3.989   1.956  0.1046 -2.2916 -0.0077
14032TIP3    H263588   0.296   4.032   1.954 -0.6030  0.2003 -1.0505
14033TIP3   OH263589   1.978   0.232   2.091 -0.0517  0.1469 -0.0125
14033TIP3    H163590   1.940   0.276   2.167  0.7009  0.6774  0.0690
14033TIP3    H263591   1.985   0.140   2.117 -1.4347  0.0063 -0.0991
14034TIP3   OH263592   2.172   3.398  32.900 -0.0510 -0.2463  0.1615
14034TIP3    H163593   2.090   3.390  32.852 -0.0145 -0.6272  0.1611
14034TIP3    H263594   2.205   3.309  32.906  0.5677 -0.0487 -0.1980
14035TIP3   OH263595   0.363   0.011  27.004 -0.2121 -0.6868 -0.0062
14035TIP3    H163596   0.313   0.093  27.005 -1.0025 -1.1601  0.0851
14035TIP3    H263597   0.370  -0.010  26.911 -1.6462 -1.4740  0.0317
14036TIP3   OH263598   0.284   1.162  23.846 -0.1705 -0.2634  0.2186
14036TIP3    H163599   0.285   1.066  23.846  0.6001 -0.2692 -0.3321
14036TIP3    H263600   0.255   1.185  23.757 -0.1578  0.0079  0.2850
14037TIP3   OH263601   2.471   0.575  38.872 -0.2482 -0.1694  0.1278
14037TIP3    H163602   2.535   0.540  38.811 -0.4143  0.4072 -0.3953
14037TIP3    H263603   2.420   0.499  38.900  0.3420 -0.5551  0.1645
14038TIP3   OH263604   0.753   0.227  30.744 -0.1690 -0.1940 -0.0497
14038TIP3    H163605   0.786   0.152  30.793  0.7510  1.7403  2.5252
14038TIP3    H263606   0.823   0.293  30.750 -1.0607  1.0137 -1.9215
14039TIP3   OH263607   3.942   1.557  31.298 -0.1987 -0.4935  0.5065
14039TIP3    H163608   4.006   1.584  31.363 -0.6276 -1.4531  1.3546
14039TIP3    H263609   3.982   1.481  31.255  0.9732  1.3159 -1.8128
14040TIP3   OH263610   2.172   0.598   7.491 -0.0767 -0.3504 -0.0576
14040TIP3    H163611   2.088   0.614   7.535 -1.0237  1.5788 -2.3302
14040TIP3    H263612   2.164   0.510   7.454 -1.5019  0.1071 -0.9426
14041TIP3   OH263613   3.866   1.850  38.107 -0.0063  0.0174 -0.1938
14041TIP3    H163614   3.918   1.906  38.165  2.8088 -2.2940 -0.2588
14041TIP3    H263615   3.846   1.773  38.160  1.1530 -1.3859 -1.6965
14042TIP3   OH263616   0.554   2.806  13.768 -0.1999 -0.5518 -0.5881
14042TIP3    H163617   0.649   2.820  13.770 -0.4235  1.3665 -1.0717
14042TIP3    H263618   0.518   2.887  13.804 -1.6507 -1.6216  0.4513
14043TIP3   OH263619   3.656   4.353  10.375  0.7408 -0.1471 -0.3725
14043TIP3    H163620   3.601   4.285  10.337 -1.6814  1.5636 -0.1495
14043TIP3    H263621   3.679   4.319  10.462  0.8094 -1.2848 -0.8240
14044TIP3   OH263622   0.587   3.450  26.930 -0.9364 -0.3183 -0.2736
14044TIP3    H163623   0.662   3.473  26.875 -0.4977 -0.8999  0.0744
14044TIP3    H263624   0.540   3.384  26.879 -1.7655  0.7488 -0.9258
14045TIP3   OH263625   4.152   0.938  31.419  0.1447  0.3354  0.3354
14045TIP3    H163626   4.121   0.945  31.510 -0.6405  0.3204  0.0746
14045TIP3    H263627   4.105   0.862  31.385  1.9826 -0.9500  0.5210
14046TIP3   OH263628   3.949   1.308   2.647 -0.0783  0.0528 -0.0320
14046TIP3    H163629   3.890   1.367   2.601  1.2490  0.8272 -0.7949
14046TIP3    H263630   3.952   1.230   2.592  0.9579  0.7036 -0.9321
14047TIP3   OH263631   2.025   3.115  37.606  0.0543  0.2922  0.2165
14047TIP3    H163632   2.011   3.155  37.692  0.7847 -0.2737  0.6088
14047TIP3    H263633   2.119   3.122  37.592 -0.3249  3.1036 -1.9118
14048TIP3   OH263634   0.635   2.157  35.498  0.0884  0.2831 -0.0410
14048TIP3    H163635   0.657   2.185  35.409 -0.0961  2.3247  0.4979
14048TIP3    H263636   0.539   2.157  35.500  0.0917  0.1689  0.1458
14049TIP3   OH263637   0.653   4.252  35.870  0.1389 -0.5486  0.0172
14049TIP3    H163638   0.638   4.167  35.911  1.9816 -1.6439 -1.4078
14049TIP3    H263639   0.727   4.289  35.919 -0.6106  0.2554  0.5887
14050TIP3   OH263640   2.856   2.552  37.670 -0.3412 -0.2750  0.5239
14050TIP3    H163641   2.901   2.588  37.747  1.6930 -1.3432 -0.0790
14050TIP3    H263642   2.806   2.626  37.635  1.2075  1.1252  1.1035
14051TIP3   OH263643   3.459   3.180  37.705 -0.0001  0.0685 -0.4401
14051TIP3    H163644   3.381   3.129  37.729  0.5408 -1.6015 -2.0297
14051TIP3    H263645   3.424   3.261  37.668 -1.0495 -0.9852 -1.8564
14052TIP3   OH263646   0.470   3.998  26.080  0.1490  0.1320  0.6932
14052TIP3    H163647   0.522   4.003  26.160 -1.1129 -1.9819  1.7318
14052TIP3    H263648   0.487   4.081  26.035  3.3530  0.1030  1.5812
14053TIP3   OH263649   3.613   2.994  35.318 -0.2951  0.2906 -0.1616
14053TIP3    H163650   3.685   3.014  35.258 -0.4776 -1.1331 -0.9041
14053TIP3    H263651   3.612   2.899  35.322 -1.1603  0.3382  1.0651
14054TIP3   OH263652   0.281   3.547  40.275  0.1453  0.4738 -0.3528
14054TIP3    H163653   0.282   3.595  40.192  3.2071  0.2473 -0.5406
14054TIP3    H263654   0.342   3.475  40.262 -1.6988 -1.4995  1.1175
14055TIP3   OH263655   1.427   2.879  28.767  0.5049  0.1585  0.4182
14055TIP3    H163656   1.351   2.928  28.736 -1.1327 -1.7311  1.2085
14055TIP3    H263657   1.428   2.799  28.714  2.0509  0.1869  0.3406
14056TIP3   OH263658   3.781   3.486   2.918 -0.4476 -0.4528  0.2179
14056TIP3    H163659   3.841   3.412   2.909 -1.4424 -1.2298 -0.2006
14056TIP3    H263660   3.838   3.562   2.924  0.6104 -1.2701  0.9473
14057TIP3   OH263661   0.709   2.066  40.020 -0.2657 -0.4208  0.7351
14057TIP3    H163662   0.699   1.986  39.969 -0.8549 -0.5233  1.0055
14057TIP3    H263663   0.794   2.056  40.064  0.1776 -0.3995 -0.0925
14058TIP3   OH263664   3.289   3.504   8.407  0.4892 -0.3136 -0.1799
14058TIP3    H163665   3.228   3.436   8.379 -1.8995  2.1045 -1.2929
14058TIP3    H263666   3.258   3.531   8.493  0.6693  0.1637 -0.2590
14059TIP3   OH263667   0.278   1.417  23.968  0.4308 -0.2843  0.4211
14059TIP3    H163668   0.260   1.462  23.885 -1.4323 -0.4852  0.6696
14059TIP3    H263669   0.276   1.324  23.946 -0.9160 -0.3727  0.7909
14060TIP3   OH263670   1.519   1.876   0.869 -0.2604  0.0297  0.6540
14060TIP3    H163671   1.428   1.850   0.852 -0.1753  1.4170 -2.5071
14060TIP3    H263672   1.571   1.804   0.834 -0.0519 -0.4725  1.9100
14061TIP3   OH263673   0.142   4.151  26.919  0.6264 -0.3786  0.5146
14061TIP3    H163674   0.126   4.244  26.909 -1.8042 -0.7024  0.8276
14061TIP3    H263675   0.140   4.116  26.829  0.5059 -0.2807  0.4811
14062TIP3   OH263676   0.913   2.125   1.587  0.1478 -0.3164 -0.1335
14062TIP3    H163677   0.834   2.075   1.568 -0.4492  0.1576  1.0161
14062TIP3    H263678   0.914   2.134   1.683  0.1749  1.9523 -0.2943
14063TIP3   OH263679   4.266   2.840   9.859 -0.3223  0.4184  0.7497
14063TIP3    H163680   4.342   2.792   9.890 -0.0425 -0.2136 -0.7899
14063TIP3    H263681   4.215   2.859   9.938  1.4634  0.9583  1.8246
14064TIP3   OH263682   1.490   3.983  12.523  0.3959  0.2662  0.0080
14064TIP3    H163683   1.469   3.915  12.587 -0.0394 -3.3100 -3.5269
14064TIP3    H263684   1.584   3.972  12.506 -0.1939 -1.6439 -2.6181
14065TIP3   OH263685   2.990   3.948  29.694  0.2284  0.0565  0.5613
14065TIP3    H163686   2.979   3.976  29.603 -0.0475 -0.9346  0.2797
14065TIP3    H263687   3.077   3.979  29.718  0.0800  0.8143  0.1415
14066TIP3   OH263688   1.775   0.237  27.504  0.0106 -0.1571  0.9633
14066TIP3    H163689   1.727   0.155  27.500 -0.3220  0.0070  1.4759
14066TIP3    H263690   1.713   0.300  27.540  0.8184 -0.1039  2.3496
14067TIP3   OH263691   0.792   1.350   5.557  0.0120 -0.1263  0.0344
14067TIP3    H163692   0.759   1.349   5.467 -1.2880 -1.0262  0.5090
14067TIP3    H263693   0.823   1.261   5.572  1.1509  0.2767  0.1638
14068TIP3   OH263694   0.782   3.496  32.686 -0.5010  0.6960 -0.0374
14068TIP3    H163695   0.775   3.401  32.677 -0.4081  0.7179 -0.3504
14068TIP3    H263696   0.862   3.519  32.638 -0.7666  0.9852 -0.3493
14069TIP3   OH263697   0.303   2.209  40.771  0.8702 -0.1213 -0.0101
14069TIP3    H163698   0.291   2.179  40.861  0.2043  0.4894  0.1186
14069TIP3    H263699   0.316   2.129  40.720 -0.4771 -0.6077  0.3688
14070TIP3   OH263700   1.273   1.053  13.357  0.7498 -0.1567  0.0298
14070TIP3    H163701   1.328   1.109  13.303  2.1450 -1.1602  0.3611
14070TIP3    H263702   1.281   0.966  13.317  0.7999 -0.6618  1.1092
14071TIP3   OH263703   1.454   1.928  34.540  0.3185 -0.4858 -0.1979
14071TIP3    H163704   1.528   1.971  34.583 -0.5796  1.0637 -0.1287
14071TIP3    H263705   1.378   1.954  34.591 -0.6353  0.4331 -2.0046
14072TIP3   OH263706   1.654   3.312  27.902  0.2568 -0.5558  0.5154
14072TIP3    H163707   1.609   3.234  27.871  1.5458 -0.8034 -0.8516
14072TIP3    H263708   1.649   3.307  27.998  0.2163 -2.2554  0.4419
14073TIP3   OH263709   2.415   3.309  11.616  0.3744  0.3880  0.7055
14073TIP3    H163710   2.444   3.389  11.661  1.0279  1.5416 -1.5686
14073TIP3    H263711   2.329   3.331  11.581  1.4012  0.9532 -1.6860
14074TIP3   OH263712   1.835   2.254  13.603  0.4650 -0.2867 -0.5026
14074TIP3    H163713   1.920   2.282  13.571  1.6536 -3.3993 -0.3342
14074TIP3    H263714   1.835   2.159  13.595 -1.6152 -0.7385  2.7991
14075TIP3   OH263715   1.328   3.810   8.408 -0.3544 -0.4134  0.3484
14075TIP3    H163716   1.333   3.803   8.503  1.1807  1.5420  0.4682
14075TIP3    H263717   1.380   3.888   8.386 -2.5457  0.5924 -1.8781
14076TIP3   OH263718   3.926   0.035   9.162 -0.2635  0.4422  0.6379
14076TIP3    H163719   3.876   0.113   9.137  0.1225  0.8403  1.0863
14076TIP3    H263720   3.982   0.065   9.233  0.0193 -0.2055  0.6891
14077TIP3   OH263721   1.258   4.051  12.059  0.1497  0.3376  0.0001
14077TIP3    H163722   1.234   4.015  11.973 -0.6662  0.0198  0.3621
14077TIP3    H263723   1.346   4.017  12.074  0.6994  1.1588 -1.1305
14078TIP3   OH263724   3.585   0.061   3.855  0.1870  0.6263  0.0858
14078TIP3    H163725   3.538   0.122   3.912 -0.6980  1.3480 -1.3657
14078TIP3    H263726   3.529   0.053   3.778  1.9848  0.7307 -1.2797
14079TIP3   OH263727   3.230   0.251  31.601  0.3181 -0.3351  0.1317
14079TIP3    H163728   3.260   0.251  31.692 -0.1625 -0.9947  0.3039
14079TIP3    H263729   3.245   0.340  31.570 -1.0137  0.3695  1.3694
14080TIP3   OH263730   2.970   4.098   1.298  0.1072 -0.2891  0.1604
14080TIP3    H163731   3.021   4.017   1.303  0.5437 -0.0530 -0.3566
14080TIP3    H263732   3.011   4.157   1.361 -0.3620 -0.5416  0.7170
14081TIP3   OH263733   2.316   2.888  38.475  0.3500  0.1850 -0.3941
14081TIP3    H163734   2.264   2.836  38.536 -0.3556  0.6328 -0.6027
14081TIP3    H263735   2.373   2.941  38.531  0.2465  0.0357 -0.1452
14082TIP3   OH263736   4.349   3.491  11.970 -0.5043 -0.0294  0.7044
14082TIP3    H163737   4.365   3.504  12.063 -0.0582  1.2875  0.4570
14082TIP3    H263738   4.414   3.545  11.926 -1.7828  0.6991 -0.3567
14083TIP3   OH263739   3.918   3.020   5.619 -0.2388 -0.3358  0.0410
14083TIP3    H163740   3.959   2.978   5.544 -0.1841  0.1638 -0.2143
14083TIP3    H263741   3.983   3.085   5.647 -0.2243 -0.5755  0.5696
14084TIP3   OH263742   0.936   1.711  15.644 -0.6105 -1.0798  0.2316
14084TIP3    H163743   0.862   1.676  15.594 -0.4127  0.2191 -1.0585
14084TIP3    H263744   0.973   1.636  15.689 -2.0454 -1.9467  0.0097
14085TIP3   OH263745   2.224   2.702   0.036 -0.2798  0.0185  0.5818
14085TIP3    H163746   2.206   2.775  -0.024 -4.7729 -0.6025  0.8713
14085TIP3    H263747   2.240   2.744   0.120  1.6003  0.7112 -0.0521
14086TIP3   OH263748   1.672   0.608  13.482 -0.0554  0.6618 -0.0605
14086TIP3    H163749   1.718   0.599  13.399 -0.9419 -3.4460 -0.2969
14086TIP3    H263750   1.694   0.529  13.531 -2.4557  1.1863  2.1160
14087TIP3   OH263751   0.680   2.820  10.151  0.1763  0.2790 -0.6076
14087TIP3    H163752   0.599   2.776  10.125 -0.0739  0.9409 -0.9661
14087TIP3    H263753   0.715   2.856  10.070 -0.3907  1.9876 -0.1261
14088TIP3   OH263754   4.015   1.144  26.241  0.2691 -0.0565  0.0106
14088TIP3    H163755   4.010   1.100  26.156  0.3989 -1.4712  0.7126
14088TIP3    H263756   3.936   1.115  26.287  0.5134  0.2105  0.6022
14089TIP3   OH263757   3.739   2.732   3.655 -0.3803 -0.0827 -0.0163
14089TIP3    H163758   3.697   2.662   3.605 -0.2036 -1.0343  1.1128
14089TIP3    H263759   3.679   2.749   3.727 -0.6150  1.2528 -0.4945
14090TIP3   OH263760   3.875   4.243  12.031  0.4923  0.4069  0.0065
14090TIP3    H163761   3.862   4.338  12.023  1.8184  0.5476 -0.7597
14090TIP3    H263762   3.791   4.210  12.062  0.2361  1.9221  1.0179
14091TIP3   OH263763   1.435   0.294  40.324 -0.7209  0.5997 -0.3949
14091TIP3    H163764   1.484   0.318  40.246  0.5031  3.0138  1.0031
14091TIP3    H263765   1.498   0.247  40.379 -1.3012 -0.2503 -0.4344
14092TIP3   OH263766   4.325   1.803  41.049  0.0197  0.4555  0.7984
14092TIP3    H163767   4.265   1.732  41.074 -1.0248  0.8824 -0.3776
14092TIP3    H263768   4.304   1.874  41.109 -1.3476  0.9175 -0.1640
14093TIP3   OH263769   0.102   2.288  40.494 -0.0366 -0.4739  0.4231
14093TIP3    H163770   0.151   2.206  40.502 -1.3755 -1.3441  0.1269
14093TIP3    H263771   0.025   2.275  40.550  0.7463  1.4303  2.0428
14094TIP3   OH263772   1.519   0.443  30.565 -0.1922  0.0265 -0.0775
14094TIP3    H163773   1.566   0.398  30.495  0.9195  1.2819 -0.1773
14094TIP3    H263774   1.573   0.428  30.643  0.1003  1.0026 -0.0778
14095TIP3   OH263775   2.841   2.565  28.315 -0.1544  0.7117 -0.5945
14095TIP3    H163776   2.907   2.547  28.248  0.2768  0.0508 -0.0157
14095TIP3    H263777   2.767   2.509  28.293 -0.6352  1.6534 -1.3990
14096TIP3   OH263778   0.385   0.146   9.904  0.0826  0.0445  0.2997
14096TIP3    H163779   0.348   0.076   9.852  2.4411 -1.1178  0.0711
14096TIP3    H263780   0.310   0.184   9.950 -1.7692 -0.2519 -2.2657
14097TIP3   OH263781   4.092   3.034  32.447 -0.0326  0.1389 -0.5483
14097TIP3    H163782   4.099   3.065  32.537  1.9092 -0.6008 -0.3863
14097TIP3    H263783   4.079   2.940  32.455 -0.5942  0.1687 -1.0496
14098TIP3   OH263784   1.210   4.212  15.733  0.2417 -0.0461  0.2830
14098TIP3    H163785   1.200   4.119  15.751 -0.8822 -0.1089 -0.5459
14098TIP3    H263786   1.121   4.247  15.739  0.8169  1.2397  1.8867
14099TIP3   OH263787   0.939   4.293  30.023  0.3346 -0.2624  0.2166
14099TIP3    H163788   0.933   4.357  29.952 -1.9549 -1.3720 -0.6901
14099TIP3    H263789   0.929   4.345  30.103 -1.5651  0.5443 -0.5008
14100TIP3   OH263790   1.572   1.015  15.984 -0.4339  0.5583 -0.3384
14100TIP3    H163791   1.627   1.003  15.906 -0.6557  1.3285 -0.6250
14100TIP3    H263792   1.607   1.093  16.027 -1.5452  1.3152 -0.7570
14101TIP3   OH263793   4.246   0.661   8.870  0.2449 -0.1554 -0.0387
14101TIP3    H163794   4.199   0.734   8.828  0.5705 -0.2166 -0.5260
14101TIP3    H263795   4.178   0.606   8.906 -0.0640 -0.2512 -0.7518
14102TIP3   OH263796   0.288   1.519   0.610 -0.2875 -0.0039  0.9258
14102TIP3    H163797   0.216   1.576   0.585  0.9769  1.1950 -0.1084
14102TIP3    H263798   0.277   1.441   0.555 -0.3848  0.4896  0.2370
14103TIP3   OH263799   3.514   3.757   4.149 -0.5226 -0.3054 -0.6729
14103TIP3    H163800   3.588   3.786   4.096 -0.7551  0.9035 -0.3702
14103TIP3    H263801   3.507   3.663   4.132  0.3389 -0.2126 -1.6122
14104TIP3   OH263802   3.203   3.668  41.209  0.3534 -0.0497  0.6410
14104TIP3    H163803   3.206   3.678  41.304  1.7178 -1.6470  0.8120
14104TIP3    H263804   3.232   3.578  41.194  0.5932  0.3181 -1.3075
14105TIP3   OH263805   3.009   0.540  40.609  0.6970 -0.1296  0.8329
14105TIP3    H163806   2.952   0.543  40.532  2.4522 -1.3049 -0.6105
14105TIP3    H263807   3.044   0.629  40.616  1.3355 -0.2542 -0.4319
14106TIP3   OH263808   0.592   3.011  22.099  0.3253 -0.2726 -0.1241
14106TIP3    H163809   0.637   3.095  22.091  2.4916 -1.4287 -0.5496
14106TIP3    H263810   0.635   2.953  22.036 -2.0066 -1.3984 -0.8401
14107TIP3   OH263811   1.346   2.276  13.355 -0.4002 -0.2833 -0.6281
14107TIP3    H163812   1.336   2.242  13.444  0.1107 -1.2609 -0.9276
14107TIP3    H263813   1.347   2.198  13.299  2.1605  0.1094 -1.2273
14108TIP3   OH263814   1.787   1.170   7.648 -0.1893 -0.1602  0.0732
14108TIP3    H163815   1.804   1.085   7.689  1.9127 -0.4555 -1.2364
14108TIP3    H263816   1.707   1.156   7.597 -0.3635 -1.0750  0.5700
14109TIP3   OH263817   3.351   4.230  29.179  0.4543  0.1216  0.0974
14109TIP3    H163818   3.442   4.237  29.150  0.6112 -0.7908  0.3251
14109TIP3    H263819   3.357   4.227  29.274  0.4655 -2.7786  0.0888
14110TIP3   OH263820   1.267   3.570  17.720  0.0050  0.5353 -0.1334
14110TIP3    H163821   1.254   3.649  17.773 -0.0377  1.5779 -1.6116
14110TIP3    H263822   1.179   3.533  17.710  0.3331 -1.4109  2.9378
14111TIP3   OH263823   4.092   1.306  12.864 -0.5748  0.9237  0.1909
14111TIP3    H163824   4.083   1.222  12.819 -0.4840  0.3357  1.2533
14111TIP3    H263825   4.179   1.336  12.839  0.0503 -0.0805  1.0712
14112TIP3   OH263826   2.488   1.028  29.996 -0.3140  0.1159 -0.0742
14112TIP3    H163827   2.522   1.090  29.932  0.0602 -0.1193 -0.1006
14112TIP3    H263828   2.423   0.977  29.947 -0.0848 -0.0123 -0.2416
14113TIP3   OH263829   1.207   1.611  40.364 -0.3059  0.1320 -0.0794
14113TIP3    H163830   1.221   1.595  40.458 -0.0711 -1.3085 -0.3420
14113TIP3    H263831   1.247   1.536  40.321 -3.6022 -1.1985 -1.1768
14114TIP3   OH263832   0.214   3.123  14.051  0.3606 -0.1652 -0.1987
14114TIP3    H163833   0.132   3.106  14.005  0.4928 -0.8006 -0.2092
14114TIP3    H263834   0.187   3.169  14.131  0.0696  0.3118 -0.5635
14115TIP3   OH263835   2.753   0.628  37.436 -1.0912  0.1065 -0.6849
14115TIP3    H163836   2.773   0.665  37.522 -2.4201 -1.2416  0.2615
14115TIP3    H263837   2.825   0.568  37.418  1.5653  3.4993 -2.6303
14116TIP3   OH263838   2.576   2.185   3.560 -0.2414 -0.3436  0.1556
14116TIP3    H163839   2.671   2.194   3.567  0.1131 -1.4938 -2.0435
14116TIP3    H263840   2.562   2.165   3.467 -2.6442 -0.1355  0.4326
14117TIP3   OH263841   1.253   2.995   8.432 -0.1288  0.7506  0.2803
14117TIP3    H163842   1.184   2.964   8.490  1.7057  1.1166  2.8319
14117TIP3    H263843   1.318   2.925   8.430 -0.4044  0.4738 -1.9392
14118TIP3   OH263844   1.198   3.886  40.943  0.2938 -0.1454 -0.1066
14118TIP3    H163845   1.134   3.859  41.009  0.2669  0.0517 -0.0492
14118TIP3    H263846   1.144   3.919  40.871  0.2842 -1.5078 -0.7408
14119TIP3   OH263847   3.833   2.249  32.330  0.6949  0.1310  0.2013
14119TIP3    H163848   3.786   2.267  32.249 -0.1153  1.6108  0.9524
14119TIP3    H263849   3.882   2.169  32.313  0.2450  0.2150 -1.6092
14120TIP3   OH263850   3.179   3.895   3.597  0.0827  0.1753  0.1716
14120TIP3    H163851   3.204   3.947   3.520 -1.4238  0.5444 -0.1187
14120TIP3    H263852   3.249   3.910   3.660  1.5499 -0.4368 -1.2394
14121TIP3   OH263853   3.257   3.473   8.838 -0.0511 -0.1943 -0.1699
14121TIP3    H163854   3.220   3.389   8.864  2.2197 -1.7579 -1.5939
14121TIP3    H263855   3.338   3.450   8.792  0.6754  2.7940 -0.5832
14122TIP3   OH263856   0.897   0.052  35.769  0.2293 -0.2526  0.0885
14122TIP3    H163857   0.848   0.073  35.689  1.8768 -0.2823 -0.9601
14122TIP3    H263858   0.863   0.113  35.834  0.9894  1.9376 -1.4414
14123TIP3   OH263859   1.650   3.190   5.394  0.5129 -0.4513  0.0344
14123TIP3    H163860   1.609   3.211   5.311  1.0213 -1.5452 -0.5169
14123TIP3    H263861   1.744   3.183   5.373  1.0070  1.6908  1.1894
14124TIP3   OH263862   3.093   1.130   8.178 -0.3826  0.0851 -0.1399
14124TIP3    H163863   3.011   1.091   8.150 -0.1930  0.0931 -0.7177
14124TIP3    H263864   3.103   1.208   8.123  1.9039 -1.9562 -2.9169
14125TIP3   OH263865   2.466   0.669   8.871 -0.1182 -0.1779 -0.1041
14125TIP3    H163866   2.398   0.736   8.875  0.2009  0.1225  0.5833
14125TIP3    H263867   2.445   0.610   8.943 -0.0046 -0.4263 -0.2764
14126TIP3   OH263868   1.350   4.089  41.149 -0.3950 -0.2775 -0.4681
14126TIP3    H163869   1.278   4.132  41.195 -0.2122 -0.0923 -0.3524
14126TIP3    H263870   1.390   4.159  41.098 -1.6409 -0.7909 -2.2593
14127TIP3   OH263871   2.175   3.058   9.295  0.2389 -0.0997 -0.2457
14127TIP3    H163872   2.083   3.061   9.323  0.6497 -0.8621  1.2698
14127TIP3    H263873   2.177   2.989   9.229 -0.3385  0.1536 -0.5338
14128TIP3   OH263874   1.461   3.831  35.355 -0.1190  0.1744 -0.0976
14128TIP3    H163875   1.395   3.832  35.286 -1.0529 -0.4518  0.7678
14128TIP3    H263876   1.451   3.915  35.399  1.7725  1.4298 -1.8598
14129TIP3   OH263877   3.793   0.421  37.960 -0.0106 -0.6307 -0.0966
14129TIP3    H163878   3.701   0.439  37.941  0.3188  1.4155  0.0389
14129TIP3    H263879   3.842   0.474  37.897  1.0758 -1.3660  0.1095
14130TIP3   OH263880   0.057   3.996  12.606  0.4248 -0.0768  0.2256
14130TIP3    H163881   0.099   4.056  12.544  0.3357 -3.1589 -3.1819
14130TIP3    H263882   0.129   3.942  12.639 -0.0059 -1.3719 -0.8468
14131TIP3   OH263883   0.064   4.286  37.125 -0.0980  0.4494 -0.4307
14131TIP3    H163884   0.010   4.307  37.201 -1.7452  1.9782 -1.9321
14131TIP3    H263885   0.082   4.370  37.083  3.2985 -0.0042 -0.2019
14132TIP3   OH263886   1.926   2.303   6.557  0.1690  0.5610 -0.0052
14132TIP3    H163887   2.015   2.266   6.564 -0.0213  0.0001 -0.4519
14132TIP3    H263888   1.920   2.364   6.630  0.8771  0.5041  0.1154
14133TIP3   OH263889   1.278   1.429  12.224 -0.2462  0.0970  0.0485
14133TIP3    H163890   1.227   1.453  12.146  1.2188  0.0147 -0.9900
14133TIP3    H263891   1.289   1.511  12.272 -2.4829 -0.1103  1.0606
14134TIP3   OH263892   1.610   0.890  33.129 -0.0603  0.6442  0.1255
14134TIP3    H163893   1.541   0.956  33.125 -0.7923 -0.0896  0.3737
14134TIP3    H263894   1.680   0.931  33.179 -0.5656  1.1832  0.3966
14135TIP3   OH263895   0.820   3.686   1.127  0.6539  0.3428 -0.2637
14135TIP3    H163896   0.739   3.698   1.177  1.5504 -1.2280  1.6882
14135TIP3    H263897   0.795   3.632   1.053 -0.2085  0.4958 -0.0925
14136TIP3   OH263898   3.719   2.150   2.823 -0.0346 -0.3399 -0.3803
14136TIP3    H163899   3.776   2.082   2.787 -0.9855 -0.3878 -1.8874
14136TIP3    H263900   3.746   2.230   2.779  0.1897  0.0201  0.3941
14137TIP3   OH263901   2.975   1.517  12.749 -1.0152  0.2739  0.4650
14137TIP3    H163902   2.951   1.433  12.788 -1.3061  0.2684  0.2707
14137TIP3    H263903   3.009   1.568  12.823 -0.0701 -0.3002  0.4445
14138TIP3   OH263904   3.446   2.537   2.016  0.6138 -0.3237  0.1157
14138TIP3    H163905   3.539   2.525   2.037  0.5735 -2.2148 -0.5669
14138TIP3    H263906   3.428   2.469   1.951 -0.8787  1.0374 -0.9589
14139TIP3   OH263907   4.029   4.395  22.060  0.3965 -0.0893  0.0267
14139TIP3    H163908   4.055   4.475  22.013 -2.6025  1.5907  0.8907
14139TIP3    H263909   4.086   4.392  22.136  1.2122  0.6898 -0.5323
14140TIP3   OH263910   3.940   1.085  39.250 -0.1096  0.4762  0.0855
14140TIP3    H163911   4.032   1.063  39.265 -0.4603 -0.5075  0.8782
14140TIP3    H263912   3.917   1.143  39.322  0.1301  1.4881 -0.6311
14141TIP3   OH263913   2.774   3.407  35.732 -0.0351  0.3974  0.1266
14141TIP3    H163914   2.761   3.446  35.818 -1.0476 -0.0929  0.2150
14141TIP3    H263915   2.867   3.382  35.731  0.0673  0.7077  0.9413
14142TIP3   OH263916   4.403   4.309  36.306 -0.3905  0.3292 -0.0189
14142TIP3    H163917   4.309   4.323  36.319 -0.6337 -1.0624 -0.1234
14142TIP3    H263918   4.418   4.220  36.337  0.7576  0.2651 -0.7154
14143TIP3   OH263919   0.887   3.592   7.046 -0.4615  0.0866  0.0541
14143TIP3    H163920   0.968   3.552   7.077  0.5185  0.5014 -1.8176
14143TIP3    H263921   0.818   3.532   7.073  0.3103  0.3000  2.7231
14144TIP3   OH263922   3.981   3.978   0.823  0.1955  0.6109 -0.9078
14144TIP3    H163923   3.937   4.040   0.881 -1.3755 -0.0409 -1.3638
14144TIP3    H263924   3.960   3.892   0.859 -0.3453  0.2156 -2.1061
14145TIP3   OH263925   1.376   2.769  34.530 -0.1072  0.1198  0.0896
14145TIP3    H163926   1.463   2.805  34.549 -0.2956  0.0988  1.0134
14145TIP3    H263927   1.331   2.769  34.614 -0.3781 -1.5901 -0.0266
14146TIP3   OH263928   3.075   0.162  28.765 -0.1032 -0.6866  0.1691
14146TIP3    H163929   3.045   0.214  28.839  2.0818  0.5237  0.3018
14146TIP3    H263930   3.026   0.196  28.690  0.6102  1.0067  0.4138
14147TIP3   OH263931   1.482   1.175   5.107  0.0721 -0.7952  0.2216
14147TIP3    H163932   1.476   1.270   5.098  1.0053 -0.6678  0.7487
14147TIP3    H263933   1.466   1.141   5.019  0.6364 -0.0925 -0.1624
14148TIP3   OH263934   2.709   1.268  33.505  0.2941  0.2237  0.3805
14148TIP3    H163935   2.720   1.212  33.582 -0.8065 -0.6022 -0.0351
14148TIP3    H263936   2.703   1.357  33.540 -0.6882 -0.1912  1.3070
14149TIP3   OH263937   1.666   0.725  16.090 -0.4590  0.2009  0.2154
14149TIP3    H163938   1.615   0.797  16.053  0.8101  1.0116 -0.0433
14149TIP3    H263939   1.639   0.720  16.181 -0.7418  0.8546  0.1707
14150TIP3   OH263940   3.186   4.128  11.921  0.0523  0.0107 -0.2549
14150TIP3    H163941   3.098   4.102  11.896 -1.0998  0.5889  2.7739
14150TIP3    H263942   3.185   4.224  11.918  0.0524  0.0818  1.1687
14151TIP3   OH263943   0.154   2.747  32.021 -0.2606 -0.5013 -0.4522
14151TIP3    H163944   0.236   2.698  32.020 -1.0464 -1.9364  1.0295
14151TIP3    H263945   0.152   2.793  31.937  1.3488 -1.6071 -1.1317
14152TIP3   OH263946   3.276   0.371  35.052 -0.8192 -0.3490  0.0461
14152TIP3    H163947   3.228   0.390  35.132 -1.0282  0.9755 -0.3784
14152TIP3    H263948   3.227   0.416  34.983  0.4479  0.1792 -0.5367
14153TIP3   OH263949   1.994   2.136   4.834  0.3682 -0.1899  0.1499
14153TIP3    H163950   1.928   2.086   4.786  0.5116 -0.7315  0.5159
14153TIP3    H263951   2.077   2.115   4.791  0.7429 -1.9719  1.6067
14154TIP3   OH263952   2.330   2.936  34.592  0.3155  0.3817  0.1386
14154TIP3    H163953   2.329   2.848  34.630  1.4763  0.2366 -0.1235
14154TIP3    H263954   2.316   2.921  34.498 -0.9180  0.6082  0.2657
14155TIP3   OH263955   2.703   1.802  11.681 -0.3306  0.1486  0.0920
14155TIP3    H163956   2.760   1.731  11.710 -1.7936 -0.2534  2.1730
14155TIP3    H263957   2.679   1.778  11.591 -1.8839 -2.8440  1.1560
14156TIP3   OH263958   3.493   1.094   8.011  0.4138 -0.0039 -0.3087
14156TIP3    H163959   3.494   0.999   8.020  2.8128  0.0433  0.6265
14156TIP3    H263960   3.569   1.114   7.957  0.0803  1.4243 -0.2854
14157TIP3   OH263961   1.025   3.213   2.366 -0.2072 -0.0420  0.0667
14157TIP3    H163962   0.966   3.281   2.332 -1.2184 -0.8133  0.2222
14157TIP3    H263963   1.112   3.238   2.334 -0.4985  1.5081  0.4165
14158TIP3   OH263964   0.875   1.825  28.752  0.4497 -0.2350  0.3064
14158TIP3    H163965   0.797   1.769  28.753 -0.3515  0.8022 -0.8617
14158TIP3    H263966   0.864   1.880  28.675  1.3072  1.4070  1.2923
14159TIP3   OH263967   4.133   3.969  24.853 -0.4220 -0.6498  0.1785
14159TIP3    H163968   4.171   3.885  24.828  1.5463  0.5326 -1.0739
14159TIP3    H263969   4.176   3.992  24.935  0.7987  0.1616 -0.6579
14160TIP3   OH263970   4.251   3.940  20.806  0.1129  0.7694 -0.1861
14160TIP3    H163971   4.254   4.026  20.764 -2.5896  0.7963 -0.4990
14160TIP3    H263972   4.197   3.952  20.884  1.0491 -0.3238  0.6776
14161TIP3   OH263973   3.251   2.817  10.777  0.3521 -0.0371  0.3349
14161TIP3    H163974   3.303   2.897  10.782  0.5869 -0.1638 -0.0581
14161TIP3    H263975   3.253   2.792  10.685 -1.7497  0.8299 -0.0216
14162TIP3   OH263976   3.182   2.799  37.994 -0.4470 -0.0578  0.6516
14162TIP3    H163977   3.269   2.789  37.955 -0.7934  0.9059 -0.4305
14162TIP3    H263978   3.194   2.775  38.086  0.9021 -0.1728  0.4655
14163TIP3   OH263979   1.743   0.639   1.765  0.0020 -0.1647  0.0832
14163TIP3    H163980   1.814   0.698   1.737  0.2417 -0.9476 -1.0626
14163TIP3    H263981   1.663   0.684   1.737  0.2526 -1.1404 -2.4829
14164TIP3   OH263982   0.879   0.838   7.165  0.1363 -0.0083 -0.7172
14164TIP3    H163983   0.973   0.817   7.172  0.2479  0.4393 -0.8534
14164TIP3    H263984   0.835   0.762   7.205  0.6491  1.0108  1.9942
14165TIP3   OH263985   2.525   2.395  39.738  0.2120  0.6396 -0.4172
14165TIP3    H163986   2.608   2.376  39.696  0.0928  1.1431 -0.8944
14165TIP3    H263987   2.547   2.412  39.829  0.3211 -1.8118  0.0811
14166TIP3   OH263988   1.106   0.443  10.832  0.0883  0.1736 -0.0214
14166TIP3    H163989   1.063   0.361  10.857  1.7006 -0.5100  0.6312
14166TIP3    H263990   1.101   0.498  10.910  1.6402 -0.4679  0.5662
14167TIP3   OH263991   1.584   0.653  29.577  0.2266  0.4520 -0.8482
14167TIP3    H163992   1.634   0.579  29.611 -1.2844 -1.3819 -2.3729
14167TIP3    H263993   1.650   0.720  29.558  1.5329 -0.0868  1.4375
14168TIP3   OH263994   3.049   2.496  28.140  0.6682  0.1253 -0.0044
14168TIP3    H163995   3.078   2.568  28.084 -0.1240  1.3220  1.0800
14168TIP3    H263996   3.026   2.426  28.079  2.1616  0.5007 -1.0465
14169TIP3   OH263997   0.968   3.105  37.572 -0.2032 -0.3672  0.0497
14169TIP3    H163998   0.969   3.196  37.602 -0.4929 -0.0962 -0.7532
14169TIP3    H263999   0.875   3.083  37.565 -0.1420 -0.4219 -0.6556
14170TIP3   OH264000   1.258   2.275  10.047  0.5057 -0.6093 -0.4757
14170TIP3    H164001   1.182   2.217  10.053 -1.1454  1.2225 -2.3715
14170TIP3    H264002   1.333   2.215  10.038 -0.1410 -2.5977  4.3294
14171TIP3   OH264003   3.989   1.612   8.553 -0.0511 -0.1600  0.7860
14171TIP3    H164004   4.003   1.622   8.459 -1.1181 -1.6245  0.4204
14171TIP3    H264005   3.954   1.696   8.582  0.3303  0.3150 -0.1097
14172TIP3   OH264006   2.220   4.053  35.580 -0.4420  0.0423  0.1601
14172TIP3    H164007   2.314   4.070  35.589 -0.3005 -0.7595  0.2991
14172TIP3    H264008   2.207   4.042  35.486 -0.5175  0.7859  0.0776
14173TIP3   OH264009   0.773   2.000  30.576 -0.2538  0.2352  0.3441
14173TIP3    H164010   0.823   1.926  30.541  2.2036  2.0216 -0.2381
14173TIP3    H264011   0.686   1.990  30.538 -0.0716 -2.4258  0.4552
14174TIP3   OH264012   2.595   0.098  12.093  0.0157  0.3180  0.3648
14174TIP3    H164013   2.645   0.140  12.163 -1.3922  0.8493  1.0779
14174TIP3    H264014   2.661   0.051  12.042  1.0004 -0.6974  2.4455
14175TIP3   OH264015   3.442   3.066  40.236  0.3871 -0.2920  0.4925
14175TIP3    H164016   3.367   3.118  40.268  0.0401 -1.0698  0.9704
14175TIP3    H264017   3.403   2.983  40.208  0.7676  0.1447 -1.4506
14176TIP3   OH264018   0.461   4.207  14.631  0.1200  0.5661  0.0292
14176TIP3    H164019   0.405   4.142  14.672 -0.4865  1.5357  0.7681
14176TIP3    H264020   0.550   4.173  14.643 -0.2415 -0.6187 -0.5110
14177TIP3   OH264021   2.140   4.273  26.641  0.0367 -0.0132 -0.1990
14177TIP3    H164022   2.124   4.296  26.549 -0.6778 -0.7673 -0.2780
14177TIP3    H264023   2.070   4.318  26.689  1.7499  2.3086  0.2883
14178TIP3   OH264024   1.063   2.291  34.991 -0.6684 -0.0140  0.1018
14178TIP3    H164025   1.037   2.383  34.988  0.6064  0.4732  1.9251
14178TIP3    H264026   1.136   2.284  34.929 -1.0604  0.0792 -0.3764
14179TIP3   OH264027   2.133   3.691  13.174 -0.3550 -0.2931 -0.6609
14179TIP3    H164028   2.154   3.614  13.226  2.6203  0.2463 -0.9191
14179TIP3    H264029   2.058   3.731  13.219  1.5965 -0.2238  2.8313
14180TIP3   OH264030   3.106   2.762   3.999  0.2771 -0.3829 -0.2259
14180TIP3    H164031   3.151   2.749   4.082  0.5544  0.4117 -0.2428
14180TIP3    H264032   3.028   2.706   4.004  0.5316 -0.6910  0.3689
14181TIP3   OH264033   2.922   0.729   8.380 -0.0148  0.2826  0.0779
14181TIP3    H164034   2.835   0.751   8.346  0.0474  2.3762  1.1297
14181TIP3    H264035   2.906   0.700   8.470  0.4029  1.0047  0.3884
14182TIP3   OH264036   2.856   0.821  28.384  0.2025  0.4173  0.1238
14182TIP3    H164037   2.919   0.821  28.312 -0.6375 -0.7593 -0.6289
14182TIP3    H264038   2.910   0.815  28.463  1.1172  1.5208 -0.3873
14183TIP3   OH264039   1.569   2.554  14.306  0.1500 -0.3847 -0.0293
14183TIP3    H164040   1.500   2.540  14.370  1.4617  0.1557  1.6005
14183TIP3    H264041   1.585   2.468  14.268  0.3895 -1.0797  1.5492
14184TIP3   OH264042   0.174   3.722  26.098  0.1894 -0.1314 -0.5933
14184TIP3    H164043   0.129   3.671  26.031 -0.6030 -1.3462  0.8192
14184TIP3    H264044   0.267   3.717  26.074  0.0861 -1.9402 -0.7076
14185TIP3   OH264045   1.738   3.334  17.655  0.0542  0.2930  0.4646
14185TIP3    H164046   1.692   3.409  17.692 -0.1425 -0.3067  1.4466
14185TIP3    H264047   1.831   3.359  17.659 -0.0705  0.9534 -0.3091
14186TIP3   OH264048   1.642   4.265   6.795 -0.4539  0.0517 -0.0562
14186TIP3    H164049   1.654   4.285   6.888 -2.0097 -1.9173  0.6531
14186TIP3    H264050   1.588   4.337   6.762 -2.4711 -0.6957  1.3882
14187TIP3   OH264051   4.038   3.159  27.902  0.3642  0.1938  0.0096
14187TIP3    H164052   3.967   3.219  27.922 -0.7408 -0.7761 -0.8829
14187TIP3    H264053   4.042   3.157  27.806  1.3214 -0.0909  0.0392
14188TIP3   OH264054   2.608   2.296   8.512 -0.2880  0.7479  0.0439
14188TIP3    H164055   2.568   2.236   8.449 -2.2215  2.6816 -0.7298
14188TIP3    H264056   2.684   2.332   8.466 -1.2912  1.6318 -1.0035
14189TIP3   OH264057   1.900   3.143   2.270  0.1668  0.1957  0.1148
14189TIP3    H164058   1.984   3.151   2.224 -0.0025 -1.1908 -0.4837
14189TIP3    H264059   1.915   3.075   2.335 -0.4406  0.0685  0.1259
14190TIP3   OH264060   1.561   3.318  36.448  0.0760 -0.0808 -0.1396
14190TIP3    H164061   1.597   3.324  36.360  1.1956 -1.0901  0.2040
14190TIP3    H264062   1.511   3.398  36.460  1.4236  0.9374 -1.0369
14191TIP3   OH264063   0.515   3.143   4.344  0.1137 -0.0145 -0.0109
14191TIP3    H164064   0.473   3.167   4.262  2.4911 -0.0161 -1.3287
14191TIP3    H264065   0.463   3.185   4.412 -0.6215  1.9237 -1.6769
14192TIP3   OH264066   4.394   3.568  37.891  0.2671  0.5412  0.1869
14192TIP3    H164067   4.326   3.610  37.944 -0.4056  0.5726 -0.6742
14192TIP3    H264068   4.431   3.639  37.839  0.6377  0.4399  0.3084
14193TIP3   OH264069   4.245   2.054  27.577 -0.4036  0.4720 -0.2626
14193TIP3    H164070   4.157   2.044  27.612 -0.3192  2.9921  0.9421
14193TIP3    H264071   4.287   1.969  27.591 -1.7128  0.1268  2.0027
14194TIP3   OH264072   1.071   0.878  10.265  0.3684  0.3774 -0.1874
14194TIP3    H164073   1.159   0.875  10.227  1.0975  0.3017  1.4260
14194TIP3    H264074   1.076   0.820  10.341 -1.4273 -0.5588 -0.7165
14195TIP3   OH264075   0.185   2.930  36.688 -1.3952  0.4637  0.0652
14195TIP3    H164076   0.102   2.895  36.721 -0.4060 -2.4802 -0.2260
14195TIP3    H264077   0.196   2.888  36.602  1.3322 -0.9779  0.9820
14196TIP3   OH264078   4.047   0.733  41.624  0.3880  0.1094 -0.1551
14196TIP3    H164079   4.130   0.774  41.647  0.0559  1.0098 -0.5044
14196TIP3    H264080   4.022   0.683  41.701  0.3129  1.3857  0.6856
14197TIP3   OH264081   4.230   4.373  40.671  0.2561  0.2015 -0.0255
14197TIP3    H164082   4.274   4.368  40.586  0.1532  0.4309 -0.0920
14197TIP3    H264083   4.284   4.434  40.721  0.1395  0.3154 -0.0344
14198TIP3   OH264084   0.111   2.002  32.287  0.3991 -0.4872 -0.4670
14198TIP3    H164085   0.023   2.001  32.323 -0.0449 -0.3059 -1.5297
14198TIP3    H264086   0.139   2.094  32.296  1.0155 -0.7909  1.0871
14199TIP3   OH264087   4.035   2.884  29.790 -0.4690  0.2536 -0.0360
14199TIP3    H164088   4.128   2.862  29.787 -0.7670 -1.0437 -0.0974
14199TIP3    H264089   3.997   2.822  29.852 -1.7956 -1.2985 -2.2503
14200TIP3   OH264090   3.114   1.571  36.194  0.4156 -0.6979  0.0282
14200TIP3    H164091   3.132   1.477  36.189  0.3246 -0.6621 -1.3154
14200TIP3    H264092   3.056   1.588  36.120  1.8554  0.7305 -0.8166
14201TIP3   OH264093   0.133   4.243  27.679 -0.2886  0.4668  0.2045
14201TIP3    H164094   0.123   4.175  27.745 -0.5126 -0.0047 -0.3169
14201TIP3    H264095   0.227   4.260  27.676 -0.0863 -0.7287 -0.5742
14202TIP3   OH264096   3.013   2.493  30.386  0.0870 -0.1938 -1.1240
14202TIP3    H164097   3.058   2.496  30.301  0.1218 -2.7143 -1.2558
14202TIP3    H264098   2.921   2.503  30.364  0.1717  0.1216 -1.3473
14203TIP3   OH264099   1.667   0.765  13.998  0.5912  0.0568  0.5463
14203TIP3    H164100   1.626   0.699  13.942  1.4441 -0.4412  0.5001
14203TIP3    H264101   1.759   0.765  13.972  0.3237  2.4550 -0.6176
14204TIP3   OH264102   2.670   3.744  28.037  0.0126  0.0992 -0.4758
14204TIP3    H164103   2.671   3.817  27.975  0.0985  1.0286  0.5963
14204TIP3    H264104   2.607   3.769  28.104  1.4395  0.1134  0.9422
14205TIP3   OH264105   2.670   3.123  27.469 -0.3608  0.1084 -0.2209
14205TIP3    H164106   2.632   3.058  27.528 -0.7743 -1.2701 -1.9271
14205TIP3    H264107   2.597   3.183  27.450 -0.6314 -0.3083 -0.5002
14206TIP3   OH264108   0.789   1.118  32.860 -0.6673  0.5641 -0.1800
14206TIP3    H164109   0.870   1.104  32.909 -0.6984 -0.0047 -0.2797
14206TIP3    H264110   0.721   1.080  32.915 -0.5788 -1.0332 -1.0988
14207TIP3   OH264111   0.628   1.889  32.597  0.3914  0.2640 -0.2192
14207TIP3    H164112   0.561   1.883  32.529 -0.2450 -2.0854  0.5210
14207TIP3    H264113   0.687   1.816  32.578  2.3082  1.7582 -0.3400
14208TIP3   OH264114   1.474   3.418   6.221 -0.2102  0.2000 -0.0927
14208TIP3    H164115   1.434   3.476   6.285 -2.4984 -2.2258  0.8600
14208TIP3    H264116   1.412   3.345   6.212  1.6490 -1.2511 -2.5086
14209TIP3   OH264117   1.862   2.381   4.818 -0.5690  0.6142 -0.2482
14209TIP3    H164118   1.911   2.300   4.829 -0.4078  0.9258  1.6051
14209TIP3    H264119   1.771   2.356   4.832 -0.8666  0.2950 -2.3512
14210TIP3   OH264120   3.624   3.531  34.703  0.2467 -0.5463 -0.1607
14210TIP3    H164121   3.586   3.603  34.652 -1.6079 -0.9557  0.5703
14210TIP3    H264122   3.718   3.548  34.702 -0.0417  1.2312 -0.9854
14211TIP3   OH264123   3.760   3.706  29.143  0.2371  0.8876  0.2207
14211TIP3    H164124   3.752   3.661  29.228  0.4289  1.6016  0.6261
14211TIP3    H264125   3.695   3.777  29.147 -0.5810  0.2197 -0.7065
14212TIP3   OH264126   2.744   3.778  31.321  0.4793 -0.3686  0.0212
14212TIP3    H164127   2.835   3.751  31.310  1.0402  1.8071 -1.2424
14212TIP3    H264128   2.717   3.809  31.234 -0.8684  0.7344  0.7786
14213TIP3   OH264129   4.059   3.158  38.948 -0.0323 -0.0233  0.0201
14213TIP3    H164130   3.966   3.174  38.962 -0.3803 -1.4292 -0.4877
14213TIP3    H264131   4.085   3.099  39.019 -0.8230 -3.8026 -2.5176
14214TIP3   OH264132   3.734   3.183  29.548 -0.5010  0.2161  0.0714
14214TIP3    H164133   3.796   3.211  29.615 -1.4616  2.2182  0.1832
14214TIP3    H264134   3.672   3.128  29.595 -1.9573  2.6876  1.2258
14215TIP3   OH264135   1.057   2.706  38.645  0.4330 -0.2126 -0.1823
14215TIP3    H164136   0.980   2.713  38.588  0.2721  1.0338  0.1573
14215TIP3    H264137   1.101   2.627  38.616 -0.2209 -0.1777 -1.3300
14216TIP3   OH264138   0.829   3.476  12.989 -0.2799 -0.2398 -0.1215
14216TIP3    H164139   0.768   3.429  12.932 -0.0075 -0.1402 -0.4986
14216TIP3    H264140   0.791   3.469  13.076 -0.4542 -0.8102 -0.2398
14217TIP3   OH264141   1.116   0.834  30.636  0.0640  0.2233 -0.1275
14217TIP3    H164142   1.113   0.782  30.556  0.4551  0.2640 -0.1676
14217TIP3    H264143   1.025   0.864  30.648 -0.0245  0.0963 -0.4726
14218TIP3   OH264144   2.807   1.133  30.972  0.5014 -0.2647  0.2100
14218TIP3    H164145   2.772   1.097  30.890  1.0394 -2.2005  0.7900
14218TIP3    H264146   2.816   1.058  31.029  0.7573  0.9693  1.8552
14219TIP3   OH264147   1.262   2.411  33.676 -0.1355 -0.0920  0.0873
14219TIP3    H164148   1.285   2.323  33.645 -1.4539 -0.0243 -1.1909
14219TIP3    H264149   1.345   2.457  33.683  0.7593 -1.8397  2.2055
14220TIP3   OH264150   0.464   2.406  38.213 -0.3590 -0.2468 -0.5659
14220TIP3    H164151   0.430   2.489  38.180 -1.4921 -0.3089  0.3918
14220TIP3    H264152   0.547   2.394  38.166  0.8868  2.4441  0.7406
14221TIP3   OH264153   0.864   3.731  39.571  0.2427 -0.1912  0.1058
14221TIP3    H164154   0.915   3.795  39.620  0.1003 -0.3616  0.4783
14221TIP3    H264155   0.861   3.765  39.482  2.0930 -0.8075 -0.2219
14222TIP3   OH264156   0.755   4.055   6.448  0.0975 -0.0680 -0.7040
14222TIP3    H164157   0.765   4.145   6.415  0.2893  0.7776  1.4796
14222TIP3    H264158   0.844   4.025   6.464  0.0421 -0.7439 -1.5823
14223TIP3   OH264159   2.738   3.848  33.838 -0.4963 -0.1612  0.3480
14223TIP3    H164160   2.689   3.925  33.809 -0.7411 -0.3069  0.3778
14223TIP3    H264161   2.794   3.881  33.908  0.9776  0.4713 -1.0487
14224TIP3   OH264162   0.231   0.493   3.540 -0.7917  0.1023 -0.0741
14224TIP3    H164163   0.325   0.504   3.556 -0.5510 -1.0672 -0.5091
14224TIP3    H264164   0.193   0.579   3.555  0.4616  0.7691 -0.5892
14225TIP3   OH264165   3.901   1.099  31.552 -1.0098  0.5105 -0.4345
14225TIP3    H164166   3.809   1.112  31.528 -1.3246 -2.1637 -0.9008
14225TIP3    H264167   3.898   1.075  31.645 -0.9393 -0.7946 -0.7515
14226TIP3   OH264168   1.460   2.977  31.459  0.1075 -0.0768  0.5949
14226TIP3    H164169   1.487   3.043  31.394 -1.1032  0.7639  0.9154
14226TIP3    H264170   1.541   2.953  31.503  0.6908  0.6576 -0.0423
14227TIP3   OH264171   1.851   2.826  37.794 -0.5469 -0.0169  0.0096
14227TIP3    H164172   1.830   2.919  37.786  0.9791  0.6841  3.0348
14227TIP3    H264173   1.822   2.801  37.881 -0.6186 -2.3551 -0.5918
14228TIP3   OH264174   0.006   2.986  34.162  0.0755  0.3185 -0.2093
14228TIP3    H164175   0.083   2.934  34.189  0.6635  0.5676 -1.3446
14228TIP3    H264176   0.024   3.009  34.071 -0.0813  2.6795  0.2976
14229TIP3   OH264177   2.370   1.390  38.335  0.0309  0.5044  0.2740
14229TIP3    H164178   2.420   1.395  38.417  0.8298 -1.5851 -0.0316
14229TIP3    H264179   2.286   1.429  38.357  0.4447  0.5633  1.9323
14230TIP3   OH264180   0.358   3.724  28.407 -0.5351 -0.3484  0.0697
14230TIP3    H164181   0.452   3.737  28.395 -0.5380 -0.7120 -0.3554
14230TIP3    H264182   0.330   3.800  28.458 -0.1518  0.1506 -0.4568
14231TIP3   OH264183   1.791   2.955  35.189 -1.0419 -0.1984 -0.1577
14231TIP3    H164184   1.805   2.998  35.273  1.0424 -1.2141  0.0802
14231TIP3    H264185   1.777   3.027  35.127 -0.5131  0.6715  0.7128
14232TIP3   OH264186   3.798   2.883   4.579 -0.1292 -0.1646  0.2727
14232TIP3    H164187   3.800   2.810   4.641  0.2451 -0.4857 -0.1121
14232TIP3    H264188   3.870   2.940   4.606  1.4196 -1.3610 -1.1134
14233TIP3   OH264189   0.447   1.437  11.233 -0.3873 -0.2426 -0.6145
14233TIP3    H164190   0.415   1.514  11.186 -0.5624  0.3122  0.3903
14233TIP3    H264191   0.531   1.465  11.269 -0.0607 -0.7978 -0.9412
14234TIP3   OH264192   4.346   4.234   2.935 -0.0686 -0.1711  0.1957
14234TIP3    H164193   4.274   4.238   2.999  0.7026  0.4715  1.0646
14234TIP3    H264194   4.315   4.285   2.861 -0.3918  0.3942  0.7065
14235TIP3   OH264195   2.735   0.235   5.684  0.5858  0.0356 -0.1006
14235TIP3    H164196   2.825   0.263   5.670  0.8784 -1.3187 -1.0847
14235TIP3    H264197   2.733   0.209   5.777 -0.0719  4.3773  1.3229
14236TIP3   OH264198   2.292   2.997  35.758  0.6995  0.2587 -0.5325
14236TIP3    H164199   2.275   2.924  35.817  0.8938  0.4375 -0.2515
14236TIP3    H264200   2.217   2.998  35.698  0.6237 -0.0743 -0.4413
14237TIP3   OH264201   0.284   0.407   9.701 -0.6575 -0.3514  0.5393
14237TIP3    H164202   0.227   0.446   9.635 -0.6715 -0.6799  0.3574
14237TIP3    H264203   0.290   0.474   9.770 -2.8071 -1.0220  1.4902
14238TIP3   OH264204   1.973   3.203   0.162  0.2078 -0.3273  0.2736
14238TIP3    H164205   2.044   3.251   0.119  1.9376 -3.2119 -0.3295
14238TIP3    H264206   1.901   3.266   0.166  2.1090  2.1011 -0.9295
14239TIP3   OH264207   2.388   1.147   2.740  0.3104  0.2011 -0.4912
14239TIP3    H164208   2.324   1.078   2.756 -0.6062  0.9875 -0.6642
14239TIP3    H264209   2.457   1.131   2.804  0.4250 -1.2253 -0.9246
14240TIP3   OH264210   1.642   3.537  27.695  0.4433 -0.3546  0.3754
14240TIP3    H164211   1.558   3.578  27.714  0.0681 -0.6568 -0.5626
14240TIP3    H264212   1.652   3.470  27.761  0.3149  0.1956  0.9636
14241TIP3   OH264213   1.591   1.938  10.143  0.6748 -0.3438  0.4098
14241TIP3    H164214   1.509   1.912  10.186  0.6991  1.6918  1.8529
14241TIP3    H264215   1.656   1.935  10.213  2.0783 -2.6864 -0.8888
14242TIP3   OH264216   2.734   0.529   6.091  0.0497 -0.0519  0.1451
14242TIP3    H164217   2.657   0.483   6.057  0.0017  0.9174 -1.1376
14242TIP3    H264218   2.700   0.588   6.158 -0.6409  1.5766 -1.5368
14243TIP3   OH264219   1.158   3.981  34.376  0.4672  0.0015 -0.1585
14243TIP3    H164220   1.113   4.012  34.454  2.5074  2.5901  0.1581
14243TIP3    H264221   1.205   3.902  34.404  2.7142  1.9213  1.9378
14244TIP3   OH264222   0.806   2.927  39.627 -0.3774 -0.2429  0.4792
14244TIP3    H164223   0.892   2.905  39.591 -0.2295 -0.6166  1.0404
14244TIP3    H264224   0.756   2.845  39.623  0.2054 -0.7759  2.6723
14245TIP3   OH264225   3.635   2.681  38.902  0.1329 -0.2323 -0.1474
14245TIP3    H164226   3.563   2.628  38.936  1.1786 -1.5170  0.1556
14245TIP3    H264227   3.607   2.709  38.815 -1.6665  1.2467  0.8380
14246TIP3   OH264228   1.309   2.943  15.452  0.1446 -0.1800  0.6668
14246TIP3    H164229   1.325   2.938  15.358  2.0320 -0.1369  0.9512
14246TIP3    H264230   1.228   2.893  15.465 -0.1250 -0.2206 -0.9508
14247TIP3   OH264231   2.797   2.167   9.492  0.7114 -0.1844 -0.5219
14247TIP3    H164232   2.832   2.092   9.540 -1.0219 -1.0769 -0.5705
14247TIP3    H264233   2.710   2.139   9.463 -0.9318  2.5349  1.2426
14248TIP3   OH264234   3.270   3.365   2.816 -0.7309  0.0869 -0.2075
14248TIP3    H164235   3.348   3.402   2.856 -1.1664 -1.2115  2.0416
14248TIP3    H264236   3.302   3.289   2.767 -0.2658  1.3453 -1.9501
14249TIP3   OH264237   3.217   1.393   2.078  0.4011  0.1330 -0.1943
14249TIP3    H164238   3.288   1.362   2.022 -0.2588 -1.0015 -0.4354
14249TIP3    H264239   3.224   1.339   2.157  0.4600  0.7512  0.2226
14250TIP3   OH264240   0.221   1.322   3.717  0.1728 -0.3766 -0.8061
14250TIP3    H164241   0.144   1.378   3.726  1.9209  1.8481  3.1354
14250TIP3    H264242   0.212   1.257   3.788  0.9396 -1.4804 -1.6741
14251TIP3   OH264243   3.827   0.022  32.918 -0.4815 -0.8919 -0.5566
14251TIP3    H164244   3.732   0.032  32.913 -0.2587  2.2468 -0.1248
14251TIP3    H264245   3.850   0.048  33.007  0.9558  0.4873 -1.2859
14252TIP3   OH264246   3.661   2.453   4.704  0.2541  0.0489  0.1641
14252TIP3    H164247   3.631   2.408   4.783  1.5661 -0.3390  0.4654
14252TIP3    H264248   3.726   2.394   4.665 -1.2841 -0.3617 -1.9352
14253TIP3   OH264249   0.770   1.676  32.020 -0.1492  0.0435  0.1366
14253TIP3    H164250   0.697   1.733  31.996  0.3547  1.2096  1.2139
14253TIP3    H264251   0.847   1.732  32.013  0.0944  0.4406  3.8683
14254TIP3   OH264252   3.337   1.143   3.420  0.1439 -0.3010  0.6965
14254TIP3    H164253   3.279   1.071   3.395  1.5386 -1.2454  0.0511
14254TIP3    H264254   3.337   1.142   3.515 -0.5716 -0.5418  0.7038
14255TIP3   OH264255   3.238   3.799  35.230  0.4896 -0.2561 -0.7436
14255TIP3    H164256   3.279   3.741  35.295 -0.1938  0.8682  0.7583
14255TIP3    H264257   3.173   3.743  35.187 -0.7890 -0.4861  1.3022
14256TIP3   OH264258   2.135   4.322  17.651 -0.2351  0.2161  0.1331
14256TIP3    H164259   2.091   4.240  17.671  1.1985 -0.5435  0.3297
14256TIP3    H264260   2.182   4.344  17.732  1.8091 -0.4021 -0.8136
14257TIP3   OH264261   3.197   2.104  27.231 -0.5418  0.7522  0.1743
14257TIP3    H164262   3.193   2.029  27.172 -0.0948  0.7308  0.1619
14257TIP3    H264263   3.273   2.154  27.201 -2.0177  2.3191 -1.0905
14258TIP3   OH264264   3.970   0.530  38.952  0.4475  0.0285 -0.6160
14258TIP3    H164265   3.908   0.602  38.963 -0.0435 -0.3876 -0.6223
14258TIP3    H264266   4.052   0.573  38.928  0.4416  0.6512  0.4259
14259TIP3   OH264267   1.244   2.808  27.182  0.6298  0.0572 -0.1505
14259TIP3    H164268   1.192   2.861  27.121 -1.4239 -3.0641 -1.3696
14259TIP3    H264269   1.180   2.751  27.225  2.4114  0.0923  2.8447
14260TIP3   OH264270   4.161   3.389  38.279 -0.2451 -0.1689 -0.0991
14260TIP3    H164271   4.076   3.365  38.241 -0.4931  0.6721 -0.0905
14260TIP3    H264272   4.180   3.319  38.341 -1.5213  0.2288  0.7872
14261TIP3   OH264273   2.429   0.725  10.996 -0.5064  0.3092  0.3329
14261TIP3    H164274   2.354   0.690  11.043  0.3856 -2.1060  0.1248
14261TIP3    H264275   2.471   0.648  10.958  2.2110  1.5052  0.6624
14262TIP3   OH264276   3.349   0.146  34.456  0.1364 -0.5276  0.7245
14262TIP3    H164277   3.303   0.211  34.401 -1.2849 -0.7132  1.6279
14262TIP3    H264278   3.419   0.195  34.497  1.9731 -0.6104 -2.0202
14263TIP3   OH264279   0.377   1.691  29.633  0.4843  0.2562 -0.0898
14263TIP3    H164280   0.439   1.714  29.564 -0.2263  0.2098 -0.7549
14263TIP3    H264281   0.431   1.652  29.702  1.0834 -0.7120 -1.0691
14264TIP3   OH264282   1.849   3.710  37.969  0.4106 -0.8246 -0.5193
14264TIP3    H164283   1.859   3.724  37.875 -0.8037  1.2526 -0.3969
14264TIP3    H264284   1.760   3.677  37.979  0.4301 -0.7459 -0.0650
14265TIP3   OH264285   2.933   0.129  31.761 -0.2563 -0.1423  0.6458
14265TIP3    H164286   2.943   0.189  31.688 -0.0865  1.3408  1.8424
14265TIP3    H264287   3.022   0.113  31.793 -0.3204 -0.8473  0.5015
14266TIP3   OH264288   3.198   1.985  41.411 -0.0279  0.4519  0.1706
14266TIP3    H164289   3.184   2.078  41.424  0.6594  0.5894 -0.0122
14266TIP3    H264290   3.246   1.979  41.328 -3.0359 -0.2935 -1.6802
14267TIP3   OH264291   1.583   4.150  11.434 -0.1279 -0.3018 -0.4939
14267TIP3    H164292   1.561   4.078  11.493 -1.8094  1.3415  1.0194
14267TIP3    H264293   1.671   4.130  11.403  0.1498 -2.0910  1.2652
14268TIP3   OH264294   0.392   0.364  38.221  0.2505 -0.2635 -0.0632
14268TIP3    H164295   0.447   0.313  38.162 -2.0015 -2.1445 -0.6615
14268TIP3    H264296   0.359   0.301  38.285 -0.2787  1.0363  0.9964
14269TIP3   OH264297   0.275   2.950  24.184 -0.6881 -0.5949  0.1938
14269TIP3    H164298   0.342   2.898  24.140  0.2768  1.0288 -0.3521
14269TIP3    H264299   0.250   2.897  24.259 -0.1080 -2.0465 -0.5777
14270TIP3   OH264300   0.556   2.729   4.468 -0.0613  0.2554 -0.0029
14270TIP3    H164301   0.585   2.698   4.382  3.2177  0.0428  1.0676
14270TIP3    H264302   0.636   2.743   4.517 -1.7886  1.5850  2.6638
14271TIP3   OH264303   2.452   3.473  30.487 -0.4439  0.0380 -0.6859
14271TIP3    H164304   2.385   3.493  30.422  0.2737 -0.1216 -1.4867
14271TIP3    H264305   2.497   3.557  30.501  0.9218 -0.4024 -2.1644
14272TIP3   OH264306   0.810   3.283  40.361 -0.2091 -0.0034 -0.4247
14272TIP3    H164307   0.792   3.233  40.282  0.6661 -2.2878  0.7198
14272TIP3    H264308   0.724   3.291  40.404 -0.1731 -1.9756  0.1161
14273TIP3   OH264309   0.775   2.533   1.531 -0.4652  0.5161  0.2556
14273TIP3    H164310   0.687   2.497   1.533  0.3460 -1.5521  0.9721
14273TIP3    H264311   0.832   2.458   1.515  1.2423  1.6809  0.5253
14274TIP3   OH264312   3.298   2.136  26.654  0.6295 -0.1134 -0.1542
14274TIP3    H164313   3.289   2.089  26.737 -0.8704 -0.3576 -0.4284
14274TIP3    H264314   3.298   2.228  26.679 -1.5055 -0.1189  0.0315
14275TIP3   OH264315   2.136   0.080  29.303  0.0552  0.1989  0.0067
14275TIP3    H164316   2.206   0.145  29.299  0.1735  0.1460  0.9676
14275TIP3    H264317   2.066   0.117  29.249  1.4336 -0.5607 -2.4633
14276TIP3   OH264318   4.056   2.365  41.613  0.0022  0.0957 -0.0510
14276TIP3    H164319   4.121   2.428  41.643  1.2961 -0.6725 -1.1181
14276TIP3    H264320   4.005   2.412  41.548 -0.0331  0.4865  0.2566
14277TIP3   OH264321   1.499   0.140   0.009 -0.2484  0.2833  0.5215
14277TIP3    H164322   1.475   0.050  -0.014  0.5939  0.2101 -0.1381
14277TIP3    H264323   1.591   0.133   0.037 -0.5061  0.7761  1.5214
14278TIP3   OH264324   1.686   3.855  33.960  0.0237 -0.3669  0.2943
14278TIP3    H164325   1.699   3.934  34.011  1.3474 -0.6073  0.3414
14278TIP3    H264326   1.595   3.830  33.978 -0.4278  1.1349  0.2515
14279TIP3   OH264327   0.706   3.307  28.139  0.0319 -0.0239  0.4146
14279TIP3    H164328   0.682   3.349  28.221  0.9978  1.6799 -0.1272
14279TIP3    H264329   0.638   3.336  28.077 -0.7242 -1.3438  0.6032
14280TIP3   OH264330   2.197   0.922  17.141 -0.6024 -0.0092  0.1533
14280TIP3    H164331   2.247   0.887  17.067  1.3620  0.4646  1.1736
14280TIP3    H264332   2.179   0.847  17.196 -0.1623 -0.0566  0.2391
14281TIP3   OH264333   0.911   0.072  30.232  0.1887 -0.3296  0.1922
14281TIP3    H164334   0.846   0.066  30.303  0.6113 -0.8017  0.5466
14281TIP3    H264335   0.913   0.165  30.210 -1.2304 -0.4161 -0.4124
14282TIP3   OH264336   2.587   0.894  28.424  0.1748 -0.1358  0.3114
14282TIP3    H164337   2.670   0.882  28.378  0.7712  0.6647  1.1309
14282TIP3    H264338   2.569   0.809  28.464  0.9261 -0.1428  0.6409
14283TIP3   OH264339   1.066   1.164  37.099  0.3507  0.2310  0.1558
14283TIP3    H164340   1.041   1.254  37.078  1.5249  0.9207  1.4801
14283TIP3    H264341   1.035   1.152  37.189 -0.3348 -0.9292 -0.2104
14284TIP3   OH264342   2.696   4.119   5.084 -0.7366  0.1473  0.1374
14284TIP3    H164343   2.660   4.131   5.172 -0.3224 -1.2411  0.5263
14284TIP3    H264344   2.785   4.153   5.090 -1.7807  3.3711 -0.7646
14285TIP3   OH264345   3.946   3.056  27.359  0.0179  0.0687 -0.2177
14285TIP3    H164346   4.015   3.060  27.292  0.7339 -1.5798  0.3765
14285TIP3    H264347   3.869   3.024  27.311  0.8750 -2.4106 -0.0732
14286TIP3   OH264348   1.740   0.549  34.193  0.7644  0.1603 -0.2446
14286TIP3    H164349   1.689   0.612  34.244 -0.1907 -0.7651 -0.0278
14286TIP3    H264350   1.762   0.596  34.113 -0.7008  0.5142 -0.4738
14287TIP3   OH264351   1.924   0.459  32.614  0.0314 -0.0840 -0.8149
14287TIP3    H164352   1.863   0.477  32.686 -1.2862 -1.2484 -1.5773
14287TIP3    H264353   2.010   0.479  32.650 -0.4270 -1.9228  1.5678
14288TIP3   OH264354   1.507   0.068  34.720  0.1292  0.6342 -0.1361
14288TIP3    H164355   1.439   0.001  34.723  1.6464 -0.9463  1.0236
14288TIP3    H264356   1.511   0.102  34.810 -0.3229  2.0292 -0.6085
14289TIP3   OH264357   2.238   1.033  37.148 -0.2157  0.4801 -0.2878
14289TIP3    H164358   2.190   1.011  37.228 -2.1399  0.0854 -1.4969
14289TIP3    H264359   2.298   1.102  37.175 -1.3699  0.9229  1.3395
14290TIP3   OH264360   4.376   3.109  13.892 -0.7123 -0.4528 -0.7004
14290TIP3    H164361   4.427   3.098  13.812 -0.1557  2.1052 -0.7817
14290TIP3    H264362   4.285   3.106  13.864 -0.5314  1.7552 -1.7426
14291TIP3   OH264363   3.053   1.127  11.191 -0.3453  0.6669 -0.3989
14291TIP3    H164364   3.110   1.087  11.125 -1.1212  0.4778 -0.9711
14291TIP3    H264365   3.040   1.216  11.160  0.0770  0.8772  0.0215
14292TIP3   OH264366   3.253   1.676  30.267  0.0359  0.6070 -0.0742
14292TIP3    H164367   3.343   1.681  30.299  0.4283 -0.5885 -0.9259
14292TIP3    H264368   3.252   1.732  30.190  0.2851 -0.0205 -0.5433
14293TIP3   OH264369   1.320   3.415  34.635  0.0797 -0.0243  0.3029
14293TIP3    H164370   1.412   3.422  34.661  0.1978  0.4681 -0.2448
14293TIP3    H264371   1.271   3.460  34.705  0.2769 -0.0086  0.4308
14294TIP3   OH264372   1.623   3.951  41.416 -0.1961  0.0226  0.1123
14294TIP3    H164373   1.713   3.983  41.416  0.1111 -0.7523  1.5114
14294TIP3    H264374   1.596   3.953  41.508 -1.3019 -0.6106 -0.1719
14295TIP3   OH264375   2.670   1.924  41.373  0.1041  0.2601  0.0244
14295TIP3    H164376   2.635   2.013  41.371 -0.4632  0.0429  0.3769
14295TIP3    H264377   2.763   1.936  41.353 -0.4473  0.6773 -2.6749
14296TIP3   OH264378   2.291   2.976   0.593  0.7039 -0.1245 -0.0999
14296TIP3    H164379   2.202   2.951   0.619  1.2964 -1.0295  1.1584
14296TIP3    H264380   2.278   3.044   0.527 -0.9229 -0.0657  0.2277
14297TIP3   OH264381   0.362   3.900   3.952  0.0327  0.3012 -0.0921
14297TIP3    H164382   0.359   3.805   3.958 -1.0759  0.3998  1.6472
14297TIP3    H264383   0.419   3.918   3.877 -0.5867 -1.7235 -1.1155
14298TIP3   OH264384   2.292   1.936   9.060 -0.4384  0.5016  0.1907
14298TIP3    H164385   2.308   1.953   9.153 -1.5146  1.7481  0.1784
14298TIP3    H264386   2.287   1.841   9.053  1.0084  0.3184  1.1569
14299TIP3   OH264387   4.221   1.022  31.165 -0.3382  0.0420  0.4429
14299TIP3    H164388   4.212   1.116  31.146 -1.0537 -0.1463 -0.2282
14299TIP3    H264389   4.198   1.013  31.257  0.7075  0.6532  0.7784
14300TIP3   OH264390   3.098   0.225   2.601 -0.1749  0.3458 -0.2448
14300TIP3    H164391   3.128   0.158   2.540  0.5150 -0.0550  0.5181
14300TIP3    H264392   3.004   0.208   2.612 -0.4562  0.8359 -1.6899
14301TIP3   OH264393   2.013   3.368   9.633 -0.0141 -0.3356  0.0637
14301TIP3    H164394   1.947   3.396   9.696 -0.5361 -0.3854 -0.4532
14301TIP3    H264395   2.086   3.337   9.686  0.0255  0.7245  0.6433
14302TIP3   OH264396   3.178   4.150  11.541  0.5633  0.2533 -0.0400
14302TIP3    H164397   3.264   4.153  11.498  0.8019 -2.3057  0.1275
14302TIP3    H264398   3.191   4.094  11.617 -0.7735  1.6370  1.2697
14303TIP3   OH264399   2.635   2.317  10.104 -0.4017 -0.6205  0.0134
14303TIP3    H164400   2.575   2.363  10.163  0.0969  1.3704 -0.9338
14303TIP3    H264401   2.582   2.297  10.027  0.3091  2.3482 -1.4057
14304TIP3   OH264402   2.566   2.185  36.904 -0.1529  0.5566  0.2043
14304TIP3    H164403   2.484   2.160  36.861 -0.5773  1.2739  0.5719
14304TIP3    H264404   2.634   2.161  36.842 -0.6507  0.0811 -0.1699
14305TIP3   OH264405   1.507   1.218  35.192  0.1710  0.4613 -0.2516
14305TIP3    H164406   1.467   1.294  35.151 -0.3879  0.2859 -0.0541
14305TIP3    H264407   1.432   1.162  35.216  0.6317 -1.2000 -2.3927
14306TIP3   OH264408   2.924   1.947  26.774 -0.3047  0.1827 -0.3795
14306TIP3    H164409   2.988   1.898  26.723 -0.6039 -0.4601 -0.1531
14306TIP3    H264410   2.972   2.022  26.809  0.9169 -1.4105  1.5731
14307TIP3   OH264411   2.541   0.029   1.696 -0.8590  0.0350 -0.2640
14307TIP3    H164412   2.554   0.093   1.627 -0.8364  0.7099  0.3510
14307TIP3    H264413   2.454   0.047   1.731  0.3252  1.9053  2.0441
14308TIP3   OH264414   1.325   2.918  15.188  0.5660  0.6012  0.0658
14308TIP3    H164415   1.270   2.843  15.165  1.6970  0.0456 -0.8933
14308TIP3    H264416   1.301   2.986  15.126 -0.6589  1.1702  1.1103
14309TIP3   OH264417   2.733   4.343  28.642 -0.5954 -0.2862  0.1240
14309TIP3    H164418   2.682   4.300  28.574  0.8609 -1.3475 -0.3374
14309TIP3    H264419   2.814   4.293  28.647  1.0601  2.1777 -0.1967
14310TIP3   OH264420   2.288   0.477  34.339  0.1877  0.2267 -0.5153
14310TIP3    H164421   2.323   0.549  34.391 -1.7496  0.7001  0.2075
14310TIP3    H264422   2.322   0.398  34.382 -0.2399  0.6427  0.6117
14311TIP3   OH264423   1.339   0.642  11.355 -0.1405 -0.1422  0.2291
14311TIP3    H164424   1.278   0.572  11.378  0.4021 -0.2058  1.6003
14311TIP3    H264425   1.412   0.598  11.312  0.9373 -0.7028  2.4789
14312TIP3   OH264426   0.947   3.726   8.666  0.0528 -0.0426  0.9133
14312TIP3    H164427   0.907   3.742   8.580 -0.1876  0.5154  1.1251
14312TIP3    H264428   1.011   3.656   8.650  1.2091  1.1916 -0.0756
14313TIP3   OH264429   3.983   1.743   5.605 -0.1624  0.0434  0.3712
14313TIP3    H164430   4.020   1.674   5.549  1.0921  0.3960  0.7215
14313TIP3    H264431   3.900   1.766   5.564 -0.2860 -1.2155 -0.1218
14314TIP3   OH264432   1.040   0.842  29.565  0.1405 -0.1468  0.3489
14314TIP3    H164433   1.047   0.808  29.476  2.3351  2.3898 -0.5782
14314TIP3    H264434   1.124   0.820  29.606  0.0361  0.6629  1.0253
14315TIP3   OH264435   0.298   3.687   1.951 -0.1447  0.1941  0.1272
14315TIP3    H164436   0.329   3.697   1.861 -2.6018 -1.7528 -1.0446
14315TIP3    H264437   0.261   3.772   1.974 -2.3290 -0.1111 -1.9430
14316TIP3   OH264438   3.090   3.540  11.934 -0.3292  0.1463 -0.0306
14316TIP3    H164439   3.127   3.465  11.980  0.6039  1.1959  1.0031
14316TIP3    H264440   3.033   3.582  11.999  0.7307  1.4538  0.0828
14317TIP3   OH264441   2.773   0.697   1.866 -0.1761  0.6289 -0.1873
14317TIP3    H164442   2.768   0.737   1.779  0.4049 -1.6532 -1.3499
14317TIP3    H264443   2.843   0.745   1.910 -1.0849  2.4307 -0.5910
14318TIP3   OH264444   0.063   2.065  34.950 -0.6765  0.2121 -0.5504
14318TIP3    H164445   0.143   2.110  34.974 -0.6898  0.0708 -0.2433
14318TIP3    H264446   0.074   2.043  34.857 -0.1987 -0.1461 -0.4119
14319TIP3   OH264447   3.120   1.379   3.508 -0.3123  0.0942 -0.3562
14319TIP3    H164448   3.079   1.406   3.426 -2.0565 -2.3076 -0.3719
14319TIP3    H264449   3.095   1.287   3.519  1.6852 -0.3070  1.7906
14320TIP3   OH264450   3.185   0.286  12.444 -0.1248 -0.0808 -0.0677
14320TIP3    H164451   3.166   0.252  12.357 -0.6917  1.9079 -0.7649
14320TIP3    H264452   3.236   0.216  12.486  0.4886 -0.9367 -2.1024
14321TIP3   OH264453   0.868   0.512  39.625 -0.2071  0.9322  0.4434
14321TIP3    H164454   0.928   0.516  39.550 -1.2509 -0.9435 -0.5707
14321TIP3    H264455   0.921   0.543  39.699  1.1023  2.0771 -0.9028
14322TIP3   OH264456   0.426   1.156  11.201 -0.5927  0.4935  0.4003
14322TIP3    H164457   0.389   1.164  11.113 -1.0945  0.3589  0.5973
14322TIP3    H264458   0.406   1.239  11.243 -0.5571  0.4701  0.4634
14323TIP3   OH264459   0.890   0.334  29.919 -0.0402 -0.5970  0.5656
14323TIP3    H164460   0.965   0.295  29.964  1.2175 -0.6848 -1.4401
14323TIP3    H264461   0.926   0.364  29.835 -2.2009 -0.3791 -0.3477
14324TIP3   OH264462   1.891   1.009  35.783 -0.3995  0.0178 -0.5879
14324TIP3    H164463   1.928   0.925  35.756 -0.1122  0.6672 -2.2881
14324TIP3    H264464   1.810   0.985  35.829 -0.7109 -1.1650 -1.7036
14325TIP3   OH264465   0.394   3.786  39.948  0.1487 -0.2699  0.2639
14325TIP3    H164466   0.483   3.778  39.915 -0.4676  2.2013 -2.3921
14325TIP3    H264467   0.400   3.852  40.018  0.3643  0.1550 -0.1521
14326TIP3   OH264468   0.939   3.543  33.212  0.5953  0.3098  0.4680
14326TIP3    H164469   0.892   3.615  33.254  0.1425 -0.6296  1.6219
14326TIP3    H264470   0.909   3.544  33.122  0.0239  1.1000  0.6588
14327TIP3   OH264471   4.397   2.447  27.444  0.0676  0.1833 -0.1624
14327TIP3    H164472   4.318   2.393  27.458  0.5675 -0.8770 -1.2873
14327TIP3    H264473   4.395   2.469  27.351  0.7656  0.7002 -0.0625
14328TIP3   OH264474   1.994   2.146  30.723 -0.2828  0.3100  0.5882
14328TIP3    H164475   1.916   2.110  30.682 -0.1705  1.3264 -0.5705
14328TIP3    H264476   1.982   2.241  30.718  0.9312  0.4764  0.5533
14329TIP3   OH264477   3.407   2.694  40.130 -0.3873 -0.2110  0.3019
14329TIP3    H164478   3.430   2.747  40.054 -0.5935 -0.1898  0.2540
14329TIP3    H264479   3.339   2.744  40.175 -0.9371 -0.6639 -0.0147
14330TIP3   OH264480   1.500   4.155  32.139  0.3570 -0.2726 -0.1591
14330TIP3    H164481   1.581   4.105  32.149 -0.6736 -1.6360  2.4678
14330TIP3    H264482   1.463   4.125  32.055  1.1372 -1.8833  0.0388
14331TIP3   OH264483   2.775   3.734  39.341  0.5190 -0.4284 -0.5780
14331TIP3    H164484   2.731   3.698  39.264 -2.6331  0.8478  0.4900
14331TIP3    H264485   2.733   3.691  39.416  1.9316  0.0362  0.5374
14332TIP3   OH264486   1.135   3.612  38.819  0.3739 -0.1583  0.0837
14332TIP3    H164487   1.107   3.627  38.728  0.3854 -0.1217  0.0867
14332TIP3    H264488   1.230   3.605  38.814  0.3832 -0.0561  0.1067
14333TIP3   OH264489   1.918   0.999  30.686 -0.0732 -0.1973  0.2853
14333TIP3    H164490   1.933   1.030  30.775  0.3063 -0.2223  0.2317
14333TIP3    H264491   1.960   1.064  30.630  3.0452 -2.0245  0.2495
14334TIP3   OH264492   1.280   2.014   1.207 -0.0294  0.4251 -0.1926
14334TIP3    H164493   1.256   2.059   1.288  1.2348  0.4797  0.1820
14334TIP3    H264494   1.374   1.997   1.216  0.1951  0.6689 -1.7621
14335TIP3   OH264495   3.744   2.064  10.362  0.3240 -0.6712 -0.0002
14335TIP3    H164496   3.729   2.070  10.457  0.2358  2.4288 -0.1196
14335TIP3    H264497   3.798   2.140  10.342 -0.7078 -0.5636 -2.6541
14336TIP3   OH264498   3.698   1.558  31.174 -0.1069 -0.3740  0.7430
14336TIP3    H164499   3.763   1.571  31.243  0.9227 -1.7538  0.0899
14336TIP3    H264500   3.720   1.472  31.137 -0.8143  0.1856 -1.0900
14337TIP3   OH264501   2.612   4.215   6.118 -0.1264 -0.2596  0.1235
14337TIP3    H164502   2.601   4.224   6.213 -2.1471 -0.8496 -0.0137
14337TIP3    H264503   2.565   4.290   6.082  0.2185 -0.3140 -0.4463
14338TIP3   OH264504   0.457   2.970  23.356  0.0891  0.1365 -0.4586
14338TIP3    H164505   0.416   3.053  23.332 -2.3986 -0.7832  0.3138
14338TIP3    H264506   0.480   2.930  23.272  0.4311  1.1444 -0.8633
14339TIP3   OH264507   3.378   2.107  28.629 -0.2833 -0.0127  0.3799
14339TIP3    H164508   3.462   2.151  28.612 -0.2589 -0.7771 -1.8248
14339TIP3    H264509   3.349   2.076  28.543 -1.8371 -1.5699  1.3872
14340TIP3   OH264510   2.356   0.356   4.411 -0.3348  0.1012  0.9218
14340TIP3    H164511   2.358   0.354   4.316 -0.2717  0.9507  0.8959
14340TIP3    H264512   2.433   0.407   4.436 -0.6051  0.2901  1.4032
14341TIP3   OH264513   0.688   0.777   9.794 -0.5732 -0.6440 -0.2095
14341TIP3    H164514   0.663   0.759   9.885 -0.5359 -0.8715 -0.2438
14341TIP3    H264515   0.761   0.718   9.777 -0.5802 -0.6014 -0.3877
14342TIP3   OH264516   4.077   2.745  13.533 -0.0452  0.0156 -0.1691
14342TIP3    H164517   4.164   2.710  13.513  0.5757  1.9343 -1.0514
14342TIP3    H264518   4.028   2.735  13.452  0.4504  1.9998 -0.7484
14343TIP3   OH264519   2.174   2.062   9.378  0.2709 -0.3750 -0.1226
14343TIP3    H164520   2.253   2.023   9.415  1.4222  1.4126 -0.5639
14343TIP3    H264521   2.146   2.126   9.443 -0.2834 -0.3726 -0.3586
14344TIP3   OH264522   2.002   2.529   0.675 -0.4286  0.0479 -0.0508
14344TIP3    H164523   2.062   2.487   0.736  1.4237  0.3962 -1.5272
14344TIP3    H264524   1.932   2.564   0.730  1.4193  0.8193  1.9525
14345TIP3   OH264525   3.107   3.231  37.477 -0.3288 -0.0351 -0.0409
14345TIP3    H164526   3.030   3.228  37.535  1.2382  0.1627  2.1782
14345TIP3    H264527   3.098   3.153  37.422 -2.0307 -0.0898  0.2472
14346TIP3   OH264528   0.330   2.824  21.290 -0.6896  0.1517  0.5973
14346TIP3    H164529   0.361   2.913  21.278 -0.0841 -0.2600 -1.2736
14346TIP3    H264530   0.262   2.813  21.224 -1.8167 -0.3205  1.7956
14347TIP3   OH264531   3.706   1.897  31.334 -0.5027  0.0679  0.3858
14347TIP3    H164532   3.745   1.875  31.250 -0.8997  0.6205  0.0465
14347TIP3    H264533   3.619   1.858  31.331  0.6396 -2.9284  1.9447
14348TIP3   OH264534   0.967   0.956  32.359  0.1746 -0.2246  0.0518
14348TIP3    H164535   0.898   0.936  32.422  0.0031 -0.5559 -0.2423
14348TIP3    H264536   1.020   0.876  32.354 -0.6138 -0.6940 -1.2528
14349TIP3   OH264537   0.997   0.940   8.791 -0.4275  0.2546  0.4124
14349TIP3    H164538   1.030   1.000   8.857 -0.7617 -1.0261  1.7831
14349TIP3    H264539   0.966   0.997   8.720  1.0531  1.5980  0.8057
14350TIP3   OH264540   1.292   0.975  16.051 -0.2676 -0.8771  0.2668
14350TIP3    H164541   1.264   0.893  16.010  1.1298 -0.9596 -0.6291
14350TIP3    H264542   1.383   0.986  16.022 -0.1185  0.5115  1.1397
14351TIP3   OH264543   2.983   3.981   6.591  0.1248 -0.4794  0.5022
14351TIP3    H164544   2.984   4.051   6.657 -2.3340  0.1201 -0.0098
14351TIP3    H264545   2.968   3.902   6.642 -1.2612 -0.0798  0.7680
14352TIP3   OH264546   1.768   3.323  10.184  0.3044 -0.3345 -0.2732
14352TIP3    H164547   1.751   3.262  10.112 -1.0801 -1.1385  0.6853
14352TIP3    H264548   1.836   3.281  10.236 -0.6681 -1.0975  0.4006
14353TIP3   OH264549   0.955   2.220  15.275 -0.0740 -0.3086  0.4015
14353TIP3    H164550   0.911   2.248  15.195 -1.1904 -0.4363  0.9439
14353TIP3    H264551   1.046   2.246  15.263  0.1608 -1.8813 -1.6242
14354TIP3   OH264552   0.490   2.528  12.816 -0.2332 -0.3667 -0.1060
14354TIP3    H164553   0.441   2.467  12.871  0.9964 -0.6393  0.7273
14354TIP3    H264554   0.501   2.606  12.871 -0.4862  0.0294 -0.6112
14355TIP3   OH264555   3.148   3.813   4.048  0.0588 -0.1531 -0.3098
14355TIP3    H164556   3.181   3.798   4.137  0.0018  1.9950  0.1358
14355TIP3    H264557   3.074   3.753   4.039 -0.3401  0.0511  1.3442
14356TIP3   OH264558   0.660   2.629  36.453 -0.2196 -0.7542 -0.0617
14356TIP3    H164559   0.681   2.702  36.395  0.2523 -0.9689 -0.1645
14356TIP3    H264560   0.744   2.586  36.471 -0.2432 -0.2381  1.4112
14357TIP3   OH264561   1.072   1.792   0.200 -0.1069  0.5728  0.0912
14357TIP3    H164562   1.035   1.750   0.123  0.1827  0.0861  0.2122
14357TIP3    H264563   1.095   1.720   0.258  0.6725  0.8793  0.1760
14358TIP3   OH264564   1.777   3.515  10.772  0.3149 -0.1024 -0.1667
14358TIP3    H164565   1.705   3.500  10.711  0.7830  1.1729 -1.0886
14358TIP3    H264566   1.736   3.555  10.849 -0.2380 -1.4375  0.2522
14359TIP3   OH264567   3.642   0.334  35.277 -0.3064  0.9580  0.1761
14359TIP3    H164568   3.675   0.310  35.190 -2.1820  1.6268 -0.7553
14359TIP3    H264569   3.607   0.422  35.267 -0.9266  0.8894  1.5146
14360TIP3   OH264570   0.674   1.582   9.224 -0.1997  0.2654  0.6450
14360TIP3    H164571   0.658   1.602   9.132  1.3232 -1.5133 -0.0663
14360TIP3    H264572   0.601   1.623   9.270 -1.2906  0.7592 -1.3968
14361TIP3   OH264573   0.246   2.520  37.809 -0.0342  0.0117  0.2710
14361TIP3    H164574   0.269   2.458  37.740 -1.4047  1.0474 -1.1946
14361TIP3    H264575   0.217   2.466  37.882  3.0631 -1.1869  0.7896
14362TIP3   OH264576   4.246   3.846   7.183  0.1425 -0.8404  0.0503
14362TIP3    H164577   4.157   3.879   7.184  0.3454 -0.2913  0.3283
14362TIP3    H264578   4.294   3.907   7.127  0.0544 -1.9401 -1.3018
14363TIP3   OH264579   2.577   2.585  28.008 -0.2200  0.3110  0.6154
14363TIP3    H164580   2.486   2.589  27.978 -0.4597 -2.5204  0.7611
14363TIP3    H264581   2.574   2.534  28.088  1.4748  0.5474  0.8684
14364TIP3   OH264582   1.848   3.458  39.181  0.0548  0.1701  0.0701
14364TIP3    H164583   1.925   3.495  39.138 -0.1652  1.4980  0.7604
14364TIP3    H264584   1.793   3.426  39.110  1.1670 -0.6416 -0.4388
14365TIP3   OH264585   0.128   1.762  36.410  0.4446  0.8880 -0.0804
14365TIP3    H164586   0.058   1.704  36.378  0.7312  1.2732 -1.4908
14365TIP3    H264587   0.106   1.848  36.373  0.6546  1.4311  1.0220
14366TIP3   OH264588   0.095   0.156   4.193 -0.0934 -0.2792  0.1373
14366TIP3    H164589   0.075   0.111   4.111  0.7193  0.3569 -0.4339
14366TIP3    H264590   0.182   0.124   4.217 -0.5772 -0.9271  1.0945
14367TIP3   OH264591   2.091   4.265  11.246 -0.4234  0.3105 -0.8589
14367TIP3    H164592   2.170   4.215  11.267 -1.2708 -0.1459  1.4921
14367TIP3    H264593   2.121   4.356  11.243  0.1100  0.2233  0.7798
14368TIP3   OH264594   1.808   2.983   3.832 -0.2855 -0.1261  0.4307
14368TIP3    H164595   1.898   3.017   3.835 -0.5390  0.5300  1.7938
14368TIP3    H264596   1.797   2.938   3.916 -1.3818  0.2177  0.4844
14369TIP3   OH264597   4.162   3.444  32.458  0.2844 -0.1528  0.2648
14369TIP3    H164598   4.182   3.351  32.447 -1.4171 -0.3491 -2.0061
14369TIP3    H264599   4.242   3.481  32.496  1.6534 -2.2464 -0.3482
14370TIP3   OH264600   0.744   1.700  27.715  0.1051 -0.4032  0.1502
14370TIP3    H164601   0.684   1.768  27.745  1.2507  0.4485  0.5945
14370TIP3    H264602   0.791   1.741  27.642  2.0079 -0.0576  1.5058
14371TIP3   OH264603   0.169   0.342  27.562  0.3223  0.3468 -0.0756
14371TIP3    H164604   0.230   0.409  27.594 -1.3425  2.1005 -0.3808
14371TIP3    H264605   0.149   0.290  27.640  0.8897  0.8167  0.4012
14372TIP3   OH264606   0.028   1.478   7.985  0.4996 -0.2468 -0.3110
14372TIP3    H164607  -0.024   1.404   7.952 -0.2497 -0.8406  1.9860
14372TIP3    H264608  -0.036   1.533   8.030  1.0416  1.8947 -1.9755
14373TIP3   OH264609   0.968   0.065   8.272  0.8026 -0.5520  0.2963
14373TIP3    H164610   0.884   0.036   8.309 -0.3341  1.0481 -0.8700
14373TIP3    H264611   1.020   0.090   8.349 -0.3141 -0.2544  0.9851
14374TIP3   OH264612   1.600   1.798   4.063  0.3976  0.2704  0.3904
14374TIP3    H164613   1.595   1.864   4.132  0.5924  2.1842 -1.3294
14374TIP3    H264614   1.623   1.848   3.984 -2.9562 -1.2847 -1.7807
14375TIP3   OH264615   1.399   1.479  34.559 -0.1860  0.8512  0.0267
14375TIP3    H164616   1.426   1.452  34.647  1.7768 -0.3481 -0.8832
14375TIP3    H264617   1.400   1.399  34.508 -1.9105  1.4242 -0.9950
14376TIP3   OH264618   2.620   2.659  40.889  0.1698  0.2633 -0.2594
14376TIP3    H164619   2.567   2.685  40.814  0.9002 -0.3890 -1.0219
14376TIP3    H264620   2.587   2.572  40.912  1.4012 -0.4840 -1.2344
14377TIP3   OH264621   3.781   1.263   9.366 -0.1681  0.5422  0.4480
14377TIP3    H164622   3.753   1.171   9.362  0.1284  0.4804 -1.2575
14377TIP3    H264623   3.876   1.259   9.353 -0.4948  1.1981 -3.1044
14378TIP3   OH264624   1.938   3.502   5.228 -0.1818 -0.5432 -0.9278
14378TIP3    H164625   1.917   3.571   5.165 -0.8223 -0.7289 -0.9208
14378TIP3    H264626   1.856   3.486   5.274  0.5859  0.6481  1.0052
14379TIP3   OH264627   1.644   4.122   5.766  0.5297 -0.2278  0.4439
14379TIP3    H164628   1.671   4.051   5.826 -1.0151 -1.7944 -0.6216
14379TIP3    H264629   1.550   4.131   5.781  0.3791  0.3048 -0.7642
14380TIP3   OH264630   1.384   1.735   6.210 -0.3663  0.7335  0.9487
14380TIP3    H164631   1.349   1.745   6.299 -0.4370  1.7120  0.8232
14380TIP3    H264632   1.430   1.651   6.212 -1.7658 -0.0543  1.4217
14381TIP3   OH264633   2.044   0.760  17.312 -0.4839  0.1100  0.5718
14381TIP3    H164634   1.992   0.838  17.297  2.6263  2.6583  1.7960
14381TIP3    H264635   1.983   0.697  17.349 -3.1326  1.9447 -0.3798
14382TIP3   OH264636   1.465   0.839  40.664  0.0384 -0.6370 -0.4241
14382TIP3    H164637   1.546   0.891  40.673  0.1384 -0.9614  0.7233
14382TIP3    H264638   1.419   0.879  40.590 -0.1959  1.5251  0.7982
14383TIP3   OH264639   0.806   2.294  10.753 -0.2458 -0.0035  0.3146
14383TIP3    H164640   0.822   2.235  10.679 -0.8244 -1.1246  1.0386
14383TIP3    H264641   0.830   2.381  10.721  0.0428 -0.5430 -0.9994
14384TIP3   OH264642   0.982   1.679   0.706 -0.3415  0.1187 -0.2962
14384TIP3    H164643   1.006   1.663   0.798  0.3617  1.7583 -0.1656
14384TIP3    H264644   0.905   1.623   0.692 -0.3693 -0.2869  1.2354
14385TIP3   OH264645   1.457   2.379  36.654  0.1037  0.1380  0.5696
14385TIP3    H164646   1.381   2.321  36.644  0.5361 -0.5358  1.0984
14385TIP3    H264647   1.494   2.383  36.566 -1.2863  1.5657 -0.0101
14386TIP3   OH264648   3.647   0.199   1.411  0.4539  0.1042 -0.5520
14386TIP3    H164649   3.553   0.217   1.417  0.3438 -0.6813  4.2400
14386TIP3    H264650   3.684   0.278   1.371 -1.9812  1.7763  0.2663
14387TIP3   OH264651   3.626   1.654  39.569  0.3433  0.2149 -1.1109
14387TIP3    H164652   3.590   1.727  39.520 -2.0513  0.5212  0.8906
14387TIP3    H264653   3.553   1.623  39.623  1.3568 -3.4079 -1.5344
14388TIP3   OH264654   1.355   0.299   4.483  0.1699  0.1511  0.0449
14388TIP3    H164655   1.323   0.245   4.410  2.5986 -0.8578 -0.3832
14388TIP3    H264656   1.359   0.388   4.447  0.8569 -0.2530 -0.9469
14389TIP3   OH264657   0.620   0.644   7.947  0.2584  0.2052 -0.3537
14389TIP3    H164658   0.672   0.590   8.007 -0.1985  2.0322  1.8358
14389TIP3    H264659   0.555   0.583   7.911 -0.3901 -0.7581  2.1874
14390TIP3   OH264660   1.376   3.584  35.210  0.2745  0.3309 -0.3001
14390TIP3    H164661   1.294   3.592  35.258 -2.1866 -1.8533 -3.6751
14390TIP3    H264662   1.393   3.672  35.176 -2.6227  0.2849 -2.1829
14391TIP3   OH264663   4.093   0.442  11.046 -0.2496  0.0124  0.2771
14391TIP3    H164664   4.083   0.390  11.126 -0.4562  0.9247  0.8699
14391TIP3    H264665   4.187   0.444  11.030 -0.0515  1.1129  1.4134
14392TIP3   OH264666   0.054   2.594   8.590 -0.3978  0.6100 -0.0903
14392TIP3    H164667   0.126   2.540   8.557 -0.1794  1.4314 -1.0070
14392TIP3    H264668  -0.017   2.582   8.527 -1.8454 -1.7107  1.7934
14393TIP3   OH264669   1.157   1.645   7.774  0.1447  0.2460 -0.4036
14393TIP3    H164670   1.250   1.657   7.756  0.2967 -1.0704 -0.5618
14393TIP3    H264671   1.147   1.552   7.791 -1.3587  0.1332 -1.6602
14394TIP3   OH264672   0.426   3.704  38.827  0.0899 -0.6907  0.3582
14394TIP3    H164673   0.502   3.757  38.851 -1.1235  0.1922  2.5278
14394TIP3    H264674   0.417   3.641  38.899 -1.1065 -0.9323  0.0219
14395TIP3   OH264675   0.219   1.107   1.215  0.4188 -0.2607 -0.2026
14395TIP3    H164676   0.226   1.069   1.127 -0.6580  0.1740 -0.4877
14395TIP3    H264677   0.233   1.034   1.274  1.2698 -0.5376 -0.7340
14396TIP3   OH264678   2.882   3.969  12.132 -0.2050 -0.3405 -0.2692
14396TIP3    H164679   2.901   4.014  12.050 -2.3702 -0.2933 -0.7974
14396TIP3    H264680   2.825   4.029  12.180  0.4944 -0.6475  0.9848
14397TIP3   OH264681   0.884   0.291  27.620  0.5611 -0.0525 -0.7293
14397TIP3    H164682   0.870   0.284  27.526 -1.0835 -0.5711 -0.4822
14397TIP3    H264683   0.933   0.212  27.643 -1.4135 -1.3505 -0.7765
14398TIP3   OH264684   0.651   1.836   7.487  0.0164  0.1607 -0.0137
14398TIP3    H164685   0.653   1.913   7.430  0.7196 -0.0873 -0.3421
14398TIP3    H264686   0.558   1.823   7.507 -0.4138 -0.5414 -2.2064
14399TIP3   OH264687   0.654   3.776   6.733 -0.0178 -0.2043  0.5667
14399TIP3    H164688   0.664   3.770   6.638 -1.0333  0.1227  0.4224
14399TIP3    H264689   0.727   3.829   6.763 -0.3542  0.6949 -0.1833
14400TIP3   OH264690   3.464   0.749  37.303 -0.0820  0.6906  0.5972
14400TIP3    H164691   3.443   0.697  37.380  1.7381 -1.4062 -0.1830
14400TIP3    H264692   3.448   0.690  37.229  0.6506  1.7382 -0.4472
14401TIP3   OH264693   1.830   3.854   3.577 -0.3993  0.1972  0.4210
14401TIP3    H164694   1.910   3.891   3.614 -0.7310  0.4197  0.9211
14401TIP3    H264695   1.770   3.928   3.569 -1.0589 -0.2169  1.4081
14402TIP3   OH264696   4.342   0.650  31.831  0.0580 -0.3639 -0.0503
14402TIP3    H164697   4.326   0.556  31.841 -0.7956 -0.1060  1.4659
14402TIP3    H264698   4.437   0.659  31.832  0.1745 -1.0265  2.5271
14403TIP3   OH264699   0.069   0.520  25.831  0.6566  0.4756 -0.3756
14403TIP3    H164700   0.099   0.523  25.740 -0.2988 -0.1629 -0.7329
14403TIP3    H264701  -0.011   0.467  25.827 -0.1386  1.5659  0.6271
14404TIP3   OH264702   2.714   2.191  35.003  0.4795  0.8158  0.2444
14404TIP3    H164703   2.644   2.127  34.997  1.0693  0.0445  1.2451
14404TIP3    H264704   2.782   2.158  34.943  0.6520  0.6762  0.5148
14405TIP3   OH264705   4.188   2.085  10.939  0.0307  0.7765  0.2115
14405TIP3    H164706   4.255   2.045  10.884 -1.1372 -0.8741 -0.0862
14405TIP3    H264707   4.229   2.094  11.025 -0.0003 -2.3032  0.6452
14406TIP3   OH264708   1.579   3.827  14.361  0.3023 -0.4033  0.0025
14406TIP3    H164709   1.610   3.913  14.334  1.2187 -0.5767  0.4421
14406TIP3    H264710   1.495   3.816  14.316 -0.0591  0.9054  0.3249
14407TIP3   OH264711   4.109   0.481  24.552 -0.4785  0.0482  0.1091
14407TIP3    H164712   4.064   0.397  24.548  1.1666 -0.8608 -0.3592
14407TIP3    H264713   4.124   0.505  24.461  1.5766 -0.6158  0.2270
14408TIP3   OH264714   3.550   0.338  13.442  0.4857 -0.1728 -0.1422
14408TIP3    H164715   3.516   0.383  13.364  0.8537  0.4340  0.0376
14408TIP3    H264716   3.645   0.351  13.436  0.5161 -0.1634  0.3822
14409TIP3   OH264717   1.935   3.477   6.549  0.3697 -0.3290 -0.9007
14409TIP3    H164718   1.940   3.390   6.589 -0.9684 -0.6843 -1.4397
14409TIP3    H264719   1.844   3.505   6.564  0.2741  0.1873 -2.3061
14410TIP3   OH264720   2.152   0.328  10.609 -0.5636  0.2096 -0.4141
14410TIP3    H164721   2.125   0.301  10.521  0.1991  1.0593 -0.9203
14410TIP3    H264722   2.071   0.362  10.648 -0.7683  0.4722 -1.0409
14411TIP3   OH264723   2.466   2.765  17.766  0.3852 -0.0736 -0.1272
14411TIP3    H164724   2.507   2.805  17.688 -0.4454  2.7039  0.7671
14411TIP3    H264725   2.541   2.736  17.819  1.1045  1.5019 -0.2291
14412TIP3   OH264726   1.507   0.742  27.751 -0.4186 -0.4458 -0.6103
14412TIP3    H164727   1.479   0.806  27.817 -0.2755  0.1670 -1.1410
14412TIP3    H264728   1.456   0.763  27.673 -0.6616 -1.2374 -0.6819
14413TIP3   OH264729   3.940   0.857  34.153 -0.1342 -0.2430 -0.4166
14413TIP3    H164730   3.995   0.780  34.140 -0.3879 -0.6160  0.6320
14413TIP3    H264731   3.871   0.849  34.087  1.0986  0.2827 -1.8072
14414TIP3   OH264732   3.540   2.080  25.389  0.3890 -0.3243  0.0044
14414TIP3    H164733   3.508   2.170  25.389  3.3094  0.8426 -1.2333
14414TIP3    H264734   3.547   2.057  25.482 -1.5722  0.1740  0.3318
14415TIP3   OH264735   3.373   4.296  38.592 -0.4753 -0.2774 -0.1473
14415TIP3    H164736   3.358   4.257  38.677  0.9257 -1.9471 -0.6189
14415TIP3    H264737   3.287   4.295  38.549 -1.3753  1.3518  1.4890
14416TIP3   OH264738   0.546   3.700   3.406  0.2945 -0.2350 -0.1034
14416TIP3    H164739   0.557   3.609   3.433  2.1919 -0.0169  0.0659
14416TIP3    H264740   0.536   3.697   3.311  0.0205 -0.6354 -0.0625
14417TIP3   OH264741   2.388   2.605  36.635  0.0215  0.1605  0.2485
14417TIP3    H164742   2.441   2.590  36.556 -1.5375 -0.4554 -0.7212
14417TIP3    H264743   2.408   2.530  36.692  0.2466 -0.0339 -0.0841
14418TIP3   OH264744   0.745   1.860  21.801  0.0781 -0.4103  0.7982
14418TIP3    H164745   0.708   1.864  21.713  0.4885  0.7204  0.6618
14418TIP3    H264746   0.693   1.922  21.852  0.2008 -0.6495  1.2205
14419TIP3   OH264747   1.124   2.775  39.755  0.1116 -0.2389  0.2275
14419TIP3    H164748   1.156   2.795  39.842  0.0106 -0.3475  0.2907
14419TIP3    H264749   1.131   2.858  39.707  0.8249 -0.3553  0.1306
14420TIP3   OH264750   0.201   3.047   0.162 -0.1223  0.2308  0.5840
14420TIP3    H164751   0.150   3.103   0.104 -1.1728  1.2607  2.4051
14420TIP3    H264752   0.217   2.968   0.111 -2.9416  0.1449 -0.3473
14421TIP3   OH264753   3.798   1.161  12.122 -0.2563  0.4053 -0.3680
14421TIP3    H164754   3.721   1.130  12.169 -0.5925  1.8437  0.0713
14421TIP3    H264755   3.770   1.165  12.030  0.0332 -1.2635 -0.5599
14422TIP3   OH264756   0.795   0.960  26.951  0.6830  0.1913 -0.3905
14422TIP3    H164757   0.829   1.042  26.986 -1.0356  0.5046  0.6552
14422TIP3    H264758   0.789   0.902  27.026 -0.6778  0.0282 -0.5994
14423TIP3   OH264759   2.225   2.775  13.371 -0.2859 -0.0064  0.9180
14423TIP3    H164760   2.245   2.682  13.379 -0.0148 -0.1257 -0.6784
14423TIP3    H264761   2.141   2.778  13.325 -0.6715  0.5452  1.6314
14424TIP3   OH264762   1.902   3.272  37.855 -0.1907 -0.3403  0.2789
14424TIP3    H164763   1.967   3.249  37.921  0.7717 -1.0438 -0.8832
14424TIP3    H264764   1.841   3.330  37.902  0.8446 -0.2439  1.5874
14425TIP3   OH264765   2.358   4.148  12.488 -0.3459  0.7585 -0.1971
14425TIP3    H164766   2.341   4.182  12.576  0.2432  1.5752 -0.3892
14425TIP3    H264767   2.454   4.148  12.480 -0.3902  0.5569 -0.7831
14426TIP3   OH264768   4.338   3.189  13.182 -0.1578  0.1618 -0.4993
14426TIP3    H164769   4.255   3.171  13.137 -0.5226 -0.3591  0.3458
14426TIP3    H264770   4.322   3.273  13.227  0.1371  0.5801 -1.1604
14427TIP3   OH264771   1.808   4.208  40.392 -0.3297 -0.5097  0.2055
14427TIP3    H164772   1.900   4.182  40.400 -0.1586  0.3379  1.1011
14427TIP3    H264773   1.803   4.252  40.307  0.2233 -0.0625  0.3964
14428TIP3   OH264774   1.880   1.953  29.346  0.0611  0.8363 -0.0379
14428TIP3    H164775   1.814   2.021  29.331  0.4597  0.8819 -1.8507
14428TIP3    H264776   1.932   1.952  29.265  1.5217 -0.0378  0.8649
14429TIP3   OH264777   2.964   0.044   9.767 -0.5412  0.0229 -0.2005
14429TIP3    H164778   3.052   0.030   9.803 -0.2300 -1.6569 -1.4988
14429TIP3    H264779   2.905   0.013   9.835 -0.0522 -0.6382 -0.0707
14430TIP3   OH264780   3.539   2.012   9.084 -0.5633 -0.0211 -0.4100
14430TIP3    H164781   3.549   2.086   9.024  1.6072 -0.5131 -0.7442
14430TIP3    H264782   3.613   2.019   9.143 -1.1291 -1.1316  0.4749
14431TIP3   OH264783   2.784   0.931  33.728  0.8683 -0.0649  0.1865
14431TIP3    H164784   2.872   0.965  33.742  0.7903  0.4875 -0.5808
14431TIP3    H264785   2.767   0.946  33.635 -0.0774 -0.0536  0.3467
14432TIP3   OH264786   0.347   2.713  34.099  0.0757 -0.0378  0.3698
14432TIP3    H164787   0.436   2.744  34.116  0.7964 -0.3612 -2.3280
14432TIP3    H264788   0.337   2.636  34.155  1.9593 -0.6974 -0.1290
14433TIP3   OH264789   1.196   0.810  15.245 -0.0505  0.1839 -0.5042
14433TIP3    H164790   1.279   0.812  15.291 -0.1896  1.7296 -0.2701
14433TIP3    H264791   1.192   0.722  15.207  0.9047 -0.4887  0.8596
14434TIP3   OH264792   1.435   3.401  30.904 -0.3376 -0.0699  0.0533
14434TIP3    H164793   1.459   3.455  30.979 -1.3098  0.3842  0.0516
14434TIP3    H264794   1.401   3.321  30.942 -0.8239  0.1577  0.1002
14435TIP3   OH264795   2.111   3.418  11.566 -0.2407  0.1568 -0.6855
14435TIP3    H164796   2.138   3.496  11.615  1.2464  0.1266 -1.3892
14435TIP3    H264797   2.016   3.424  11.561 -0.5318  0.0362  2.4071
14436TIP3   OH264798   1.157   1.917   2.079 -0.3054  0.4293 -0.0960
14436TIP3    H164799   1.231   1.908   2.020 -0.7666  0.6716 -0.7134
14436TIP3    H264800   1.185   1.981   2.144  0.3794 -0.1922  0.2339
14437TIP3   OH264801   1.754   3.210  39.987  0.1648  0.5429 -0.6791
14437TIP3    H164802   1.789   3.124  40.008 -2.6269 -0.0812  2.1594
14437TIP3    H264803   1.725   3.202  39.896  0.0556 -1.5280 -0.5112
14438TIP3   OH264804   1.368   4.309  16.587  0.0591  0.2788 -0.8075
14438TIP3    H164805   1.327   4.336  16.669 -0.5262 -1.6415 -0.4218
14438TIP3    H264806   1.430   4.241  16.612  0.6794  0.4428 -1.8475
14439TIP3   OH264807   1.453   3.244   5.166  0.5364 -0.7352  0.7761
14439TIP3    H164808   1.500   3.229   5.083  1.5180 -1.3294  1.4218
14439TIP3    H264809   1.382   3.180   5.165 -0.1451 -0.0022 -0.0915
14440TIP3   OH264810   1.507   1.005  32.344  0.1900  0.5981 -0.0034
14440TIP3    H164811   1.576   0.999  32.411  1.7586  0.7996 -1.5221
14440TIP3    H264812   1.426   1.010  32.394  1.2827  0.7059  1.8831
14441TIP3   OH264813   0.617   3.248   6.227 -0.4430 -0.1114  0.0254
14441TIP3    H164814   0.681   3.200   6.280 -0.4174 -0.2409 -0.1208
14441TIP3    H264815   0.670   3.306   6.173 -0.3601 -1.0147 -0.9060
14442TIP3   OH264816   1.312   1.234   3.624 -0.2371  0.7825  0.4619
14442TIP3    H164817   1.281   1.174   3.557  0.2914  0.6224  0.3548
14442TIP3    H264818   1.283   1.195   3.707 -0.4707  0.7294  0.3558
14443TIP3   OH264819   3.458   2.525   7.887  0.1317  0.1084 -0.2786
14443TIP3    H164820   3.493   2.495   7.971  1.0328  2.2394  0.1863
14443TIP3    H264821   3.533   2.566   7.843 -1.2552  3.2051 -0.0459
14444TIP3   OH264822   0.991   0.281  17.659 -0.2376  0.5285  0.7965
14444TIP3    H164823   1.056   0.220  17.623 -0.2970 -0.0073  1.5730
14444TIP3    H264824   1.002   0.361  17.608 -0.1724 -0.1351 -0.2619
14445TIP3   OH264825   3.787   1.820   7.757  0.5608  0.0637 -0.4451
14445TIP3    H164826   3.753   1.864   7.835 -0.0828 -1.4243  0.1459
14445TIP3    H264827   3.789   1.888   7.690 -1.3537  0.7764  0.1644
14446TIP3   OH264828   1.290   0.547  29.277 -0.4638  0.3850  0.0870
14446TIP3    H164829   1.300   0.594  29.194 -0.2325  0.9436  0.4233
14446TIP3    H264830   1.316   0.611  29.344 -0.5223 -0.1007  0.5795
14447TIP3   OH264831   1.195   2.694   7.650 -0.1721  0.4275 -0.6170
14447TIP3    H164832   1.275   2.655   7.685 -1.0581  0.2484  1.3624
14447TIP3    H264833   1.219   2.784   7.630  1.0968 -0.2363 -2.2593
14448TIP3   OH264834   2.746   2.652  40.224  0.3780  0.1874 -0.2105
14448TIP3    H164835   2.658   2.618  40.237  0.7173 -0.5565  0.2149
14448TIP3    H264836   2.777   2.672  40.313  0.3325  1.2456 -0.4175
14449TIP3   OH264837   2.501   0.766   3.087 -0.1265  0.8928 -0.4645
14449TIP3    H164838   2.481   0.800   3.174 -1.9197 -0.1776 -0.4022
14449TIP3    H264839   2.587   0.725   3.096 -0.5563  0.2616  0.9943
14450TIP3   OH264840   0.470   0.865  12.175  0.1751 -0.9228  0.2343
14450TIP3    H164841   0.519   0.815  12.109  2.4906  0.3118  0.8884
14450TIP3    H264842   0.505   0.835  12.259  1.7103  1.6901  0.6490
14451TIP3   OH264843   1.185   2.627   0.989 -0.2310 -0.5683  0.6543
14451TIP3    H164844   1.101   2.583   0.974  0.3406 -1.3401 -0.5332
14451TIP3    H264845   1.184   2.701   0.929  0.2319 -1.0321  0.0555
14452TIP3   OH264846   2.523   2.850   0.515  0.0276 -0.0315 -0.0676
14452TIP3    H164847   2.430   2.834   0.497  0.2208 -0.1108 -1.0422
14452TIP3    H264848   2.527   2.859   0.610 -0.9838  0.0059 -0.0112
14453TIP3   OH264849   3.659   0.282  38.326  0.3671  0.0455 -0.5907
14453TIP3    H164850   3.653   0.234  38.408 -3.5237 -0.6307 -1.1153
14453TIP3    H264851   3.735   0.243  38.282  1.7221 -0.5075  2.0021
14454TIP3   OH264852   1.299   1.796  22.302 -0.0572  0.0025  0.4055
14454TIP3    H164853   1.247   1.720  22.328  2.0034 -2.0512 -1.0181
14454TIP3    H264854   1.302   1.792  22.207  1.1132  1.1283  0.3609
14455TIP3   OH264855   1.723   2.594  28.581  0.2466  0.2413  0.0953
14455TIP3    H164856   1.631   2.593  28.609  0.0186  0.7159 -0.6002
14455TIP3    H264857   1.750   2.685  28.593  2.2323 -0.6614  5.1685
14456TIP3   OH264858   4.368   1.820  30.799 -0.1798  0.0652  0.2319
14456TIP3    H164859   4.456   1.852  30.781 -0.7047  1.2081 -0.3972
14456TIP3    H264860   4.318   1.843  30.721 -0.3268 -3.4758 -0.9081
14457TIP3   OH264861   4.119   1.053   8.062  0.0243 -0.5753  0.5235
14457TIP3    H164862   4.103   1.063   8.156  0.2801  0.6123  0.4656
14457TIP3    H264863   4.163   1.134   8.037  2.2098 -1.8901 -0.1553
14458TIP3   OH264864   2.259   3.623   3.843 -0.1102 -0.2670 -0.2579
14458TIP3    H164865   2.341   3.600   3.887  0.8717  1.5858 -1.0035
14458TIP3    H264866   2.227   3.699   3.891 -1.0804 -0.5898 -0.3747
14459TIP3   OH264867   2.025   3.235  16.544  0.0276  0.0081 -0.2376
14459TIP3    H164868   2.030   3.141  16.564 -0.1428  0.1113  0.3016
14459TIP3    H264869   1.932   3.251  16.529 -0.1856  0.4113  1.3237
14460TIP3   OH264870   3.637   1.811  35.658  0.3316 -0.0052 -0.0613
14460TIP3    H164871   3.555   1.835  35.615  0.5481 -0.7567 -0.9038
14460TIP3    H264872   3.613   1.797  35.750 -1.0652 -2.8756 -0.7487
14461TIP3   OH264873   1.929   2.877  30.723 -0.2841  0.0256  0.2164
14461TIP3    H164874   2.020   2.850  30.708 -0.2603 -0.6047  1.3957
14461TIP3    H264875   1.935   2.970  30.743  0.1200 -0.0461  0.4450
14462TIP3   OH264876   1.839   0.893  38.298  0.3058  0.4118 -0.3351
14462TIP3    H164877   1.851   0.987  38.293 -3.2778  1.0622  0.6118
14462TIP3    H264878   1.812   0.876  38.388 -0.4938 -1.2848 -0.8409
14463TIP3   OH264879   2.220   3.471  35.317 -0.1385  0.3332 -0.4433
14463TIP3    H164880   2.127   3.474  35.292 -0.0483  0.2001 -0.8085
14463TIP3    H264881   2.264   3.439  35.238  0.2151  0.3604 -0.2552
14464TIP3   OH264882   2.724   1.694   4.591 -0.1189 -0.0007  0.4622
14464TIP3    H164883   2.653   1.737   4.544  1.2869  0.8693 -0.9748
14464TIP3    H264884   2.771   1.765   4.635  1.0042 -0.2810 -0.2339
14465TIP3   OH264885   3.368   3.994   8.062  0.3103  0.2886  0.4146
14465TIP3    H164886   3.448   3.970   8.014  0.5750 -0.1735  1.0679
14465TIP3    H264887   3.328   4.062   8.009  0.7896  0.0453 -0.2726
14466TIP3   OH264888   3.984   0.595  28.498 -0.3457  0.3719  0.2023
14466TIP3    H164889   3.911   0.656  28.499 -1.3853 -0.8211  1.0455
14466TIP3    H264890   3.978   0.552  28.412  0.3731  1.3957 -0.3808
14467TIP3   OH264891   3.942   2.145   4.804 -0.5279  0.8391 -0.1788
14467TIP3    H164892   3.943   2.215   4.738 -3.0071  0.8982 -0.2669
14467TIP3    H264893   3.860   2.158   4.851  0.6041  0.0492  2.1717
14468TIP3   OH264894   2.900   4.243  30.378  0.2765  0.0401  0.1114
14468TIP3    H164895   2.865   4.330  30.364 -0.7715 -0.2358  0.9150
14468TIP3    H264896   2.917   4.209  30.290 -2.5778 -0.2503 -0.4050
14469TIP3   OH264897   2.066   0.378  36.234 -0.0616  0.4509 -0.4900
14469TIP3    H164898   2.088   0.419  36.150  0.2045 -0.1027 -0.6938
14469TIP3    H264899   1.994   0.319  36.215  1.0990 -0.9449 -0.6821
14470TIP3   OH264900   4.003   2.002   2.403 -0.2413  0.0080 -0.0930
14470TIP3    H164901   4.032   1.967   2.488 -0.8315 -2.3150 -0.7558
14470TIP3    H264902   3.913   1.969   2.394 -0.0110 -0.2229 -1.8256
14471TIP3   OH264903   4.057   0.218  35.326  0.8615 -0.3470  0.1189
14471TIP3    H164904   4.083   0.152  35.262  1.9450 -1.0125  1.1909
14471TIP3    H264905   4.015   0.168  35.396 -2.7114  0.6096 -1.1307
14472TIP3   OH264906   1.271   0.285  10.511  0.5111  0.2534 -0.4106
14472TIP3    H164907   1.185   0.290  10.468  0.9576  1.7225 -1.2149
14472TIP3    H264908   1.267   0.205  10.563 -1.0436 -0.1526 -1.0833
14473TIP3   OH264909   0.357   3.719  13.821  0.0512 -0.2468  0.5291
14473TIP3    H164910   0.356   3.734  13.916 -1.0739  0.6784  0.3951
14473TIP3    H264911   0.277   3.762  13.789  0.3030 -0.7297 -0.8131
14474TIP3   OH264912   0.910   1.959  31.644 -0.4035 -0.0269  0.1034
14474TIP3    H164913   0.863   1.993  31.568 -0.1395 -1.1528 -0.5992
14474TIP3    H264914   0.910   2.031  31.707 -0.6941  0.9153 -0.9346
14475TIP3   OH264915   2.264   0.895   9.543 -0.0342 -0.5075  0.4572
14475TIP3    H164916   2.214   0.828   9.590 -0.4825 -1.1850 -0.9470
14475TIP3    H264917   2.231   0.978   9.578 -2.3993 -0.9156 -0.5947
14476TIP3   OH264918   2.821   2.060   5.450 -0.0095 -0.7604 -0.4426
14476TIP3    H164919   2.868   1.998   5.394 -0.8434 -2.6136  0.7842
14476TIP3    H264920   2.764   2.005   5.504  0.7864  0.8734  2.2830
14477TIP3   OH264921   0.008   4.395  10.153 -0.3040  0.2636 -0.0316
14477TIP3    H164922  -0.059   4.444  10.106 -0.3683 -0.4731 -0.7356
14477TIP3    H264923   0.006   4.430  10.242 -3.2341 -1.2643  0.6213
14478TIP3   OH264924   1.684   4.072   2.867  0.4815  0.0720 -0.1060
14478TIP3    H164925   1.598   4.085   2.826 -0.8469 -0.7170  2.2072
14478TIP3    H264926   1.668   4.088   2.960  2.6544 -0.9787  0.5059
14479TIP3   OH264927   0.837   2.345  11.468 -0.0826  0.4293  0.5094
14479TIP3    H164928   0.860   2.404  11.539 -2.0057  1.2038  0.5639
14479TIP3    H264929   0.910   2.284  11.462  0.1557  0.3743  3.0983
14480TIP3   OH264930   2.109   3.823  28.568  0.5378 -0.0289  0.0671
14480TIP3    H164931   2.093   3.810  28.474 -0.6675  0.1581  0.2280
14480TIP3    H264932   2.061   3.903  28.590 -0.0162 -0.6101  1.0369
14481TIP3   OH264933   1.062   0.994  28.656  0.3936  0.6185 -0.2591
14481TIP3    H164934   1.100   1.011  28.742  4.2067 -3.9303 -0.5908
14481TIP3    H264935   1.113   1.049  28.596  1.0427  0.3713  0.0518
14482TIP3   OH264936   1.638   0.515  15.402 -0.4060  0.2076  0.0802
14482TIP3    H164937   1.576   0.450  15.370 -1.1096  0.2933  1.2058
14482TIP3    H264938   1.677   0.475  15.480  0.5937  0.3604 -0.3267
14483TIP3   OH264939   2.287   0.430  28.121  0.3350  0.2441 -0.1079
14483TIP3    H164940   2.226   0.486  28.073 -0.5128 -1.1024 -0.6541
14483TIP3    H264941   2.289   0.468  28.209  0.6076  1.7451 -0.7257
14484TIP3   OH264942   2.016   1.101   2.688  0.2147 -0.2056 -0.1661
14484TIP3    H164943   2.063   1.055   2.619 -1.5878  1.0851 -2.4162
14484TIP3    H264944   2.023   1.044   2.764  0.0590 -3.1021 -2.1410
14485TIP3   OH264945   2.437   0.754  37.906  0.4764 -0.5366 -0.1770
14485TIP3    H164946   2.528   0.747  37.935  0.7013 -0.6674 -0.8786
14485TIP3    H264947   2.385   0.743  37.986  1.0876  0.4058  0.3596
14486TIP3   OH264948   4.084   2.692  27.000 -0.0543  0.3804  0.6464
14486TIP3    H164949   4.045   2.716  26.915  1.8946 -0.8645 -0.6909
14486TIP3    H264950   4.158   2.751  27.009  0.3741 -0.1965  0.9565
14487TIP3   OH264951   2.201   1.333  38.015 -0.2854  0.1023  0.1620
14487TIP3    H164952   2.121   1.366  38.055 -0.6928 -0.9606  0.2418
14487TIP3    H264953   2.220   1.396  37.945 -0.6826  0.8484  0.7044
14488TIP3   OH264954   3.069   4.082   7.401 -0.4256 -0.3160 -0.3883
14488TIP3    H164955   3.114   4.118   7.325 -0.1907  0.1966 -0.0124
14488TIP3    H264956   3.007   4.019   7.364 -1.4106  1.0393 -1.1369
14489TIP3   OH264957   3.988   2.484  22.208 -0.1425 -0.7602 -0.1117
14489TIP3    H164958   4.029   2.411  22.162 -0.5973  0.3215 -2.3533
14489TIP3    H264959   3.896   2.480  22.182 -0.4017 -0.0374  0.6391
14490TIP3   OH264960   3.679   4.370  24.397 -0.0694 -0.2739  0.0535
14490TIP3    H164961   3.695   4.464  24.405 -0.3888  0.2082 -3.3052
14490TIP3    H264962   3.766   4.333  24.379 -0.2047 -0.2719 -0.6510
14491TIP3   OH264963   1.757   2.700  40.368 -0.3880 -0.2843  0.7793
14491TIP3    H164964   1.804   2.775  40.403  0.0607 -0.2693  0.1613
14491TIP3    H264965   1.665   2.728  40.366 -0.3246 -0.0312  1.2535
14492TIP3   OH264966   0.809   0.054  10.249  0.5897  0.0362  0.5373
14492TIP3    H164967   0.725   0.064  10.205  0.6144 -0.2446  0.4222
14492TIP3    H264968   0.837  -0.036  10.228  0.3888 -0.2647  1.5019
14493TIP3   OH264969   1.630   3.954  27.696  0.3447 -0.5635  0.3455
14493TIP3    H164970   1.593   4.006  27.625  0.9061 -1.1327 -0.3906
14493TIP3    H264971   1.620   3.863  27.667 -0.3533 -0.8645  1.4702
14494TIP3   OH264972   2.415   3.505  31.308  0.5244  0.2244 -0.0220
14494TIP3    H164973   2.485   3.512  31.244 -0.2538  1.3644 -0.7866
14494TIP3    H264974   2.453   3.542  31.388  1.6080 -1.5129  0.3205
14495TIP3   OH264975   1.485   2.428  17.488 -0.1405  0.6137  0.0510
14495TIP3    H164976   1.391   2.413  17.491 -0.2851  1.4159 -0.2818
14495TIP3    H264977   1.519   2.381  17.565 -0.6321 -0.7590 -0.5349
14496TIP3   OH264978   2.017   0.869   2.912  0.0362  0.5571  0.0234
14496TIP3    H164979   1.942   0.812   2.929  1.5811 -1.3489  0.9740
14496TIP3    H264980   2.091   0.808   2.904  1.5100  2.3574 -0.7004
14497TIP3   OH264981   0.135   4.070   0.057 -0.0454 -0.4987 -0.4826
14497TIP3    H164982   0.043   4.096   0.061 -0.1640 -0.8530 -0.8278
14497TIP3    H264983   0.181   4.147   0.023 -0.4397 -0.8216 -1.8304
14498TIP3   OH264984   1.179   2.741  40.296 -0.1938  0.2854 -0.3475
14498TIP3    H164985   1.153   2.665  40.349 -1.2037 -0.1375 -1.3921
14498TIP3    H264986   1.160   2.817  40.352  0.0524 -0.2006  0.4029
14499TIP3   OH264987   1.936   1.237  31.529  0.4308  0.0589 -0.5370
14499TIP3    H164988   2.010   1.184  31.560  1.6772 -0.0826 -3.4916
14499TIP3    H264989   1.976   1.304  31.474 -1.4899  1.5304 -0.2512
14500TIP3   OH264990   1.847   0.645   0.048  0.3028  0.3560  0.5718
14500TIP3    H164991   1.906   0.571   0.061 -0.1292 -0.3939 -1.3805
14500TIP3    H264992   1.759   0.609   0.058  0.1173  0.9587  1.1759
14501TIP3   OH264993   0.585   2.118  13.978 -0.5216  0.0802  0.3282
14501TIP3    H164994   0.536   2.044  14.013  1.7953 -1.3960  0.6379
14501TIP3    H264995   0.653   2.136  14.043  0.0596  1.3368 -0.5692
14502TIP3   OH264996   3.237   2.419   8.227  0.8322  0.6378  0.0018
14502TIP3    H164997   3.258   2.505   8.191  0.5383  0.5395 -0.4197
14502TIP3    H264998   3.320   2.372   8.225  0.5518  0.1164 -2.0335
14503TIP3   OH264999   0.845   3.158  28.944 -0.9462  0.2863 -0.2270
14503TIP3    H165000   0.774   3.096  28.925 -0.3899 -1.1172  1.8936
14503TIP3    H265001   0.845   3.164  29.040  1.9723 -0.0012 -0.1420
14504TIP3   OH265002   1.976   1.170  10.872  0.1628  0.6460 -0.1512
14504TIP3    H165003   2.063   1.159  10.910  1.0177  2.0434 -1.5407
14504TIP3    H265004   1.945   1.254  10.905 -1.6707 -0.7735  2.0441
14505TIP3   OH265005   2.377   1.647   7.854  0.2299 -0.1365  0.2573
14505TIP3    H165006   2.388   1.712   7.785 -0.8321 -0.6469 -0.4248
14505TIP3    H265007   2.330   1.575   7.812  0.0849 -0.7139  1.3611
14506TIP3   OH265008   1.766   1.665  10.673 -0.0196  0.3762  0.4067
14506TIP3    H165009   1.718   1.581  10.665 -1.6715  0.9971  2.7468
14506TIP3    H265010   1.848   1.649  10.627 -1.3161 -1.6815 -1.4702
14507TIP3   OH265011   2.160   2.621  33.964  0.1258 -0.4742  0.1737
14507TIP3    H165012   2.065   2.631  33.960  0.0724 -1.1386 -0.4367
14507TIP3    H265013   2.190   2.698  34.012 -0.6575  0.1292 -0.2697
14508TIP3   OH265014   2.169   2.862  37.813 -0.0151 -0.3279 -0.3757
14508TIP3    H165015   2.077   2.839  37.804  0.4338 -1.5589 -2.7914
14508TIP3    H265016   2.207   2.788  37.861 -0.4226  0.7576  1.7424
14509TIP3   OH265017   4.374   3.759  40.847 -0.3457 -0.1448  0.2354
14509TIP3    H165018   4.361   3.849  40.877  0.1022 -0.0198  0.0525
14509TIP3    H265019   4.295   3.739  40.797 -0.4684  0.1286  0.3200
14510TIP3   OH265020   1.652   0.226   9.345  0.3631  0.9034  0.1125
14510TIP3    H165021   1.739   0.206   9.308 -0.2699  1.0205 -1.5457
14510TIP3    H265022   1.660   0.314   9.381  1.1320  0.6212  0.6493
14511TIP3   OH265023   0.759   3.070  28.012  0.2004  0.0861  0.5819
14511TIP3    H165024   0.717   3.131  28.073  0.3054  2.0937 -1.2279
14511TIP3    H265025   0.818   3.125  27.960  1.0926 -1.7681 -0.4766
14512TIP3   OH265026   2.093   0.628  34.795  0.7945  0.9391  0.1004
14512TIP3    H165027   2.074   0.673  34.713 -1.2429  0.3352  0.1889
14512TIP3    H265028   2.105   0.536  34.769 -1.2031  0.5072  0.5890
14513TIP3   OH265029   1.439   1.793  15.919  0.7426 -0.2336 -0.0971
14513TIP3    H165030   1.364   1.753  15.876  0.4137 -0.0051  0.2495
14513TIP3    H265031   1.483   1.721  15.964 -1.4322  0.0944  2.8872
14514TIP3   OH265032   4.114   3.979  28.727  0.4323  0.0791 -0.0421
14514TIP3    H165033   4.046   4.042  28.750 -0.2825  1.2127 -4.2830
14514TIP3    H265034   4.068   3.908  28.683  1.6735 -0.9750  0.3033
14515TIP3   OH265035   2.967   3.110  31.424  0.5097 -0.0264 -0.1262
14515TIP3    H165036   2.888   3.059  31.442 -0.2700  0.5092 -1.7928
14515TIP3    H265037   2.987   3.152  31.508 -1.4566  0.4395  0.1744
14516TIP3   OH265038   0.349   2.340   6.745  0.1024  0.0064  0.3563
14516TIP3    H165039   0.406   2.296   6.682  1.1649  1.4562  0.2649
14516TIP3    H265040   0.321   2.270   6.805 -1.2853 -1.5247 -1.8949
14517TIP3   OH265041   3.216   3.127  34.063  0.2623  0.0168 -0.0418
14517TIP3    H165042   3.255   3.090  34.142 -0.1081  0.5984  0.4208
14517TIP3    H265043   3.201   3.219  34.084  0.0299  0.1452 -0.7390
14518TIP3   OH265044   1.835   0.201   3.715 -0.1043  0.3181  0.1208
14518TIP3    H165045   1.835   0.132   3.649 -0.0603  0.4744 -0.0417
14518TIP3    H265046   1.743   0.209   3.741  0.0590 -0.7581  1.1387
14519TIP3   OH265047   0.746   3.936  11.411  0.5222 -0.0002 -0.5033
14519TIP3    H165048   0.837   3.932  11.384  1.4915  0.2760  2.3713
14519TIP3    H265049   0.725   4.030  11.411 -0.0540 -0.1095 -1.9172
14520TIP3   OH265050   0.157   4.158   0.853 -0.0404 -0.5317  0.2503
14520TIP3    H165051   0.084   4.129   0.908 -0.0581  0.1468  0.5996
14520TIP3    H265052   0.159   4.253   0.864 -0.1076 -0.3699 -1.0100
14521TIP3   OH265053   1.172   2.432   7.094 -0.9245 -0.2681 -0.4221
14521TIP3    H165054   1.235   2.371   7.055 -0.3872  0.4924 -0.7973
14521TIP3    H265055   1.104   2.377   7.131 -0.5997 -1.0800 -1.0011
14522TIP3   OH265056   2.935   3.585   9.958  0.0392 -0.3279  0.5432
14522TIP3    H165057   2.858   3.548   9.915  1.4653 -2.9788  0.0868
14522TIP3    H265058   2.992   3.611   9.886  0.8816 -1.3687  0.8075
14523TIP3   OH265059   3.950   4.244   4.328  0.3035  0.4052 -0.7343
14523TIP3    H165060   4.013   4.231   4.400 -0.0835 -1.9387 -0.7395
14523TIP3    H265061   3.946   4.339   4.316  0.8780  0.8249  1.8923
14524TIP3   OH265062   3.466   1.166  35.148  0.2049  0.3208  0.2866
14524TIP3    H165063   3.455   1.260  35.165 -1.4802  0.1213  0.4292
14524TIP3    H265064   3.452   1.157  35.054 -1.0984  0.0440  0.4878
14525TIP3   OH265065   2.201   2.786  27.821  0.2288 -0.6892 -0.6047
14525TIP3    H165066   2.192   2.780  27.726  0.6852 -2.6262 -0.5657
14525TIP3    H265067   2.154   2.866  27.845 -2.6158 -1.7918 -2.1167
14526TIP3   OH265068   3.256   3.014  35.188 -0.5650 -0.3279  0.3627
14526TIP3    H165069   3.273   2.942  35.128 -1.2420 -0.2540  0.0632
14526TIP3    H265070   3.179   3.058  35.150  0.1676  0.8763  0.2306
14527TIP3   OH265071   1.037   2.191  32.899 -0.0647 -0.5555  0.7967
14527TIP3    H165072   1.061   2.100  32.916 -0.8083 -1.2458 -1.4603
14527TIP3    H265073   0.943   2.194  32.915 -0.3051 -0.5816 -0.5230
14528TIP3   OH265074   0.525   3.077  26.964 -0.2100  0.6595 -0.5150
14528TIP3    H165075   0.496   3.023  27.038 -0.1563  0.2679 -0.7733
14528TIP3    H265076   0.464   3.053  26.894 -0.2790  1.0512 -0.5879
14529TIP3   OH265077   2.224   1.469  26.934 -0.2252 -0.2612  0.1719
14529TIP3    H165078   2.202   1.458  26.842 -0.1719  1.8615 -0.1336
14529TIP3    H265079   2.239   1.379  26.966 -1.3583 -1.1254 -1.5707
14530TIP3   OH265080   1.046   1.623   7.087  0.0257  0.0244 -0.1269
14530TIP3    H165081   1.034   1.528   7.084 -0.2428  0.0784 -1.3318
14530TIP3    H265082   1.040   1.645   7.180 -2.5278 -0.8257 -0.0218
14531TIP3   OH265083   1.741   1.698  36.267 -0.2563  0.0146 -0.1217
14531TIP3    H165084   1.660   1.698  36.318  1.4309 -0.2342  2.7473
14531TIP3    H265085   1.744   1.612  36.226 -2.2801  0.6764 -1.8523
14532TIP3   OH265086   1.871   1.563  12.385  0.2256  0.1848  0.1007
14532TIP3    H165087   1.924   1.541  12.309  0.7581  0.0022  0.5126
14532TIP3    H265088   1.797   1.612  12.350 -0.7723 -1.8449 -0.7968
14533TIP3   OH265089   3.498   2.920  31.507 -0.2304  0.5858 -0.2102
14533TIP3    H165090   3.582   2.960  31.484  0.2993  0.3536  1.1550
14533TIP3    H265091   3.521   2.855  31.574 -1.4972  0.4570  0.1249
14534TIP3   OH265092   3.954   1.085  34.299 -0.4882  0.0527  0.5504
14534TIP3    H165093   3.995   1.054  34.379 -0.5155 -1.1987  0.1031
14534TIP3    H265094   3.980   1.021  34.232  0.1153  1.4491 -0.6021
14535TIP3   OH265095   2.226   1.294  29.418  0.0622 -0.2926 -0.1312
14535TIP3    H165096   2.263   1.343  29.492 -0.2261  0.9481 -0.7774
14535TIP3    H265097   2.262   1.338  29.340  0.1640 -1.4160 -0.7405
14536TIP3   OH265098   2.610   4.025   4.497  0.1372 -0.1799  0.3286
14536TIP3    H165099   2.618   4.030   4.402 -0.8910  0.4651  0.2683
14536TIP3    H265100   2.534   4.079   4.518 -0.0170 -0.8109  1.4611
14537TIP3   OH265101   0.584   3.984  13.913 -0.2982 -0.0016  0.0053
14537TIP3    H165102   0.537   4.035  13.979  0.4681  0.2073  0.4051
14537TIP3    H265103   0.515   3.944  13.859 -0.9264  1.6856 -0.5102
14538TIP3   OH265104   1.083   2.526  18.590  0.0935  0.4300  0.1742
14538TIP3    H165105   1.121   2.561  18.671 -1.9856  1.1856  0.8909
14538TIP3    H265106   1.039   2.445  18.618  0.2998  0.1074 -0.4279
14539TIP3   OH265107   2.243   3.651  36.743 -0.1317 -0.6234 -0.4776
14539TIP3    H165108   2.186   3.583  36.707  0.0866 -0.0504 -1.9720
14539TIP3    H265109   2.183   3.717  36.777 -0.3595 -0.5553 -1.0024
14540TIP3   OH265110   3.530   2.374  34.388 -0.3211  0.3464 -0.1699
14540TIP3    H165111   3.593   2.381  34.460 -0.4136  1.4774 -0.1818
14540TIP3    H265112   3.549   2.290  34.347  2.2305  1.2880 -1.1075
14541TIP3   OH265113   1.530   0.124  10.885  0.0342  0.0731 -0.1205
14541TIP3    H165114   1.616   0.119  10.927 -0.3751 -0.8020  0.6505
14541TIP3    H265115   1.545   0.174  10.805  1.2678 -0.1155 -0.0191
14542TIP3   OH265116   3.426   3.486   4.103  0.4255 -0.4614 -0.0011
14542TIP3    H165117   3.415   3.453   4.014  0.3420  1.0807 -0.5908
14542TIP3    H265118   3.336   3.501   4.134  0.4519  1.8959 -0.8350
14543TIP3   OH265119   4.136   1.197  24.579 -0.3144 -0.4318  0.5352
14543TIP3    H165120   4.189   1.243  24.645  0.5241 -0.1044 -0.3237
14543TIP3    H265121   4.176   1.111  24.572  0.1398 -0.1844 -0.1155
14544TIP3   OH265122   1.225   0.770  39.043 -0.2335 -0.3797  0.0533
14544TIP3    H165123   1.249   0.679  39.028 -0.9489 -0.4054 -1.0217
14544TIP3    H265124   1.300   0.821  39.014 -0.1259 -0.5967 -0.0439
14545TIP3   OH265125   0.991   2.463   5.138  0.2383  0.1414  0.2796
14545TIP3    H165126   1.072   2.460   5.188  0.7459  2.7487 -0.2499
14545TIP3    H265127   0.954   2.549   5.156 -0.3064  0.6231 -2.5933
14546TIP3   OH265128   3.415   0.696  11.728 -0.2724  0.1872  0.0439
14546TIP3    H165129   3.373   0.663  11.648  1.3429 -1.5536 -0.1482
14546TIP3    H265130   3.344   0.739  11.775 -1.6575 -0.2609 -1.5175
14547TIP3   OH265131   0.074   0.085  36.109  0.0848  0.5656  0.0183
14547TIP3    H165132   0.111   0.169  36.134  0.7925  0.1614  0.3770
14547TIP3    H265133   0.065   0.037  36.192  3.9597 -1.3981 -0.4418
14548TIP3   OH265134   1.663   2.362  17.025 -0.3959 -0.0907 -0.1760
14548TIP3    H165135   1.608   2.298  16.980 -0.9663  0.9834 -1.0668
14548TIP3    H265136   1.607   2.401  17.091  0.0061 -0.6307  0.4927
14549TIP3   OH265137   0.090   0.885   0.544 -0.9114  0.3557 -0.3457
14549TIP3    H165138   0.012   0.880   0.488 -0.7388  0.1819 -0.5742
14549TIP3    H265139   0.138   0.961   0.512 -0.8005  0.2423 -0.4518
14550TIP3   OH265140   0.593   0.669  29.893  0.8143 -0.1962  0.3451
14550TIP3    H165141   0.512   0.703  29.857  0.9808 -1.0783 -0.9367
14550TIP3    H265142   0.658   0.682  29.823  0.8215 -3.3117 -0.3850
14551TIP3   OH265143   0.539   2.148  33.346 -0.1371  0.1630 -0.0672
14551TIP3    H165144   0.596   2.225  33.343 -0.5310  0.4496 -0.2984
14551TIP3    H265145   0.452   2.182  33.328 -0.2135 -0.4338 -0.9006
14552TIP3   OH265146   2.452   1.952  37.052 -0.0724 -0.3342  0.3018
14552TIP3    H165147   2.540   1.963  37.016  0.2645 -2.1922  0.4817
14552TIP3    H265148   2.398   1.929  36.976 -0.3327  0.3912  0.2602
14553TIP3   OH265149   3.667   3.973  31.662  0.0413 -0.4868 -0.3696
14553TIP3    H165150   3.738   3.988  31.601  1.8505 -2.0261  1.2207
14553TIP3    H265151   3.631   4.060  31.679  3.0355  0.7176  0.4602
14554TIP3   OH265152   1.222   2.260   8.284 -0.2617  0.3748 -0.0726
14554TIP3    H165153   1.285   2.216   8.227 -0.0036  0.5941  0.0408
14554TIP3    H265154   1.208   2.198   8.356  2.7490  1.8085  1.9368
14555TIP3   OH265155   3.858   1.861  33.209  0.0082 -0.2542  0.4158
14555TIP3    H165156   3.949   1.850  33.236  0.0888  0.6383  0.5478
14555TIP3    H265157   3.857   1.944  33.160 -0.6138 -0.5785 -0.1402
14556TIP3   OH265158   2.383   3.160   5.563  0.3990 -0.3243 -0.0554
14556TIP3    H165159   2.327   3.187   5.491 -0.0650 -0.5788  0.2099
14556TIP3    H265160   2.388   3.064   5.557 -1.1495 -0.5364  1.3340
14557TIP3   OH265161   2.093   1.222  38.723  0.4454  0.1362 -0.0655
14557TIP3    H165162   2.156   1.257  38.786  0.6806  1.6149 -1.0915
14557TIP3    H265163   2.010   1.263  38.747  0.6336  1.0943 -1.0010
14558TIP3   OH265164   0.475   1.901  34.301 -0.0776 -0.1692 -0.2677
14558TIP3    H165165   0.563   1.912  34.265  0.2411 -0.8303  0.2856
14558TIP3    H265166   0.461   1.979  34.355  0.1108 -0.0021 -0.4570
14559TIP3   OH265167   1.781   1.401   1.990 -0.0084  0.0786 -0.5328
14559TIP3    H165168   1.853   1.441   1.941 -0.2003  0.1676 -0.7477
14559TIP3    H265169   1.709   1.399   1.928 -0.6247  1.2993  0.1023
14560TIP3   OH265170   0.874   3.714  14.744 -0.0983  0.0706  0.0242
14560TIP3    H165171   0.914   3.801  14.752  1.6592 -0.7047  0.0561
14560TIP3    H265172   0.799   3.717  14.803  1.0183  0.9733  1.4551
14561TIP3   OH265173   0.784   4.145   1.809 -0.0448  0.1579  0.0506
14561TIP3    H165174   0.781   4.239   1.825 -0.5573 -0.0072  0.9723
14561TIP3    H265175   0.867   4.131   1.765 -0.6758  1.2615 -1.6102
14562TIP3   OH265176   3.146   2.923   1.097  0.2205  0.2591 -0.2192
14562TIP3    H165177   3.162   3.018   1.095  1.9347  0.0006 -0.9130
14562TIP3    H265178   3.233   2.884   1.095 -0.4687 -1.3537 -0.6301
14563TIP3   OH265179   2.617   2.014   0.719 -0.0597  0.3937 -0.0690
14563TIP3    H165180   2.545   1.993   0.661 -0.7552 -0.4511  1.0443
14563TIP3    H265181   2.636   2.106   0.703 -0.0026  0.1048 -1.8387
14564TIP3   OH265182   4.165   0.147   3.220  0.1473  0.9981  0.0992
14564TIP3    H165183   4.111   0.077   3.256  1.4003 -0.3573 -0.5720
14564TIP3    H265184   4.144   0.147   3.126  0.6635  1.0507 -0.0198
14565TIP3   OH265185   4.083   3.162  12.271 -0.4841  0.8760  0.1783
14565TIP3    H165186   4.146   3.178  12.201 -0.0899  0.7607  0.5053
14565TIP3    H265187   4.000   3.148  12.226  0.0529 -0.7950 -0.3670
14566TIP3   OH265188   1.243   0.157   9.535 -0.7763 -0.1830 -0.3640
14566TIP3    H165189   1.206   0.074   9.504  1.0732 -1.5323  0.7956
14566TIP3    H265190   1.179   0.189   9.599 -1.2058 -1.0839 -0.3218
14567TIP3   OH265191   0.395   3.457  29.903  0.0071 -0.0099  0.1024
14567TIP3    H165192   0.390   3.461  29.807  0.6205  1.6835  0.1093
14567TIP3    H265193   0.375   3.366  29.924 -1.7845 -0.0563 -1.5240
14568TIP3   OH265194   1.523   1.721  10.476 -0.1489  0.3489  0.6496
14568TIP3    H165195   1.595   1.700  10.417  0.8524  0.2905  1.8292
14568TIP3    H265196   1.464   1.646  10.471  0.6940 -0.3403  0.8362
14569TIP3   OH265197   3.489   3.405   7.291  0.3537 -0.0385 -0.1065
14569TIP3    H165198   3.411   3.450   7.259 -0.2705 -1.3170 -0.4442
14569TIP3    H265199   3.520   3.354   7.216  1.5571  0.5144  0.0071
14570TIP3   OH265200   0.094   0.022  35.758 -0.1018 -0.5882  1.1640
14570TIP3    H165201   0.003   0.041  35.737  0.0669 -0.9715  0.0196
14570TIP3    H265202   0.102  -0.073  35.746  0.7062 -0.4072  0.2075
14571TIP3   OH265203   1.916   3.916  27.005  0.0547 -0.5089  0.4026
14571TIP3    H165204   1.938   3.880  27.091  0.6613 -0.6519  0.1903
14571TIP3    H265205   1.905   3.839  26.949 -1.0152 -0.4425  0.5021
14572TIP3   OH265206   0.835   4.193   7.755  0.0740  0.0900 -0.0868
14572TIP3    H165207   0.894   4.196   7.830 -1.3265  0.7030  1.0448
14572TIP3    H265208   0.748   4.183   7.793 -0.4952 -2.1510 -1.7428
14573TIP3   OH265209   1.300   1.439  28.475 -0.8639  0.0135 -0.6184
14573TIP3    H165210   1.322   1.471  28.387 -0.3758 -0.8488 -0.8193
14573TIP3    H265211   1.330   1.509  28.534  0.8392 -0.3327 -1.0001
14574TIP3   OH265212   4.300   0.241  13.026 -0.5352 -0.2403 -0.4889
14574TIP3    H165213   4.252   0.164  13.055  0.1045 -0.7222 -0.6697
14574TIP3    H265214   4.307   0.296  13.105 -1.4103 -0.1399 -0.4780
14575TIP3   OH265215   1.563   4.276   7.662  0.8477  0.3748 -0.7786
14575TIP3    H165216   1.473   4.244   7.664  0.1360  2.2619  0.3303
14575TIP3    H265217   1.588   4.272   7.570  0.1035 -1.3532 -0.9390
14576TIP3   OH265218   3.624   0.429   4.657 -0.2924  0.1682 -0.2413
14576TIP3    H165219   3.537   0.424   4.617  0.6619 -0.1313 -2.4523
14576TIP3    H265220   3.635   0.521   4.679 -1.7633 -0.0423  1.6279
14577TIP3   OH265221   3.633   4.328  37.432  0.5186 -0.7206 -0.2386
14577TIP3    H165222   3.688   4.329  37.354 -0.8508  0.2731 -1.2327
14577TIP3    H265223   3.666   4.400  37.486 -1.7310  2.0732 -2.3109
14578TIP3   OH265224   3.708   1.320  27.490 -0.1605 -0.8296  0.2600
14578TIP3    H165225   3.742   1.318  27.579 -0.7972  0.9013  0.5856
14578TIP3    H265226   3.639   1.386  27.492 -2.1518 -2.7428 -0.8665
14579TIP3   OH265227   2.203   0.570  31.549  0.0673  0.2528 -0.6911
14579TIP3    H165228   2.176   0.499  31.491  0.2779  0.1483 -0.6592
14579TIP3    H265229   2.141   0.641  31.530  0.2987  0.3092 -1.2234
14580TIP3   OH265230   3.206   0.821   7.893 -0.5822 -0.2043 -1.0880
14580TIP3    H165231   3.245   0.897   7.849  1.4754 -1.1448 -0.9955
14580TIP3    H265232   3.160   0.775   7.823 -2.2033  1.2759 -1.0744
14581TIP3   OH265233   0.271   2.495  24.391  0.2066  0.7096  0.1220
14581TIP3    H165234   0.277   2.504  24.296  0.8452  2.5525  0.2866
14581TIP3    H265235   0.202   2.430  24.405  1.4789 -1.1104 -1.5944
14582TIP3   OH265236   3.617   2.864  33.578  0.5393  0.4982 -0.7090
14582TIP3    H165237   3.674   2.878  33.654 -0.6801 -1.1166  0.6017
14582TIP3    H265238   3.530   2.891  33.608 -0.3501 -2.0316 -0.7434
14583TIP3   OH265239   0.487   2.587   6.796  0.1722 -0.0910  0.0719
14583TIP3    H165240   0.431   2.511   6.779  1.5603 -1.7619  2.3171
14583TIP3    H265241   0.512   2.619   6.710  0.1609 -2.7055 -0.9848
14584TIP3   OH265242   2.068   4.143  15.639 -0.2696  0.0871  0.4016
14584TIP3    H165243   2.138   4.129  15.576 -0.2723 -1.0678  0.6315
14584TIP3    H265244   2.016   4.215  15.603  1.2813  1.2653  0.4599
14585TIP3   OH265245   1.900   0.846  27.709  0.3250 -0.5061  0.5351
14585TIP3    H165246   1.845   0.920  27.684  1.0785 -0.3872 -0.8854
14585TIP3    H265247   1.870   0.822  27.797 -1.6424 -0.1481  0.0112
14586TIP3   OH265248   3.997   0.165  26.806  0.1010 -0.2344  0.4612
14586TIP3    H165249   3.934   0.145  26.876  0.8042  0.2408  1.2483
14586TIP3    H265250   4.021   0.256  26.821 -0.4745  0.1882 -1.0154
14587TIP3   OH265251   0.207   2.150   6.515  0.1614  0.1578  0.5096
14587TIP3    H165252   0.120   2.156   6.554  0.1471  0.6324  0.4008
14587TIP3    H265253   0.191   2.125   6.424  0.2019 -1.1197  0.8344
14588TIP3   OH265254   2.704   1.552   0.924  0.4019  0.7598 -0.1720
14588TIP3    H165255   2.659   1.634   0.943  0.9411  0.8601  0.7293
14588TIP3    H265256   2.789   1.579   0.888  0.9686  0.6189  1.0362
14589TIP3   OH265257   0.997   3.285  15.463  0.0441 -0.0610  0.4087
14589TIP3    H165258   0.991   3.366  15.514 -1.2081 -1.2827  2.3169
14589TIP3    H265259   0.945   3.302  15.385  0.8760  1.3972  0.1457
14590TIP3   OH265260   4.024   0.951  26.555 -0.3923 -0.0973 -0.5647
14590TIP3    H165261   4.003   0.860  26.531  0.1845 -0.3293 -0.2132
14590TIP3    H265262   4.114   0.963  26.525 -0.0657 -0.0173  0.3986
14591TIP3   OH265263   1.012   2.577  36.824  0.2626 -0.0193 -0.0624
14591TIP3    H165264   1.097   2.535  36.831  0.0042 -0.3328  1.4668
14591TIP3    H265265   1.031   2.671  36.827  0.6625 -0.0381 -1.3552
14592TIP3   OH265266   1.162   3.959  30.655 -0.3299 -0.0018 -0.1389
14592TIP3    H165267   1.161   3.922  30.567 -0.5907 -3.5192  1.1999
14592TIP3    H265268   1.232   3.913  30.701 -1.0913  0.7135  1.8740
14593TIP3   OH265269   0.976   2.037  27.260  0.2450  0.1304 -0.6933
14593TIP3    H165270   0.992   2.105  27.325  2.2729  0.6454 -1.6667
14593TIP3    H265271   1.041   2.053  27.192 -0.5482 -1.5802 -1.9147
14594TIP3   OH265272   1.801   0.814  31.181 -0.0945 -0.3015 -0.2256
14594TIP3    H165273   1.856   0.736  31.185 -0.7026 -0.8165 -1.2901
14594TIP3    H265274   1.711   0.780  31.183 -0.3734  0.4223  0.0634
14595TIP3   OH265275   1.543   3.982  12.054  0.7518 -0.1746  0.2118
14595TIP3    H165276   1.582   4.010  11.971 -1.4052  1.3017 -0.3665
14595TIP3    H265277   1.577   4.044  12.118  0.2674  0.3925 -0.0764
14596TIP3   OH265278   1.714   0.772  30.260  0.4152  0.8130  0.0188
14596TIP3    H165279   1.766   0.853  30.258 -1.5677  2.1503 -0.7894
14596TIP3    H265280   1.704   0.753  30.353 -0.1399  2.2686  0.2963
14597TIP3   OH265281   2.389   1.935  12.480  0.7529  0.4308  0.1482
14597TIP3    H165282   2.394   1.854  12.529 -0.9342  0.5102  0.5141
14597TIP3    H265283   2.417   1.911  12.391 -1.7428 -1.1059 -0.3224
14598TIP3   OH265284   3.399   2.065   3.065 -0.1932  0.2967  0.1194
14598TIP3    H165285   3.377   2.158   3.055 -3.0222 -0.1779  0.9422
14598TIP3    H265286   3.400   2.031   2.976 -1.8343  0.6566 -0.0826
14599TIP3   OH265287   4.345   2.773  24.250  0.2518 -0.2046  0.0447
14599TIP3    H165288   4.426   2.770  24.300  0.5073  1.3362 -0.2333
14599TIP3    H265289   4.341   2.861  24.214 -1.8363 -0.0378  0.5117
14600TIP3   OH265290   0.373   3.083  40.537  0.2904 -0.2738 -0.4038
14600TIP3    H165291   0.313   3.050  40.604  1.9887 -1.2877  0.6870
14600TIP3    H265292   0.320   3.086  40.458 -1.6344  0.4240  0.8301
14601TIP3   OH265293   2.406   0.027  33.020  0.0608  0.0454  0.3714
14601TIP3    H165294   2.471   0.023  32.950  0.2404 -1.3352  0.5800
14601TIP3    H265295   2.398   0.120  33.040  1.2116  0.3285 -0.3626
14602TIP3   OH265296   0.323   4.265  31.808  0.2551 -0.6096 -0.0763
14602TIP3    H165297   0.345   4.344  31.857 -0.2511 -0.6526  0.2356
14602TIP3    H265298   0.407   4.225  31.787  0.4841 -0.6269  0.8342
14603TIP3   OH265299   1.488   0.467   6.675  0.0461 -0.3762 -0.0094
14603TIP3    H165300   1.400   0.463   6.712 -0.7760  0.7743 -1.6772
14603TIP3    H265301   1.490   0.395   6.612  0.6900 -1.0424  0.7559
14604TIP3   OH265302   3.658   1.403  30.827  0.3582 -0.3023  0.0352
14604TIP3    H165303   3.673   1.347  30.750 -0.1865 -1.2668  0.6202
14604TIP3    H265304   3.728   1.381  30.887  1.3936  1.1899 -0.5536
14605TIP3   OH265305   1.823   0.285   9.737  0.5230  0.3024  0.2398
14605TIP3    H165306   1.879   0.362   9.724  1.3040 -0.5618 -1.8641
14605TIP3    H265307   1.860   0.218   9.680 -0.7290 -1.3512  1.2818
14606TIP3   OH265308   2.377   0.806   1.564  0.4211  0.0239  0.8917
14606TIP3    H165309   2.332   0.879   1.606 -2.7794 -1.8459  1.0356
14606TIP3    H265310   2.313   0.735   1.565  1.9842 -1.6537 -2.6639
14607TIP3   OH265311   4.350   1.929   7.220  0.2061  0.2754 -0.2455
14607TIP3    H165312   4.317   2.011   7.184 -0.2728  0.0259 -0.3899
14607TIP3    H265313   4.330   1.864   7.152  0.2869 -0.0121  0.0058
14608TIP3   OH265314   4.116   1.682   3.630 -0.5138 -0.1406 -0.0956
14608TIP3    H165315   4.150   1.639   3.708  0.3628  0.5340 -0.0887
14608TIP3    H265316   4.025   1.703   3.652 -0.6172 -0.9691  0.3073
14609TIP3   OH265317   0.643   1.412  31.473  0.1286  0.4429 -0.4031
14609TIP3    H165318   0.605   1.445  31.392 -0.2080 -0.6189 -0.6930
14609TIP3    H265319   0.576   1.354  31.509  1.2823 -1.1227 -0.6927
14610TIP3   OH265320   2.580   0.418  27.040  0.5363  0.0872 -0.1729
14610TIP3    H165321   2.650   0.429  26.976 -0.8476  2.6005 -1.3954
14610TIP3    H265322   2.517   0.360  26.997  0.5078  0.1992 -0.2820
14611TIP3   OH265323   2.161   3.106   8.749  0.3819  0.2921  0.6104
14611TIP3    H165324   2.178   3.018   8.783 -0.4360  0.1056  0.5503
14611TIP3    H265325   2.074   3.128   8.783 -0.7034 -0.0869 -1.7081
14612TIP3   OH265326   0.871   1.453  40.856  1.0115 -0.2622  0.6634
14612TIP3    H165327   0.869   1.358  40.843  0.7429 -0.0381 -1.2523
14612TIP3    H265328   0.783   1.483  40.833  1.9285  0.7454 -1.9261
14613TIP3   OH265329   3.667   2.972  27.892  0.0378  0.0919 -1.1107
14613TIP3    H165330   3.661   2.901  27.955  0.0670  0.5592 -0.5713
14613TIP3    H265331   3.579   2.978  27.855  0.0624 -0.2894 -1.2334
14614TIP3   OH265332   0.102   0.392  30.539  0.0954 -0.2736  0.0419
14614TIP3    H165333   0.055   0.375  30.457  1.9273  3.4524 -2.0893
14614TIP3    H265334   0.193   0.370  30.518  1.3504  4.5250 -0.6376
14615TIP3   OH265335   4.134   1.572  34.693 -0.7350 -0.2589 -0.0872
14615TIP3    H165336   4.078   1.649  34.685 -0.4668 -0.1328 -0.9134
14615TIP3    H265337   4.154   1.566  34.786 -0.0425  1.1932 -0.1096
14616TIP3   OH265338   4.142   3.789   6.740 -0.7951 -0.0848 -0.4932
14616TIP3    H165339   4.212   3.726   6.757 -1.6500 -1.0221 -0.3893
14616TIP3    H265340   4.154   3.813   6.648  0.8355  1.2652  0.0052
14617TIP3   OH265341   3.676   4.019  38.297  0.5083  0.2301 -0.3966
14617TIP3    H165342   3.629   4.102  38.305 -0.8283 -0.5719  0.4393
14617TIP3    H265343   3.653   3.971  38.377  2.9656 -0.1234  0.1965
14618TIP3   OH265344   2.669   4.218   3.041 -0.5266  0.0020 -0.0926
14618TIP3    H165345   2.714   4.144   3.002  0.7103 -0.3303  1.7994
14618TIP3    H265346   2.576   4.200   3.029 -0.2106 -0.6468 -1.7377
14619TIP3   OH265347   1.109   3.631   1.170  0.2443  0.1413 -0.4505
14619TIP3    H165348   1.131   3.722   1.148 -0.1040  0.0655 -1.1154
14619TIP3    H265349   1.028   3.613   1.122  0.4611 -0.6102 -0.5472
14620TIP3   OH265350   3.867   2.583   8.700  0.0515  0.1585 -0.0850
14620TIP3    H165351   3.852   2.490   8.719 -1.5427  0.1055 -1.3865
14620TIP3    H265352   3.886   2.585   8.606 -0.8949  1.2458 -0.2610
14621TIP3   OH265353   3.265   0.429   4.884 -0.5752  0.5670  0.1460
14621TIP3    H165354   3.293   0.512   4.844  0.0615  0.1034 -0.3833
14621TIP3    H265355   3.186   0.405   4.836 -1.7461  1.6956  1.4057
14622TIP3   OH265356   3.370   1.145  31.951  0.4993  0.6174 -0.2596
14622TIP3    H165357   3.380   1.129  32.044  0.6865  1.6406 -0.0900
14622TIP3    H265358   3.442   1.096  31.910  0.9777  0.9204  0.2144
14623TIP3   OH265359   0.427   3.332  36.952  0.5547 -0.3716 -0.3351
14623TIP3    H165360   0.438   3.264  36.885  1.9138 -0.0363 -0.4816
14623TIP3    H265361   0.452   3.289  37.034  0.9525 -0.1904 -0.3582
14624TIP3   OH265362   2.705   0.794  38.020 -0.1022  0.1849  0.0523
14624TIP3    H165363   2.743   0.841  37.945 -1.8850  0.8522 -0.4933
14624TIP3    H265364   2.774   0.794  38.086  1.3234  0.0572 -1.3945
14625TIP3   OH265365   1.947   1.565  36.082 -0.1797  0.1638  0.0685
14625TIP3    H165366   1.965   1.641  36.027 -0.3393 -1.4300 -2.3594
14625TIP3    H265367   2.011   1.500  36.054 -0.3674 -0.7971  1.7338
14626TIP3   OH265368   1.270   3.528  19.414 -0.5100  0.6496 -0.4468
14626TIP3    H165369   1.174   3.520  19.406 -0.3845 -0.1653 -1.4490
14626TIP3    H265370   1.294   3.590  19.345 -0.2808  0.5638 -0.4434
14627TIP3   OH265371   1.751   1.888  11.669  0.0068  0.2258  0.0318
14627TIP3    H165372   1.771   1.856  11.581 -1.6239 -0.1223 -0.2459
14627TIP3    H265373   1.725   1.980  11.656 -0.6534  0.0523  0.0745
14628TIP3   OH265374   2.928   2.289  34.524 -0.0988  0.4430  0.0572
14628TIP3    H165375   2.931   2.345  34.447  0.4605 -0.1575 -0.3638
14628TIP3    H265376   2.869   2.335  34.585 -0.3948  1.0071 -0.6468
14629TIP3   OH265377   0.398   0.918  11.362 -0.4143  0.2685  0.4850
14629TIP3    H165378   0.416   0.971  11.284  1.1254 -1.4545 -0.4094
14629TIP3    H265379   0.330   0.857  11.333  2.3865 -2.5698 -0.7273
14630TIP3   OH265380   3.731   3.347   3.451  0.0001 -0.2918 -0.4160
14630TIP3    H165381   3.762   3.278   3.509  1.0787  1.0949  0.7500
14630TIP3    H265382   3.789   3.342   3.375  0.4782 -0.2852 -0.0552
14631TIP3   OH265383   2.881   2.243   5.798 -0.7701  0.3333 -0.1553
14631TIP3    H165384   2.905   2.268   5.888 -0.9085  0.2135 -0.0844
14631TIP3    H265385   2.802   2.295   5.780 -0.4025  0.8098 -0.4262
14632TIP3   OH265386   1.853   2.183   5.881 -0.1410 -0.0210 -0.4164
14632TIP3    H165387   1.778   2.242   5.878 -0.6842 -0.5639  1.3109
14632TIP3    H265388   1.924   2.231   5.838 -1.1244  1.0261 -0.8989
14633TIP3   OH265389   0.386   1.284  34.905  0.3523  0.3141  0.3990
14633TIP3    H165390   0.417   1.319  34.989  1.2171  0.3050  0.0840
14633TIP3    H265391   0.290   1.285  34.913  0.4030  1.1559  1.0422
14634TIP3   OH265392   0.268   0.471  12.212 -0.3692 -0.3115 -0.0478
14634TIP3    H165393   0.346   0.430  12.251  0.3626 -0.7985 -1.9226
14634TIP3    H265394   0.242   0.411  12.142 -2.6506 -0.3094  0.7378
14635TIP3   OH265395   1.281   2.579  40.083  0.4339 -0.3983  0.0074
14635TIP3    H165396   1.264   2.618  40.169 -0.2306  0.6427 -0.5757
14635TIP3    H265397   1.329   2.647  40.035 -1.4870  0.1040 -1.3244
14636TIP3   OH265398   2.703   1.775   7.484 -0.3656 -0.1643  0.1865
14636TIP3    H165399   2.783   1.772   7.431 -0.7817 -1.3142 -0.4222
14636TIP3    H265400   2.647   1.838   7.439  0.4604  1.2017  1.0306
14637TIP3   OH265401   4.207   3.311  11.577 -0.1519  0.2746  0.6164
14637TIP3    H165402   4.291   3.299  11.622 -0.6103 -0.4538  1.3104
14637TIP3    H265403   4.210   3.401  11.544  1.8753 -0.4365 -1.4368
14638TIP3   OH265404   1.258   3.559   0.117  0.5044 -0.1344 -0.0226
14638TIP3    H165405   1.205   3.619   0.169 -0.9612 -0.2684 -1.2797
14638TIP3    H265406   1.204   3.480   0.108  1.0310 -0.4009 -1.0873
14639TIP3   OH265407   2.175   0.379   0.067 -0.6495 -0.3024  0.2416
14639TIP3    H165408   2.111   0.346   0.004 -1.0037 -0.8049  0.8502
14639TIP3    H265409   2.123   0.404   0.143 -0.1014 -0.9610  0.8462
14640TIP3   OH265410   1.709   2.784   3.978  0.6949 -0.6427  0.1024
14640TIP3    H165411   1.673   2.715   4.034  2.5670 -1.4127  0.4326
14640TIP3    H265412   1.779   2.742   3.929  0.1160  0.3989 -1.7268
14641TIP3   OH265413   3.223   3.116   7.967  0.5013  0.2779  0.4011
14641TIP3    H165414   3.236   3.149   7.878  2.1456  3.9865  1.8184
14641TIP3    H265415   3.310   3.113   8.005 -0.2033 -0.8003  2.0587
14642TIP3   OH265416   0.216   1.385  32.881  0.3044 -0.3082  0.2780
14642TIP3    H165417   0.165   1.443  32.825  1.5755  0.3714 -0.2161
14642TIP3    H265418   0.155   1.317  32.908 -0.6803  0.1178 -0.8231
14643TIP3   OH265419   3.438   4.010   4.275  0.3911 -0.0423  0.0230
14643TIP3    H165420   3.406   4.000   4.365  0.9621  0.4082  0.2788
14643TIP3    H265421   3.461   3.921   4.248  1.2842 -0.0447  0.7293
14644TIP3   OH265422   3.609   1.794  30.617 -0.0760 -0.1080 -0.0282
14644TIP3    H165423   3.614   1.889  30.628 -0.5195 -0.0369 -0.4417
14644TIP3    H265424   3.683   1.761  30.668  0.7221  0.5178 -0.7500
14645TIP3   OH265425   3.728   2.564  31.821 -0.1594  0.2000  0.1139
14645TIP3    H165426   3.654   2.504  31.819  1.2283 -1.6134  0.3911
14645TIP3    H265427   3.803   2.509  31.846  1.5629  1.6622 -1.5408
14646TIP3   OH265428   0.119   0.692  34.444 -0.2801  0.3581  0.1037
14646TIP3    H165429   0.188   0.686  34.510  1.8009  0.7359 -1.9149
14646TIP3    H265430   0.076   0.606  34.447  1.9771 -0.8587 -0.3038
14647TIP3   OH265431   0.341   2.032   0.142 -0.4105  0.3955  0.1883
14647TIP3    H165432   0.257   2.048   0.099  0.5097  1.7035 -1.2238
14647TIP3    H265433   0.380   2.118   0.151  1.1286 -0.2663  0.1045
14648TIP3   OH265434   0.554   0.906  32.464  0.1822 -0.0754  0.3453
14648TIP3    H165435   0.596   0.894  32.549 -1.1216  0.6847  1.1308
14648TIP3    H265436   0.567   0.822  32.420  1.5237 -0.2327  0.9785
14649TIP3   OH265437   0.443   3.232  37.656 -0.1957  0.3695 -0.0477
14649TIP3    H165438   0.398   3.147  37.658  0.5239 -0.0184  2.0111
14649TIP3    H265439   0.442   3.262  37.747  3.1055  0.6601  0.0183
14650TIP3   OH265440   3.405   2.047  37.163  0.5618 -0.8934  0.0964
14650TIP3    H165441   3.439   2.082  37.081 -3.5669  2.3191 -0.5405
14650TIP3    H265442   3.418   2.117  37.226 -4.7224  0.9105 -0.3456
14651TIP3   OH265443   2.393   2.599  35.394  0.3507 -0.3054 -0.6241
14651TIP3    H165444   2.417   2.528  35.335  1.4821 -0.0421 -0.5029
14651TIP3    H265445   2.396   2.678  35.339 -0.1488 -0.2494 -0.5755
14652TIP3   OH265446   3.587   4.293  38.944 -0.4155 -0.4311  0.1216
14652TIP3    H165447   3.651   4.344  38.993 -1.1045 -0.5505  1.1747
14652TIP3    H265448   3.503   4.316  38.984 -0.8721 -1.4036 -0.2592
14653TIP3   OH265449   0.944   3.330  14.573  0.4114  0.0043 -0.0242
14653TIP3    H165450   0.972   3.421  14.582  2.0526 -0.4377 -0.3553
14653TIP3    H265451   0.855   3.335  14.540 -0.7729  1.5168  3.0625
14654TIP3   OH265452   2.165   3.640  11.784 -0.6125 -0.1882  0.0957
14654TIP3    H165453   2.119   3.638  11.868  0.8273 -0.9334  0.9060
14654TIP3    H265454   2.211   3.724  11.784 -0.6397 -0.1731  0.0292
14655TIP3   OH265455   1.307   1.952  11.402 -0.5384  0.2645 -0.1376
14655TIP3    H165456   1.332   1.874  11.452  1.0144  1.6729  1.4382
14655TIP3    H265457   1.233   1.988  11.449  0.7712  1.4562  1.1145
14656TIP3   OH265458   3.845   3.414  39.541  0.7490  0.3684  0.5011
14656TIP3    H165459   3.766   3.469  39.535 -0.0435 -0.8562 -1.0594
14656TIP3    H265460   3.917   3.473  39.518  0.3753  1.6102  2.3479
14657TIP3   OH265461   0.599   3.303   2.110  0.1682  0.1691 -0.3839
14657TIP3    H165462   0.579   3.233   2.172  1.3687  0.4666  0.3710
14657TIP3    H265463   0.516   3.318   2.063 -0.3188 -1.1753  0.0028
14658TIP3   OH265464   2.916   3.743  28.135  0.6237  0.7358 -0.4148
14658TIP3    H165465   2.912   3.647  28.129 -0.9693  0.7934 -0.6944
14658TIP3    H265466   2.834   3.773  28.095  0.3447  2.1471  1.0929
14659TIP3   OH265467   1.291   2.358   2.080 -0.2448  0.4764 -0.9942
14659TIP3    H165468   1.357   2.303   2.122  0.2872  1.3811 -0.6087
14659TIP3    H265469   1.339   2.437   2.054 -1.4710  1.8787  0.7408
14660TIP3   OH265470   4.031   3.516  41.373  0.2809  0.3827 -0.0725
14660TIP3    H165471   3.993   3.475  41.296  1.6258 -0.8848 -0.1033
14660TIP3    H265472   4.117   3.545  41.345 -0.3542  2.7089  0.1483
14661TIP3   OH265473   3.264   4.051  35.885  0.9413  0.5204 -0.4565
14661TIP3    H165474   3.228   4.008  35.963  1.7365  1.2958  0.3741
14661TIP3    H265475   3.347   4.088  35.915  1.4558  0.5053 -1.7923
14662TIP3   OH265476   1.516   2.876  10.125 -0.3537  0.6834 -0.0500
14662TIP3    H165477   1.589   2.934  10.148 -0.2435  0.0333  1.2879
14662TIP3    H265478   1.510   2.883  10.029  2.8862 -0.8953 -0.5096
14663TIP3   OH265479   2.830   3.995   6.347 -0.4918  0.0379 -0.3523
14663TIP3    H165480   2.879   3.974   6.427 -0.5208  0.7103 -0.1492
14663TIP3    H265481   2.751   4.040   6.379 -1.9609 -2.2368 -0.5716
14664TIP3   OH265482   2.924   0.267  28.554  0.0374 -0.0197  0.0439
14664TIP3    H165483   2.844   0.214  28.552  0.0509 -0.0730 -2.2082
14664TIP3    H265484   2.900   0.348  28.509  1.0902  0.2154 -0.1247
14665TIP3   OH265485   3.391   0.025  36.076 -0.1875  0.5627  0.0310
14665TIP3    H165486   3.462   0.074  36.035  0.0758  0.0699 -0.1040
14665TIP3    H265487   3.312   0.053  36.029  0.1610 -0.2967 -1.0894
14666TIP3   OH265488   0.901   0.049   2.437 -0.1441  0.6190 -0.5297
14666TIP3    H165489   0.965  -0.014   2.403  0.0854  1.2903 -1.3958
14666TIP3    H265490   0.889   0.111   2.365 -0.7974  1.2379  0.1003
14667TIP3   OH265491   2.822   0.150  37.904 -0.5620  0.0347  0.2052
14667TIP3    H165492   2.727   0.165  37.903 -0.5765 -0.0105  0.8077
14667TIP3    H265493   2.840   0.108  37.820 -1.0010  0.4930 -0.1293
14668TIP3   OH265494   3.805   3.841  36.510 -0.1508 -0.2761  0.8856
14668TIP3    H165495   3.717   3.803  36.508 -1.3865  2.3533  0.3273
14668TIP3    H265496   3.859   3.779  36.462 -2.3464 -0.6526 -1.3492
14669TIP3   OH265497   3.164   1.128  29.182  0.6569  0.2839  0.1801
14669TIP3    H165498   3.085   1.157  29.227 -1.8013 -2.2483 -2.1081
14669TIP3    H265499   3.204   1.065  29.242  0.2936  0.7071  0.8805
14670TIP3   OH265500   3.112   1.609   9.043  0.5359  0.3559 -0.2003
14670TIP3    H165501   3.105   1.667   8.968 -0.0845  1.9693  1.0393
14670TIP3    H265502   3.198   1.627   9.081  0.5725  0.0520 -0.1325
14671TIP3   OH265503   0.970   3.492  31.129  0.5486  1.0825  0.0696
14671TIP3    H165504   1.012   3.553  31.190  0.9455  0.7175  0.1641
14671TIP3    H265505   0.914   3.438  31.185  1.1610  0.5340  0.1573
14672TIP3   OH265506   0.485   1.436  34.312 -0.2107 -0.0033 -0.7647
14672TIP3    H165507   0.522   1.510  34.265  1.6450  0.4542  1.2657
14672TIP3    H265508   0.425   1.395  34.249  1.0535  1.3617 -2.9819
14673TIP3   OH265509   3.971   0.256  38.703 -0.6156  0.2730 -0.1264
14673TIP3    H165510   4.026   0.233  38.778  1.1461  0.9167 -1.1600
14673TIP3    H265511   3.902   0.189  38.702 -0.3472 -0.0819  1.6980
14674TIP3   OH265512   4.396   0.346   9.089  0.6178 -0.6237 -0.4114
14674TIP3    H165513   4.338   0.420   9.104  0.4316 -0.9323  0.5113
14674TIP3    H265514   4.365   0.306   9.008 -1.9636 -2.1124  1.1504
14675TIP3   OH265515   3.580   0.962   1.003  0.5257 -0.5455 -0.5523
14675TIP3    H165516   3.538   0.980   1.087  1.2767 -1.1310 -0.0375
14675TIP3    H265517   3.592   0.867   1.001  1.8595 -0.4020 -0.6464
14676TIP3   OH265518   2.362   0.974  40.577  0.5383 -0.2068  0.1788
14676TIP3    H165519   2.414   1.020  40.511  1.0807 -1.2787 -0.1708
14676TIP3    H265520   2.376   0.881  40.558  0.1520 -0.5337  1.3863
14677TIP3   OH265521   0.420   3.161   2.621 -0.4957  0.0227  0.2617
14677TIP3    H165522   0.441   3.072   2.648  0.2167  0.0149 -0.2665
14677TIP3    H265523   0.506   3.201   2.605 -0.7512  1.1143  1.4483
14678TIP3   OH265524   0.888   2.358  34.777  0.0913 -0.0779 -0.0133
14678TIP3    H165525   0.924   2.273  34.803  1.1572  0.2879 -0.2703
14678TIP3    H265526   0.818   2.336  34.715 -0.0620 -0.7908  0.3991
14679TIP3   OH265527   3.452   2.789  40.885  0.4955 -0.0570  0.1974
14679TIP3    H165528   3.462   2.838  40.966  0.1887 -2.1344  1.5764
14679TIP3    H265529   3.363   2.754  40.889 -0.2678  1.3858 -2.0361
14680TIP3   OH265530   0.887   0.903   3.993 -0.2715 -0.3630  0.3835
14680TIP3    H165531   0.868   0.868   3.906 -3.0411  1.8908 -0.0667
14680TIP3    H265532   0.936   0.983   3.977  1.8313 -1.4432  1.1324
14681TIP3   OH265533   3.185   2.041  10.271 -0.4023  0.0084  0.0997
14681TIP3    H165534   3.190   2.084  10.186 -0.1458 -0.1276  0.0467
14681TIP3    H265535   3.168   1.949  10.251  0.0731 -0.0981  0.1832
14682TIP3   OH265536   3.346   0.462  32.802  0.6097 -0.3966 -0.0529
14682TIP3    H165537   3.400   0.438  32.726  1.3609  1.5371 -0.1596
14682TIP3    H265538   3.256   0.465  32.767  0.7475 -1.0607 -0.4786
14683TIP3   OH265539   3.405   0.956   1.204 -0.3613 -1.0957  0.2908
14683TIP3    H165540   3.360   0.930   1.124  0.7391 -2.7168  0.1523
14683TIP3    H265541   3.338   0.998   1.257 -0.7957  1.4623 -2.0604
14684TIP3   OH265542   4.095   0.174  35.618 -0.0078  0.3475 -0.1301
14684TIP3    H165543   4.180   0.187  35.578 -0.4278 -0.4779 -1.3462
14684TIP3    H265544   4.085   0.247  35.678  1.0193  1.1474 -0.9017
14685TIP3   OH265545   1.617   2.640   9.302  0.0737  0.1621  0.1198
14685TIP3    H165546   1.637   2.729   9.329  1.8459  0.1694 -1.0860
14685TIP3    H265547   1.521   2.638   9.297 -0.0720  1.5497  1.5229
14686TIP3   OH265548   0.565   1.782  13.801  0.1023 -0.3777  0.6005
14686TIP3    H165549   0.639   1.733  13.837 -0.4289 -1.1287  0.6997
14686TIP3    H265550   0.532   1.834  13.874  1.3692  1.0483  0.2193
14687TIP3   OH265551   0.398   0.109  31.962  0.5367 -0.3565 -0.3988
14687TIP3    H165552   0.388   0.148  32.048  1.4284 -1.4302  0.2338
14687TIP3    H265553   0.484   0.066  31.966 -0.0209 -1.6341 -1.3087
14688TIP3   OH265554   3.492   2.873  28.921  0.0770  0.0259 -0.1216
14688TIP3    H165555   3.532   2.960  28.923  1.5618 -0.5926 -1.3778
14688TIP3    H265556   3.423   2.880  28.854 -2.0956  1.0977  2.0586
14689TIP3   OH265557   2.827   0.453  31.760 -0.4182  0.3488 -0.3178
14689TIP3    H165558   2.771   0.510  31.707  0.7374 -0.1319 -2.1272
14689TIP3    H265559   2.897   0.510  31.791 -0.4925  0.3881 -0.2207
14690TIP3   OH265560   0.212   3.360  13.238  0.1495 -0.6464 -0.1114
14690TIP3    H165561   0.125   3.399  13.244  1.1364  1.4698  1.6689
14690TIP3    H265562   0.205   3.299  13.164 -2.4412  0.4219 -0.8782
14691TIP3   OH265563   0.627   3.392  12.827  0.2754 -0.2892 -0.0933
14691TIP3    H165564   0.562   3.350  12.882 -0.7073  1.3061  0.0466
14691TIP3    H265565   0.603   3.366  12.738 -0.2489 -0.1580  0.0012
14692TIP3   OH265566   4.331   1.555  36.780  0.2140  0.2902  0.4868
14692TIP3    H165567   4.281   1.507  36.845 -0.6764  0.9619  0.3198
14692TIP3    H265568   4.301   1.520  36.696  0.3871  0.3482  0.4026
14693TIP3   OH265569   0.795   0.627  17.330  0.0838  0.2434 -0.8710
14693TIP3    H165570   0.808   0.535  17.352 -1.1829  0.1764 -0.3540
14693TIP3    H265571   0.852   0.674  17.390 -1.3181 -0.0860  0.7947
14694TIP3   OH265572   3.522   1.585  31.946 -0.2672  0.3519  0.1720
14694TIP3    H165573   3.523   1.675  31.978 -0.8929  0.0086  1.1788
14694TIP3    H265574   3.610   1.552  31.963 -0.5280  0.2449  1.3348
14695TIP3   OH265575   0.951   0.438   7.424 -0.2411 -0.2493 -0.3032
14695TIP3    H165576   1.016   0.480   7.480  0.1835 -0.0770 -0.9160
14695TIP3    H265577   0.869   0.447   7.472  0.3728 -1.6098  1.1131
14696TIP3   OH265578   1.114   1.265  17.078 -0.0052 -0.2982  0.2284
14696TIP3    H165579   1.021   1.249  17.067  0.2604 -0.2802 -2.9838
14696TIP3    H265580   1.157   1.182  17.057  0.7603  0.2772 -0.5828
14697TIP3   OH265581   0.093   3.049   7.182 -0.2696 -0.5182  0.0255
14697TIP3    H165582   0.088   3.144   7.181 -0.9567 -0.5488 -0.2922
14697TIP3    H265583   0.144   3.028   7.260 -0.2816  0.1045  0.2026
14698TIP3   OH265584   2.668   3.314   8.690 -0.3545  0.1546  0.3420
14698TIP3    H165585   2.682   3.389   8.632 -0.6913 -0.8094 -1.0322
14698TIP3    H265586   2.741   3.318   8.753 -0.6965  1.9398  0.6696
14699TIP3   OH265587   0.147   2.859  36.023  0.5484  0.6310 -0.2297
14699TIP3    H165588   0.060   2.863  35.983 -0.2526 -0.0614  1.3568
14699TIP3    H265589   0.142   2.786  36.085  2.7002 -0.3140 -1.0658
14700TIP3   OH265590   0.939   3.360   7.686 -0.5741  0.1128 -0.7197
14700TIP3    H165591   0.892   3.323   7.611  0.2710 -0.9320 -0.7474
14700TIP3    H265592   0.941   3.454   7.668 -2.7623  0.2182 -0.6436
14701TIP3   OH265593   1.477   1.834  12.849 -0.1687 -0.0088  0.1583
14701TIP3    H165594   1.510   1.790  12.771  1.7030 -1.2761  1.5781
14701TIP3    H265595   1.414   1.773  12.887  0.0010 -0.0325  0.4050
14702TIP3   OH265596   0.196   2.037  38.059  0.3279 -0.1299  0.0257
14702TIP3    H165597   0.191   1.997  37.972  0.5400  1.0798 -0.5702
14702TIP3    H265598   0.167   2.128  38.045  1.4546  0.4088  0.9917
14703TIP3   OH265599   0.266   1.500   6.352 -0.0480  0.2227  0.4097
14703TIP3    H165600   0.301   1.507   6.440 -0.3074 -0.1384  0.5439
14703TIP3    H265601   0.224   1.414   6.349 -0.1641  0.2882 -0.0187
14704TIP3   OH265602   3.419   2.527  40.419  0.2647 -0.1418  0.3148
14704TIP3    H165603   3.365   2.594  40.460 -1.1590 -1.6914  1.1137
14704TIP3    H265604   3.360   2.453  40.405  1.9452 -1.5766  0.3077
14705TIP3   OH265605   0.476   1.258  39.964  0.2577  0.3502 -0.1810
14705TIP3    H165606   0.509   1.339  40.005 -0.5071 -0.9652  3.3734
14705TIP3    H265607   0.392   1.284  39.926  0.3424  1.3838  0.2860
14706TIP3   OH265608   2.481   0.974   4.272  0.2370 -0.3394 -0.0896
14706TIP3    H165609   2.542   0.901   4.283  0.2458 -0.4117 -0.5811
14706TIP3    H265610   2.517   1.024   4.198  0.6113  0.5506  0.6666
14707TIP3   OH265611   1.321   1.208  37.231 -0.1123  0.0003 -0.2974
14707TIP3    H165612   1.360   1.289  37.197  0.8009 -1.3929 -2.8101
14707TIP3    H265613   1.231   1.211  37.201 -0.2425  0.3332  0.1130
14708TIP3   OH265614   2.318   0.266  27.351  0.0012  0.4097 -0.3038
14708TIP3    H165615   2.225   0.250  27.371 -0.4386  1.1965 -1.5712
14708TIP3    H265616   2.358   0.180  27.353 -0.5645  0.1644  1.1723
14709TIP3   OH265617   1.524   1.835  11.065 -0.2145 -0.0774 -0.1520
14709TIP3    H165618   1.503   1.894  11.137 -0.4226  0.2112 -0.4459
14709TIP3    H265619   1.456   1.852  11.000 -0.5498 -0.9702 -0.0541
14710TIP3   OH265620   2.824   1.991   9.710 -0.2383  0.2865  0.0484
14710TIP3    H165621   2.914   1.995   9.745  0.6243 -1.3435 -1.7904
14710TIP3    H265622   2.791   1.906   9.740 -1.1877  0.8816  0.7125
14711TIP3   OH265623   0.939   1.415  28.999 -0.5674  0.1576 -0.2331
14711TIP3    H165624   0.967   1.504  28.976  2.4338 -0.7724 -0.5934
14711TIP3    H265625   0.954   1.365  28.919  0.7905 -1.2539  0.8558
14712TIP3   OH265626   4.326   3.569   6.094 -0.3802  0.4576  0.2778
14712TIP3    H165627   4.377   3.577   6.013  1.0521  0.5689  1.1567
14712TIP3    H265628   4.375   3.621   6.158 -1.0777 -0.2472  1.4066
14713TIP3   OH265629   2.815   3.587  34.930 -0.1331  0.0661 -0.1803
14713TIP3    H165630   2.771   3.532  34.865 -1.1723  0.9580 -0.2462
14713TIP3    H265631   2.751   3.654  34.953  0.9147  0.9291  0.3116
14714TIP3   OH265632   3.733   0.640  10.185  0.0113 -0.1123  0.0884
14714TIP3    H165633   3.748   0.733  10.202  0.8517 -0.4135  1.0342
14714TIP3    H265634   3.639   0.628  10.200  0.2732  0.1376  2.2565
14715TIP3   OH265635   3.190   3.414   9.472 -0.9665 -0.3077 -0.7402
14715TIP3    H165636   3.145   3.439   9.552  1.9407 -1.2424  1.3677
14715TIP3    H265637   3.205   3.320   9.481 -0.3510 -0.3869 -2.2670
14716TIP3   OH265638   1.402   3.621   5.785  0.1575 -0.1645  0.0295
14716TIP3    H165639   1.456   3.621   5.706  0.1456 -3.1930 -0.0769
14716TIP3    H265640   1.463   3.600   5.856  0.1678  2.5224  0.9274
14717TIP3   OH265641   1.303   0.071   8.446  0.1644 -0.1565 -0.0439
14717TIP3    H165642   1.297  -0.022   8.429 -1.6780 -0.8089  3.1454
14717TIP3    H265643   1.387   0.083   8.489 -0.0940 -0.6065  0.6040
14718TIP3   OH265644   0.297   1.320  41.091  0.0410 -0.1343  0.0109
14718TIP3    H165645   0.358   1.379  41.137 -2.2109  1.8761  0.6266
14718TIP3    H265646   0.296   1.352  41.001  0.3103 -0.5676 -0.1533
14719TIP3   OH265647   1.024   3.449  17.639 -0.0188  0.2848  0.3984
14719TIP3    H165648   0.940   3.463  17.682 -1.5717 -0.5698 -2.1058
14719TIP3    H265649   1.042   3.356  17.651  0.7246  0.5103  1.1212
14720TIP3   OH265650   3.380   1.013  33.944  0.4170 -0.3253 -0.2478
14720TIP3    H165651   3.470   1.046  33.940  0.4453 -0.4715 -1.1052
14720TIP3    H265652   3.338   1.067  34.011  1.2089 -0.4360  0.3575
14721TIP3   OH265653   3.590   2.589  39.913 -0.6981 -0.2100 -0.3623
14721TIP3    H165654   3.628   2.502  39.900 -1.4236 -1.0037  2.1073
14721TIP3    H265655   3.666   2.647  39.925 -0.1849 -1.1020  0.9660
14722TIP3   OH265656   1.128   2.255   7.967 -0.8612  0.7239 -0.0101
14722TIP3    H165657   1.214   2.274   7.929 -0.8505 -0.0872 -0.4342
14722TIP3    H265658   1.083   2.339   7.970  0.6488  1.5638  2.0745
14723TIP3   OH265659   3.845   0.489   2.506  0.1716  0.0118 -0.2450
14723TIP3    H165660   3.765   0.489   2.453 -0.1648 -0.7320  0.2656
14723TIP3    H265661   3.818   0.524   2.591  0.0182 -1.7276  0.4625
14724TIP3   OH265662   2.350   1.301  41.150 -1.1622 -0.2682  0.4252
14724TIP3    H165663   2.383   1.382  41.111 -0.0012 -0.3589  1.1667
14724TIP3    H265664   2.341   1.321  41.243 -0.3828 -1.1284  0.7013
14725TIP3   OH265665   2.810   0.118  37.215  0.3289 -0.0621  0.2289
14725TIP3    H165666   2.820   0.025  37.194 -3.0272 -0.3257 -0.7048
14725TIP3    H265667   2.744   0.121  37.284 -1.3460  1.6612 -1.3365
14726TIP3   OH265668   1.752   2.775  34.107 -0.4984 -0.3161 -0.1150
14726TIP3    H165669   1.723   2.739  34.191 -0.4739 -0.3549 -0.1228
14726TIP3    H265670   1.764   2.868  34.123  0.7266 -0.5141  0.2607
14727TIP3   OH265671   2.880   1.089  28.495 -0.0757 -0.4843  0.6932
14727TIP3    H165672   2.845   1.009  28.455  2.3960 -1.0623 -0.4636
14727TIP3    H265673   2.945   1.121  28.432  1.2291  0.7089  2.5618
14728TIP3   OH265674   2.871   2.532   3.064 -0.0454 -0.5100 -0.1515
14728TIP3    H165675   2.901   2.507   3.151  1.7453 -0.9166 -0.8367
14728TIP3    H265676   2.948   2.571   3.022 -1.4393  1.7225 -0.8206
14729TIP3   OH265677   4.264   3.508  36.681 -0.6307 -0.2624 -0.4459
14729TIP3    H165678   4.267   3.556  36.764 -0.5838 -0.7537 -0.1603
14729TIP3    H265679   4.242   3.419  36.706 -0.9119 -0.3520 -0.9938
14730TIP3   OH265680   0.021   2.842  39.559  0.4063 -0.4350 -0.2161
14730TIP3    H165681   0.112   2.865  39.538  0.3799 -0.8435 -0.7895
14730TIP3    H265682   0.028   2.761  39.609  0.4890  0.6548  1.6652
14731TIP3   OH265683   2.796   1.645  33.253 -0.1289 -0.1772 -0.5826
14731TIP3    H165684   2.799   1.661  33.159  2.1838 -1.0745 -0.7300
14731TIP3    H265685   2.750   1.562  33.261 -2.4397  1.0038 -0.6613
14732TIP3   OH265686   3.816   2.671   6.024  0.4219  0.1040 -0.0369
14732TIP3    H165687   3.826   2.765   6.038 -1.3687  0.3341 -0.0690
14732TIP3    H265688   3.751   2.644   6.088  1.8446 -1.3995  0.8536
14733TIP3   OH265689   4.354   4.075  33.767  0.5842 -0.6276  0.5419
14733TIP3    H165690   4.300   4.137  33.817 -0.6863  0.1314 -1.6266
14733TIP3    H265691   4.339   3.991  33.810 -1.6965 -0.2827  0.5754
14734TIP3   OH265692   1.454   2.184  10.558  0.0261 -0.3915 -0.2505
14734TIP3    H165693   1.531   2.131  10.537 -0.4797 -1.4006  0.3495
14734TIP3    H265694   1.412   2.138  10.631 -0.5259  0.7663  0.1933
14735TIP3   OH265695   2.636   3.316   1.978  0.2590 -0.8519 -0.6281
14735TIP3    H165696   2.704   3.330   2.044 -0.1041  0.9557 -0.5813
14735TIP3    H265697   2.685   3.302   1.897  0.7227  0.4279 -0.5932
14736TIP3   OH265698   3.881   3.743  21.774  0.4638 -0.3841  0.0481
14736TIP3    H165699   3.936   3.695  21.712 -0.1231 -2.9655  1.4024
14736TIP3    H265700   3.942   3.797  21.824  1.2157 -0.0552 -1.1797
14737TIP3   OH265701   1.251   1.614  40.799 -0.4990  0.4726 -0.4040
14737TIP3    H165702   1.233   1.557  40.873 -1.2007  0.9141 -0.2180
14737TIP3    H265703   1.185   1.590  40.733  0.5475 -0.3848 -1.1604
14738TIP3   OH265704   0.312   2.118  41.060 -0.4559  0.2814 -0.2198
14738TIP3    H165705   0.286   2.075  41.141 -1.5360 -0.3965 -0.9058
14738TIP3    H265706   0.403   2.092  41.047 -1.1343 -2.0502 -0.7353
14739TIP3   OH265707   3.706   4.196   6.302  0.6553 -0.5056 -0.6566
14739TIP3    H165708   3.707   4.101   6.306  0.5469 -0.4853  0.1058
14739TIP3    H265709   3.713   4.217   6.209 -0.1245 -1.2660 -0.8970
14740TIP3   OH265710   4.006   0.642   4.287  1.2153  0.6163  0.1975
14740TIP3    H165711   3.985   0.699   4.213  0.7591  2.6987  1.8238
14740TIP3    H265712   3.930   0.649   4.344  2.4667  0.9327  1.9172
14741TIP3   OH265713   1.053   2.880  29.414  0.8989 -0.8303  0.2204
14741TIP3    H165714   1.049   2.810  29.479 -0.2227 -1.2325 -0.2693
14741TIP3    H265715   1.145   2.882  29.387  1.2585 -1.0563  1.3613
14742TIP3   OH265716   2.469   0.942   4.779  0.0498 -0.1670  0.0957
14742TIP3    H165717   2.390   0.896   4.751  0.4465 -0.5466 -0.4267
14742TIP3    H265718   2.463   1.027   4.735 -0.1071 -0.1642  0.1212
14743TIP3   OH265719   0.845   2.685   3.376 -0.2623 -0.8286  0.1118
14743TIP3    H165720   0.765   2.683   3.323 -0.1929 -0.2628 -0.0166
14743TIP3    H265721   0.826   2.747   3.446  0.5367  0.3645 -0.6927
14744TIP3   OH265722   0.139   3.150   7.791 -0.2331  0.1089 -0.0321
14744TIP3    H165723   0.109   3.073   7.743 -0.6618  0.7712 -0.8625
14744TIP3    H265724   0.077   3.219   7.766 -0.2588  0.5693  1.2148
14745TIP3   OH265725   0.989   3.193  26.799  0.3259  0.0829 -0.8473
14745TIP3    H165726   1.065   3.205  26.856  1.2965 -2.1293 -1.5786
14745TIP3    H265727   0.926   3.146  26.852 -0.0156  0.7501 -0.6548
14746TIP3   OH265728   0.572   4.174  40.814 -0.0942  0.0173 -0.3056
14746TIP3    H165729   0.664   4.149  40.822 -0.4316 -1.0314  0.5959
14746TIP3    H265730   0.525   4.106  40.862 -1.2777  1.0258 -0.0043
14747TIP3   OH265731   1.973   1.834  14.604 -0.2502  0.4543 -0.3356
14747TIP3    H165732   2.017   1.833  14.689  1.9108  2.4254 -1.3111
14747TIP3    H265733   1.895   1.888  14.617 -0.3741  0.0591  0.5739
14748TIP3   OH265734   1.911   0.014   7.673  0.2813  0.0858  0.7307
14748TIP3    H165735   1.874  -0.073   7.688  0.1164  0.2703  1.4190
14748TIP3    H265736   1.863   0.072   7.732 -0.2999  0.8260 -0.4232
14749TIP3   OH265737   0.634   1.274  13.375  0.4693 -0.1738 -0.5143
14749TIP3    H165738   0.656   1.312  13.461  0.8984  0.8079 -1.0349
14749TIP3    H265739   0.680   1.190  13.373  1.2797  0.2490 -0.1687
14750TIP3   OH265740   0.552   3.442  38.642  0.3436 -0.0556  0.0863
14750TIP3    H165741   0.629   3.418  38.692  0.4211 -0.0001 -0.0059
14750TIP3    H265742   0.484   3.381  38.671 -0.0702  0.9859  1.4301
14751TIP3   OH265743   2.201   1.574  41.211 -0.6186 -0.2045  0.2481
14751TIP3    H165744   2.247   1.568  41.127 -0.2255 -2.1892  0.5632
14751TIP3    H265745   2.235   1.654  41.251 -0.7092  0.7023 -1.3951
14752TIP3   OH265746   1.933   4.039  40.049  0.1220 -0.7957 -0.1492
14752TIP3    H165747   1.898   3.966  40.101  2.8567 -2.5453 -0.5532
14752TIP3    H265748   1.897   4.117  40.091 -0.8306 -2.2662  1.9800
14753TIP3   OH265749   3.846   3.028  37.996  0.9345 -0.0669 -0.4497
14753TIP3    H165750   3.798   2.985  37.925 -0.5042  0.4215  0.1965
14753TIP3    H265751   3.878   2.955  38.049  1.2745 -0.4119 -1.1060
14754TIP3   OH265752   2.206   1.047   4.917 -0.6997 -0.0263 -0.0374
14754TIP3    H165753   2.265   1.122   4.911  1.7391 -1.7322  1.0947
14754TIP3    H265754   2.162   1.044   4.832  1.8318  0.5898 -1.4824
14755TIP3   OH265755   2.701   0.025  40.274  0.3428  0.4461 -0.2638
14755TIP3    H165756   2.618   0.031  40.227  0.8375  0.3268 -1.1778
14755TIP3    H265757   2.767   0.013  40.206  1.0464 -0.1149  0.4873
14756TIP3   OH265758   0.880   0.304   3.089 -0.1732 -0.6877  0.0775
14756TIP3    H165759   0.834   0.376   3.045 -0.6636 -1.2424 -0.3465
14756TIP3    H265760   0.878   0.327   3.182 -0.4919 -0.2440 -0.0336
14757TIP3   OH265761   0.605   3.569  25.733  0.0727 -0.4389 -0.5945
14757TIP3    H165762   0.591   3.663  25.722  2.1979 -0.0426 -0.3350
14757TIP3    H265763   0.576   3.551  25.822 -1.0855 -0.2246 -0.9025
14758TIP3   OH265764   3.915   2.731  27.452  0.1219  0.0943  0.5130
14758TIP3    H165765   3.909   2.762  27.362  0.9282  1.0899  0.7840
14758TIP3    H265766   3.865   2.794  27.503 -0.7354 -0.7277  0.7285
14759TIP3   OH265767   3.990   0.320   3.969  0.5384  0.2490  0.2918
14759TIP3    H165768   4.062   0.277   4.015  0.7793  0.1362 -0.1900
14759TIP3    H265769   4.012   0.312   3.876 -0.0704  0.2550  0.1447
14760TIP3   OH265770   3.313   3.130   5.966 -0.3918  0.2674 -0.2019
14760TIP3    H165771   3.297   3.170   6.051 -0.5640 -0.7196  0.2375
14760TIP3    H265772   3.408   3.132   5.955 -0.3581  0.2259  0.0956
14761TIP3   OH265773   0.388   3.892  11.060 -0.2590  0.2097  0.3300
14761TIP3    H165774   0.361   3.801  11.074 -0.3950  0.2604  0.3921
14761TIP3    H265775   0.324   3.926  10.997 -0.0282  0.1720  0.0710
14762TIP3   OH265776   0.043   4.254   7.482  0.1438 -0.7458 -0.2006
14762TIP3    H165777   0.092   4.252   7.400 -0.1058 -0.3231 -0.3590
14762TIP3    H265778   0.047   4.345   7.510  1.2238 -1.0854  0.8578
14763TIP3   OH265779   1.399   1.759  15.562  0.0421  0.2563  0.2240
14763TIP3    H165780   1.464   1.749  15.493  0.4341  1.3826  0.4093
14763TIP3    H265781   1.389   1.671  15.599  1.2391  0.0107 -0.0029
14764TIP3   OH265782   1.495   0.055  36.929 -0.0110  0.1413  0.7479
14764TIP3    H165783   1.507   0.050  36.835 -1.9104  2.0382  0.3182
14764TIP3    H265784   1.575   0.095  36.962  0.5312 -0.2466 -0.0755
14765TIP3   OH265785   0.862   2.463  30.194 -0.0950  0.1280 -0.1303
14765TIP3    H165786   0.811   2.478  30.274  0.5547 -1.6407  0.6796
14765TIP3    H265787   0.953   2.472  30.221  0.1080  2.1926 -1.3252
14766TIP3   OH265788   0.950   3.855  17.274 -1.0276  0.9944 -0.4104
14766TIP3    H165789   0.930   3.796  17.202  1.2725 -1.0774  0.4896
14766TIP3    H265790   0.965   3.797  17.349  0.9371  2.7277  0.6360
14767TIP3   OH265791   0.158   1.144   3.921 -0.0685  0.1835 -0.0093
14767TIP3    H165792   0.095   1.094   3.870 -0.5006  1.4147 -0.6903
14767TIP3    H265793   0.110   1.171   3.999 -0.0270  0.1359  0.0338
14768TIP3   OH265794   1.082   0.744   3.650  0.1640  0.2861  0.5278
14768TIP3    H165795   1.168   0.751   3.690  0.8253 -1.6560 -0.4155
14768TIP3    H265796   1.028   0.701   3.716  0.6484 -0.8735  0.1907
14769TIP3   OH265797   4.125   3.658  23.440 -1.2280 -0.1923  0.5663
14769TIP3    H165798   4.054   3.697  23.389 -1.6369  0.7498  1.8025
14769TIP3    H265799   4.081   3.594  23.497 -0.5272 -2.9056 -1.7077
14770TIP3   OH265800   1.799   1.706  37.792  0.1516 -0.6409 -0.0131
14770TIP3    H165801   1.738   1.737  37.726 -0.0687  1.4072  1.0545
14770TIP3    H265802   1.885   1.734  37.761  0.2677 -1.2800 -0.2864
14771TIP3   OH265803   2.950   3.179  35.236 -0.0838 -0.3149 -0.6559
14771TIP3    H165804   2.934   3.087  35.218  1.0684 -0.4823 -0.9240
14771TIP3    H265805   2.908   3.195  35.321  1.1600 -1.5575  0.2521
14772TIP3   OH265806   1.505   2.271   7.704 -0.2732 -0.1010 -0.1960
14772TIP3    H165807   1.416   2.239   7.714 -1.2426  1.1699 -3.3743
14772TIP3    H265808   1.550   2.200   7.657  0.1847 -0.4102  0.6920
14773TIP3   OH265809   1.569   1.407   9.474 -0.5864 -0.3645  0.3809
14773TIP3    H165810   1.663   1.394   9.460 -0.4095  0.2250  0.9882
14773TIP3    H265811   1.564   1.466   9.549 -1.4086  0.7722 -0.5364
14774TIP3   OH265812   3.052   3.343  35.715 -0.5197 -0.1091  0.3124
14774TIP3    H165813   3.128   3.298  35.680 -1.0803  0.1354 -1.3236
14774TIP3    H265814   3.068   3.349  35.809  1.7296  0.4327 -0.0547
14775TIP3   OH265815   0.809   0.206   1.230 -0.7193  0.1679 -0.0083
14775TIP3    H165816   0.715   0.192   1.222 -0.6915 -1.0673  1.5176
14775TIP3    H265817   0.833   0.163   1.312  0.9097  1.8397  0.4473
14776TIP3   OH265818   3.984   2.814  29.109  0.0837  0.6242 -0.1772
14776TIP3    H165819   4.025   2.900  29.108  1.9057 -0.1757 -2.3859
14776TIP3    H265820   4.049   2.757  29.150  0.9030 -0.4766 -2.8280
14777TIP3   OH265821   0.541   3.082  10.504 -0.3960 -0.3687  0.6677
14777TIP3    H165822   0.454   3.044  10.497 -0.6959  0.5242 -1.5514
14777TIP3    H265823   0.528   3.163  10.553 -1.0329  0.2370 -0.4543
14778TIP3   OH265824   2.589   0.632   1.391  0.7401 -0.1734  0.1135
14778TIP3    H165825   2.628   0.649   1.477  0.1108  0.1884  0.3359
14778TIP3    H265826   2.576   0.719   1.354  2.1379 -0.3542 -0.8767
14779TIP3   OH265827   0.361   1.721  22.195 -0.0015  0.3676  0.3677
14779TIP3    H165828   0.348   1.758  22.107  1.2383  0.3684  0.1662
14779TIP3    H265829   0.445   1.757  22.223 -1.2304  1.8865  2.3496
14780TIP3   OH265830   1.582   2.571  12.533 -0.1774  0.1073 -0.6336
14780TIP3    H165831   1.537   2.608  12.609  0.0750 -0.4612 -0.1967
14780TIP3    H265832   1.537   2.609  12.457 -0.7452  0.3121 -0.2015
14781TIP3   OH265833   0.387   1.013  27.078 -0.0139 -0.2042  0.2912
14781TIP3    H165834   0.342   1.036  26.996  0.7312 -0.7836 -0.3028
14781TIP3    H265835   0.361   1.081  27.140 -1.6548 -0.4857 -0.0409
14782TIP3   OH265836   4.396   4.341  32.344 -0.3338 -0.2835 -0.0876
14782TIP3    H165837   4.457   4.386  32.402 -1.3964  0.1982  0.6922
14782TIP3    H265838   4.373   4.261  32.390 -0.6961 -0.2046 -0.1279
14783TIP3   OH265839   3.381   2.934  29.413 -0.6995  0.2443  0.0513
14783TIP3    H165840   3.447   3.003  29.418 -1.4542  1.1519 -1.7350
14783TIP3    H265841   3.414   2.874  29.346 -0.6498 -0.4812  0.7131
14784TIP3   OH265842   3.317   1.918   1.896 -0.7431 -0.1020  0.2297
14784TIP3    H165843   3.332   1.824   1.900 -0.8621 -0.2380 -1.7022
14784TIP3    H265844   3.374   1.948   1.824 -0.3395  1.3861  1.1293
14785TIP3   OH265845   0.000   1.390  34.251 -0.0856  0.2241 -0.5389
14785TIP3    H165846  -0.012   1.297  34.272  0.5255  0.3861  0.6312
14785TIP3    H265847  -0.012   1.435  34.335  0.7377  1.0867 -0.8632
14786TIP3   OH265848   0.250   0.370   8.545 -0.9185 -0.3948 -0.4556
14786TIP3    H165849   0.312   0.304   8.577 -1.1191 -0.1552  0.4832
14786TIP3    H265850   0.166   0.325   8.544 -0.9016 -0.4183 -0.7008
14787TIP3   OH265851   1.296   4.150   4.778  0.4173 -0.0609 -0.1969
14787TIP3    H165852   1.363   4.127   4.714 -0.4668 -1.3781 -0.6824
14787TIP3    H265853   1.226   4.087   4.763 -0.7916  1.0638  0.5249
14788TIP3   OH265854   0.398   1.709  33.105 -0.1224  0.0961 -0.4404
14788TIP3    H165855   0.419   1.722  33.012  2.3167  1.1291  0.1925
14788TIP3    H265856   0.482   1.714  33.150 -1.1853 -0.8824  1.8114
14789TIP3   OH265857   1.281   1.209   2.216  0.3573  0.0065  0.5804
14789TIP3    H165858   1.292   1.277   2.283 -0.0032  1.5479 -0.8526
14789TIP3    H265859   1.187   1.204   2.203  0.4788  0.5449 -0.5911
14790TIP3   OH265860   3.582   3.906  33.082  0.5082  0.2391 -0.0848
14790TIP3    H165861   3.635   3.932  33.006  0.4824  0.8061  0.0943
14790TIP3    H265862   3.494   3.894  33.047  1.0260 -2.4157 -0.7547
14791TIP3   OH265863   3.872   2.043  10.870  0.2346  0.8234  0.3567
14791TIP3    H165864   3.906   2.130  10.847 -0.3547  1.3743  1.4870
14791TIP3    H265865   3.945   1.984  10.852  0.3257  1.3890 -1.3919
14792TIP3   OH265866   0.567   3.846  31.305 -0.4306 -0.3017  0.3960
14792TIP3    H165867   0.643   3.792  31.326 -0.4580 -0.8409 -0.8043
14792TIP3    H265868   0.492   3.795  31.335 -0.4301 -0.7475 -0.3362
14793TIP3   OH265869   0.995   3.823   1.358  0.0174 -0.0527 -0.7161
14793TIP3    H165870   1.040   3.743   1.384 -2.4734 -1.7677 -1.3102
14793TIP3    H265871   0.947   3.799   1.279 -1.0129  1.9769 -0.7708
14794TIP3   OH265872   0.973   2.334   1.364 -0.1877  0.2071 -0.0397
14794TIP3    H165873   0.934   2.284   1.292  0.5939 -1.4582  0.6691
14794TIP3    H265874   0.975   2.274   1.438 -0.6153  1.7675  1.3016
14795TIP3   OH265875   1.412   2.959   7.605 -0.2142  0.1754 -0.5925
14795TIP3    H165876   1.335   3.007   7.575  0.7570  0.8453 -2.1167
14795TIP3    H265877   1.440   2.909   7.528  0.6321 -0.3927  0.0709
14796TIP3   OH265878   2.984   2.417   6.571  0.0470  0.3662  0.1017
14796TIP3    H165879   3.009   2.332   6.534 -2.0634  0.3815 -1.6048
14796TIP3    H265880   3.059   2.474   6.555  2.2960 -1.5064  2.9438
14797TIP3   OH265881   2.157   3.823  10.481 -0.1806  0.2732 -0.4992
14797TIP3    H165882   2.103   3.746  10.462  2.2768 -1.2338 -1.8658
14797TIP3    H265883   2.237   3.788  10.519  0.9921  2.1653 -1.0896
14798TIP3   OH265884   0.288   0.813  27.383  0.1833  0.1293 -0.3172
14798TIP3    H165885   0.337   0.731  27.376  0.3067  0.2488 -0.9347
14798TIP3    H265886   0.203   0.787  27.419 -0.1632 -0.4384 -1.4703
14799TIP3   OH265887   2.700   0.280  28.169  0.3517 -0.2569  0.1327
14799TIP3    H165888   2.616   0.261  28.126  0.1683  1.4434 -0.3425
14799TIP3    H265889   2.759   0.211  28.139 -0.7540 -1.2120  0.1056
14800TIP3   OH265890   4.236   0.830   2.306  0.1772 -0.0914  0.8851
14800TIP3    H165891   4.264   0.903   2.361  0.9005 -0.7167  1.3661
14800TIP3    H265892   4.177   0.778   2.361  1.5857 -1.1972  1.4071
14801TIP3   OH265893   0.985   0.554  12.492  0.1868 -0.3624  0.3210
14801TIP3    H165894   1.077   0.542  12.467  0.2021 -1.0575  0.6977
14801TIP3    H265895   0.950   0.465  12.498 -0.7715 -0.0886 -0.7750
14802TIP3   OH265896   3.896   1.743  33.558  0.7702 -0.0180 -0.0509
14802TIP3    H165897   3.911   1.702  33.473  3.7603  1.7288 -0.5260
14802TIP3    H265898   3.963   1.706  33.614 -0.3069 -0.1304  1.2044
14803TIP3   OH265899   0.664   4.257  36.945 -0.3709 -0.6775 -0.2405
14803TIP3    H165900   0.668   4.292  37.034 -0.8846  1.1447 -0.8788
14803TIP3    H265901   0.754   4.262  36.913 -0.3783 -0.2499 -0.1999
14804TIP3   OH265902   0.828   3.338   3.147  0.0809  0.2075 -0.2217
14804TIP3    H165903   0.864   3.365   3.231 -1.8329 -0.5055  0.8776
14804TIP3    H265904   0.857   3.247   3.137 -0.0542  0.1558 -0.1361
14805TIP3   OH265905   1.096   0.616   6.456  0.8215 -0.2755  0.1597
14805TIP3    H165906   1.160   0.686   6.469 -0.5277  1.4731 -1.9051
14805TIP3    H265907   1.147   0.544   6.419  1.7950  0.7389 -0.5511
14806TIP3   OH265908   2.283   1.337  12.165 -0.5669  0.5804 -0.0530
14806TIP3    H165909   2.307   1.362  12.255 -0.7045 -0.2785  0.2327
14806TIP3    H265910   2.241   1.252  12.175 -0.8775  0.6308 -0.9067
14807TIP3   OH265911   0.476   0.732  39.781  0.4317 -0.9089 -0.5534
14807TIP3    H165912   0.400   0.725  39.723 -2.0614 -1.0077  2.4701
14807TIP3    H265913   0.494   0.826  39.785 -0.3203 -0.7616 -0.4024
14808TIP3   OH265914   1.816   3.381  30.800  0.2212  0.0088 -0.3133
14808TIP3    H165915   1.875   3.414  30.867  0.2566  0.5322 -0.5985
14808TIP3    H265916   1.742   3.345  30.848  0.8405 -0.7994  0.0572
14809TIP3   OH265917   3.271   2.061  38.762 -0.0803  0.1542 -0.4767
14809TIP3    H165918   3.245   2.146  38.727 -0.4701  0.6998  1.0379
14809TIP3    H265919   3.348   2.079  38.816  0.9560 -0.7766 -1.6052
14810TIP3   OH265920   3.291   4.227  29.471 -0.2791  0.1990 -0.3663
14810TIP3    H165921   3.320   4.284  29.543 -0.9384  0.0746  0.0041
14810TIP3    H265922   3.372   4.187  29.438  0.0943  0.6892 -0.0719
14811TIP3   OH265923   2.829   3.582  36.250  0.1727 -0.1189  0.5764
14811TIP3    H165924   2.795   3.672  36.251 -0.4771 -0.3260 -0.7018
14811TIP3    H265925   2.802   3.546  36.335 -0.6569  0.5088  0.6025
14812TIP3   OH265926   2.540   3.828  36.282 -0.0956  0.4556  0.0034
14812TIP3    H165927   2.597   3.901  36.258  1.0427  0.1612  1.6259
14812TIP3    H265928   2.455   3.850  36.244  0.0618  2.9206  0.9011
14813TIP3   OH265929   2.732   2.346   9.733  0.7026  0.1910 -0.6444
14813TIP3    H165930   2.802   2.307   9.681 -0.7156 -0.8853 -1.8342
14813TIP3    H265931   2.683   2.400   9.671 -0.1894  0.0202 -0.1131
14814TIP3   OH265932   4.247   4.058  28.228 -0.0963 -0.0559  1.0762
14814TIP3    H165933   4.290   3.973  28.226  2.5046  1.1698  0.4177
14814TIP3    H265934   4.274   4.096  28.311 -2.3102 -0.3118  1.9775
14815TIP3   OH265935   1.962   1.173  40.365 -0.1968 -0.1423  0.5877
14815TIP3    H165936   1.955   1.113  40.438  0.1549 -0.5697  0.2749
14815TIP3    H265937   1.918   1.128  40.292 -1.1340  0.5572  0.6938
14816TIP3   OH265938   1.637   0.037  30.130 -0.7728 -0.1328 -0.7364
14816TIP3    H165939   1.607   0.015  30.218  1.4755 -0.7389 -0.0727
14816TIP3    H265940   1.582  -0.016  30.072 -1.2761 -0.8645  0.3704
14817TIP3   OH265941   2.788   1.478   1.541 -0.2716 -0.1075  0.4548
14817TIP3    H165942   2.847   1.473   1.616  1.6025  1.4595 -0.8163
14817TIP3    H265943   2.725   1.546   1.564 -0.2011 -0.1926  0.9072
14818TIP3   OH265944   4.154   0.806  26.275 -0.3762 -0.3600 -0.1062
14818TIP3    H165945   4.086   0.806  26.343 -2.3277  0.7824 -1.9349
14818TIP3    H265946   4.118   0.753  26.205 -0.2833  1.7720 -1.8814
14819TIP3   OH265947   2.798   3.678   8.711  0.0609  0.6038  0.0944
14819TIP3    H165948   2.768   3.768   8.699 -3.5381 -0.3236  0.8779
14819TIP3    H265949   2.822   3.674   8.804  0.4873  0.7914 -0.0035
14820TIP3   OH265950   0.509   0.298  38.507 -0.2420  0.0758 -0.0608
14820TIP3    H165951   0.534   0.300  38.414 -0.5652 -0.8345 -0.1777
14820TIP3    H265952   0.457   0.378  38.519  1.2228  1.0948 -0.2324
14821TIP3   OH265953   3.299   0.596  34.063  0.0101  0.7036  0.4114
14821TIP3    H165954   3.225   0.654  34.045 -2.0437 -1.8494  0.1374
14821TIP3    H265955   3.360   0.613  33.991 -1.6220  0.8366 -1.0043
14822TIP3   OH265956   0.962   1.793  37.943  0.7154 -0.4839 -0.3407
14822TIP3    H165957   1.028   1.725  37.948 -0.1912 -1.3206  0.6941
14822TIP3    H265958   0.955   1.827  38.032  0.1761 -0.0012 -0.5539
14823TIP3   OH265959   3.713   1.662   8.901  0.3279 -0.2299 -0.1172
14823TIP3    H165960   3.749   1.751   8.908  0.5845 -0.2297 -1.2599
14823TIP3    H265961   3.646   1.669   8.834  1.2176 -1.1527 -1.1330
14824TIP3   OH265962   0.252   4.254  36.651 -0.0292 -0.0590 -0.5882
14824TIP3    H165963   0.242   4.311  36.575 -0.9497  0.3883 -0.1454
14824TIP3    H265964   0.326   4.291  36.699 -0.1236  0.2970 -0.7093
14825TIP3   OH265965   2.028   4.176  32.972  0.2164 -0.8029 -0.1227
14825TIP3    H165966   2.042   4.095  33.023  2.8137 -0.8625 -0.7627
14825TIP3    H265967   2.077   4.243  33.021 -0.2187 -0.0730 -0.6773
14826TIP3   OH265968   1.527   3.996  18.049  0.3337  0.4809  0.3689
14826TIP3    H165969   1.561   4.081  18.020  0.0036 -0.0915 -1.8902
14826TIP3    H265970   1.432   4.005  18.044  0.2918  0.0486  0.3712
14827TIP3   OH265971   2.516   1.867  40.081 -0.2920  0.2348  0.2257
14827TIP3    H165972   2.573   1.794  40.108 -1.5777 -1.5616 -1.5850
14827TIP3    H265973   2.452   1.874  40.151  0.5156  0.4282  0.9688
14828TIP3   OH265974   3.790   2.892  27.645 -0.4467 -0.2413 -0.0518
14828TIP3    H165975   3.773   2.904  27.739  0.6644  0.6097  0.0697
14828TIP3    H265976   3.872   2.938  27.630 -0.3036 -0.8772 -1.3396
14829TIP3   OH265977   3.464   4.361  31.950  0.5892 -0.0257 -0.1015
14829TIP3    H165978   3.435   4.442  31.908  0.4416  0.1269  0.2792
14829TIP3    H265979   3.544   4.385  31.997  0.1964  0.0617  0.5362
14830TIP3   OH265980   2.066   0.454  12.789 -0.4304  0.5691 -0.4857
14830TIP3    H165981   2.128   0.527  12.787 -0.5162  0.7511  1.5403
14830TIP3    H265982   2.018   0.465  12.871 -0.7064 -1.5713 -0.2951
14831TIP3   OH265983   3.842   1.536  41.465  0.2920 -0.0367 -0.1075
14831TIP3    H165984   3.861   1.443  41.449  0.0595  0.1549 -1.6176
14831TIP3    H265985   3.860   1.579  41.382 -0.2685  1.1714  0.3749
14832TIP3   OH265986   2.664   3.411  29.937 -0.2735  0.6929  0.5421
14832TIP3    H165987   2.658   3.338  29.998  1.3153  0.4662  0.4730
14832TIP3    H265988   2.574   3.440  29.924 -1.0526 -1.8368 -0.1384
14833TIP3   OH265989   3.378   2.370   1.751 -0.5855 -0.6645  0.3375
14833TIP3    H165990   3.450   2.313   1.776  0.1153 -0.6511 -1.4827
14833TIP3    H265991   3.362   2.349   1.659 -3.4341 -1.1869  0.8830
14834TIP3   OH265992   1.027   1.292  32.815 -0.7548  0.2838  0.1307
14834TIP3    H165993   0.971   1.347  32.870 -2.0729 -2.3468  1.6491
14834TIP3    H265994   0.980   1.284  32.732 -0.6752  1.2000 -0.0051
14835TIP3   OH265995   2.886   3.408  10.184 -0.0440 -0.9768 -0.1023
14835TIP3    H165996   2.905   3.476  10.119 -1.0021  0.1167  0.7101
14835TIP3    H265997   2.872   3.328  10.133  2.0142 -0.8009 -1.0184
14836TIP3   OH265998   4.375   2.255   6.625 -0.3537 -0.0621 -0.2257
14836TIP3    H165999   4.300   2.260   6.566 -1.2581 -0.1604  0.8846
14836TIP3    H266000   4.388   2.346   6.655 -1.6900 -0.3972  1.5507
14837TIP3   OH266001   2.470   4.185  13.343 -0.4955 -0.2430  0.2486
14837TIP3    H166002   2.449   4.178  13.250 -1.8421  2.3005  0.2656
14837TIP3    H266003   2.546   4.243  13.346 -0.4984 -0.2635  0.7186
14838TIP3   OH266004   1.492   4.298  33.066 -0.0139 -0.5020  0.1423
14838TIP3    H166005   1.566   4.310  33.006 -0.2475  2.6006  0.2973
14838TIP3    H266006   1.437   4.232  33.023  0.2678  0.9219 -2.7001
14839TIP3   OH266007   0.736   3.379  29.254 -0.2547  0.2261  0.3022
14839TIP3    H166008   0.821   3.338  29.269 -0.0148 -0.3130 -2.1206
14839TIP3    H266009   0.680   3.308  29.223 -0.0229  1.3850 -3.3445
14840TIP3   OH266010   3.909   1.718   5.016 -0.4041  0.3055  0.3150
14840TIP3    H166011   3.827   1.758   5.044  0.3841  1.3735  1.1729
14840TIP3    H266012   3.945   1.778   4.951  0.8082  1.0844  1.6424
14841TIP3   OH266013   2.430   3.161  31.366 -0.1020  0.6787  0.3347
14841TIP3    H166014   2.476   3.180  31.284  3.0349 -0.0170  1.7869
14841TIP3    H266015   2.378   3.083  31.347 -0.5978  1.3708 -1.3394
14842TIP3   OH266016   4.360   0.619  22.303  0.8556  0.0367 -0.7864
14842TIP3    H166017   4.450   0.640  22.329  0.3409  0.7651  0.5326
14842TIP3    H266018   4.307   0.685  22.347 -0.7582 -3.0173  2.4666
14843TIP3   OH266019   0.559   4.160   7.881 -0.4999  0.0826  0.4107
14843TIP3    H166020   0.580   4.219   7.953  0.5126  0.0016  0.1921
14843TIP3    H266021   0.463   4.157   7.880 -0.5405  0.7516  1.2039
14844TIP3   OH266022   3.492   3.686  33.382  0.1640 -0.4025  0.1982
14844TIP3    H166023   3.496   3.627  33.457 -0.4454 -0.1339  0.4432
14844TIP3    H266024   3.573   3.669  33.334 -0.3723 -2.0400 -0.1791
14845TIP3   OH266025   1.672   4.390  15.301 -0.1876 -0.7394  0.0998
14845TIP3    H166026   1.736   4.342  15.249  0.3528 -0.2963  0.3470
14845TIP3    H266027   1.722   4.461  15.342 -0.8565 -0.3017  0.1852
14846TIP3   OH266028   2.746   0.997  37.652 -0.5853 -0.2887 -0.6741
14846TIP3    H166029   2.682   0.926  37.657  1.1751 -1.8786  1.5019
14846TIP3    H266030   2.798   0.988  37.732  1.7404  1.4941 -1.8580
14847TIP3   OH266031   0.278   0.738  10.650  0.1674 -0.0890  0.0190
14847TIP3    H166032   0.303   0.798  10.580 -2.1455 -0.8827 -1.5991
14847TIP3    H266033   0.361   0.699  10.678  1.1693  0.0761 -2.4498
14848TIP3   OH266034   3.518   2.171   1.157 -0.0392  0.5327 -0.2726
14848TIP3    H166035   3.482   2.089   1.123 -0.9685  0.3518  1.0656
14848TIP3    H266036   3.564   2.210   1.082  1.9852 -2.0256 -0.5062
14849TIP3   OH266037   4.020   3.760  31.597  0.0730 -0.9948 -0.1204
14849TIP3    H166038   4.095   3.802  31.555  0.5640 -1.3731  0.3675
14849TIP3    H266039   3.944   3.795  31.550  0.5509 -0.6310 -0.6399
14850TIP3   OH266040   1.875   4.194  15.992  0.0585  0.5301  0.1272
14850TIP3    H166041   1.813   4.264  16.010 -1.2942 -0.2184 -1.3656
14850TIP3    H266042   1.940   4.233  15.934  0.5784  1.1234  1.0952
14851TIP3   OH266043   3.627   0.578  29.626 -0.2810 -0.3314 -0.5930
14851TIP3    H166044   3.577   0.650  29.664  1.1723  0.1341  0.5315
14851TIP3    H266045   3.601   0.501  29.675 -0.8953 -0.3549 -0.9448
14852TIP3   OH266046   1.864   0.310  34.240 -0.1367  0.4592 -0.7412
14852TIP3    H166047   1.798   0.251  34.277 -0.2643 -0.0906 -1.8102
14852TIP3    H266048   1.814   0.381  34.202 -0.0611  0.5046 -0.7567
14853TIP3   OH266049   4.149   1.272  12.002 -0.0713 -0.2957 -0.6922
14853TIP3    H166050   4.162   1.209  11.931 -0.1945 -1.0573 -0.0508
14853TIP3    H266051   4.133   1.356  11.958 -2.3235 -1.1447 -1.6292
14854TIP3   OH266052   1.575   2.474  32.401  0.0311  0.0563 -0.2431
14854TIP3    H166053   1.522   2.536  32.351 -0.5662  0.6589  1.0892
14854TIP3    H266054   1.526   2.460  32.482  0.9444 -0.9276  0.1621
14855TIP3   OH266055   0.948   4.308  11.163 -0.0854 -0.6471  0.0397
14855TIP3    H166056   0.939   4.319  11.258  1.3183 -0.5783  0.1839
14855TIP3    H266057   0.863   4.336  11.128 -0.8485 -1.2505  1.3023
14856TIP3   OH266058   0.694   1.015   0.860  0.1313  0.8598 -0.3322
14856TIP3    H166059   0.748   0.973   0.927 -0.3897 -0.2652 -0.5791
14856TIP3    H266060   0.604   1.006   0.893 -0.0232  1.4443 -0.5852
14857TIP3   OH266061   3.162   3.572  40.685 -0.4994 -0.2610  0.1139
14857TIP3    H166062   3.233   3.615  40.637 -0.0665 -0.5343  0.4992
14857TIP3    H266063   3.161   3.615  40.770 -0.9027 -0.1533  0.0578
14858TIP3   OH266064   1.320   1.573  15.809 -0.0273 -0.1242 -0.2222
14858TIP3    H166065   1.372   1.496  15.789 -1.6943 -1.1738 -0.7162
14858TIP3    H266066   1.230   1.546  15.793 -0.8734  1.2059  1.8037
14859TIP3   OH266067   1.313   0.601  36.625 -0.0729  0.4669  0.3125
14859TIP3    H166068   1.300   0.527  36.566 -0.6859 -0.1828  1.2319
14859TIP3    H266069   1.290   0.678  36.574 -0.3531 -0.0639 -0.3640
14860TIP3   OH266070   1.017   0.696   8.603 -0.2830 -0.3881 -0.0181
14860TIP3    H166071   0.989   0.613   8.642  2.5481 -0.6672  1.6691
14860TIP3    H266072   1.001   0.761   8.670 -1.7053  0.3704 -1.0299
14861TIP3   OH266073   4.370   0.400  27.396 -0.2998  0.2960 -0.2381
14861TIP3    H166074   4.378   0.485  27.352  0.6019 -0.3559 -1.3908
14861TIP3    H266075   4.434   0.404  27.467  1.2910 -0.1203 -1.5503
14862TIP3   OH266076   2.975   0.025   9.145 -1.0081 -0.3765  0.2924
14862TIP3    H166077   2.945  -0.016   9.064 -0.9451 -0.8907  0.5256
14862TIP3    H266078   3.067   0.047   9.128 -1.5866  1.6766 -0.6102
14863TIP3   OH266079   1.148   2.768  11.179 -0.1299 -0.3043  0.7109
14863TIP3    H166080   1.104   2.768  11.264  1.1985 -0.5029  1.4211
14863TIP3    H266081   1.220   2.706  11.189 -0.1277 -0.5445 -0.6606
14864TIP3   OH266082   1.279   3.721  29.901 -0.2981 -0.2287 -0.0722
14864TIP3    H166083   1.187   3.700  29.919  0.2771 -1.2926  1.7893
14864TIP3    H266084   1.283   3.816  29.908 -1.3191 -0.1351 -0.5384
14865TIP3   OH266085   3.336   1.166   4.707 -0.0008  0.8224 -0.6839
14865TIP3    H166086   3.378   1.179   4.792 -1.5571  1.2334  0.0723
14865TIP3    H266087   3.401   1.120   4.655  0.5745 -0.5365  1.1224
14866TIP3   OH266088   1.231   3.604  27.585  0.1172  0.0744  0.4487
14866TIP3    H166089   1.149   3.653  27.594 -0.9261 -1.6881  1.0501
14866TIP3    H266090   1.261   3.623  27.496 -1.9279 -0.6676 -0.4643
14867TIP3   OH266091   1.952   2.514   9.960  0.4648 -0.5692 -0.2424
14867TIP3    H166092   1.931   2.575  10.031  1.2393 -1.8447  1.1351
14867TIP3    H266093   1.895   2.540   9.889 -0.2034  0.8894  0.7739
14868TIP3   OH266094   3.851   4.084  11.364 -0.2553 -0.2136 -0.0037
14868TIP3    H166095   3.841   4.025  11.438 -1.2492  0.0803  0.1157
14868TIP3    H266096   3.905   4.155  11.397  2.3462 -1.7870 -0.6112
14869TIP3   OH266097   3.300   1.336  29.048  0.3461 -0.2928  0.0046
14869TIP3    H166098   3.256   1.273  29.105  1.2261 -1.3211 -0.4041
14869TIP3    H266099   3.393   1.322  29.065  0.5547  0.8103 -0.1993
14870TIP3   OH266100   2.046   0.834  11.453 -0.1728  0.0456 -0.0461
14870TIP3    H166101   1.994   0.818  11.374 -1.9139  3.0407  0.3546
14870TIP3    H266102   2.030   0.759  11.509 -1.7657 -0.4572 -1.1244
14871TIP3   OH266103   0.152   1.755  23.087 -0.8525 -0.5851 -0.1671
14871TIP3    H166104   0.108   1.704  23.019  0.3521 -2.2554  0.2466
14871TIP3    H266105   0.191   1.690  23.144 -1.4257  0.7791  1.9055
14872TIP3   OH266106   4.243   3.537  31.351  0.3138  0.2562  0.2825
14872TIP3    H166107   4.213   3.460  31.303 -1.8416  1.1901  0.0274
14872TIP3    H266108   4.254   3.604  31.284  1.1683  0.4827  0.6323
14873TIP3   OH266109   1.095   2.763  32.538  0.3798  0.1078 -0.6068
14873TIP3    H166110   1.175   2.793  32.496  1.2314  0.8677  1.4415
14873TIP3    H266111   1.118   2.680  32.580 -0.1587 -0.1292 -0.7655
14874TIP3   OH266112   1.782   2.538  40.640 -0.0987  0.4992 -0.1122
14874TIP3    H166113   1.734   2.607  40.686  1.2108  0.6418  1.1163
14874TIP3    H266114   1.764   2.554  40.547 -1.2101  1.4244  0.2361
14875TIP3   OH266115   0.969   1.825   8.007  0.0856  0.2629 -0.2359
14875TIP3    H166116   0.963   1.761   8.078 -1.5040  0.3343 -0.2723
14875TIP3    H266117   1.063   1.846   8.002  0.4607 -1.0415  0.6630
14876TIP3   OH266118   3.777   0.498   4.925  0.5710  0.6647 -0.4601
14876TIP3    H166119   3.777   0.567   4.859  0.6323  0.9640 -0.1541
14876TIP3    H266120   3.685   0.471   4.932  0.8905 -1.2434 -2.5677
14877TIP3   OH266121   3.471   4.253   4.145  0.1384  0.2696  0.2218
14877TIP3    H166122   3.561   4.257   4.113  0.1574 -1.2754  0.0092
14877TIP3    H266123   3.469   4.176   4.202 -1.2646 -0.2861 -0.5213
14878TIP3   OH266124   2.972   2.699   4.312 -0.2918  0.1515  0.0904
14878TIP3    H166125   3.018   2.743   4.384 -0.9299 -0.6822  1.0234
14878TIP3    H266126   3.042   2.664   4.257  0.2332  1.8785 -0.4224
14879TIP3   OH266127   2.646   3.200  31.518  0.3911  0.0468  0.5997
14879TIP3    H166128   2.697   3.128  31.481  2.0072  0.4773  1.8540
14879TIP3    H266129   2.571   3.209  31.459  1.8026 -0.5782 -1.4087
14880TIP3   OH266130   1.530   1.908   8.102  0.0629  0.1718 -0.0686
14880TIP3    H166131   1.468   1.881   8.169 -0.5937  1.1664 -0.2452
14880TIP3    H266132   1.577   1.828   8.078  1.3100  0.0414  2.5469
14881TIP3   OH266133   1.817   2.614   7.921 -0.2589  0.0126 -0.4744
14881TIP3    H166134   1.732   2.586   7.954 -0.2731 -0.0577 -0.5700
14881TIP3    H266135   1.818   2.584   7.830  0.5062 -1.3904 -0.0186
14882TIP3   OH266136   3.971   0.074   7.888 -0.0844 -0.0372  0.6626
14882TIP3    H166137   3.906   0.129   7.846  0.2994 -1.2168 -1.6053
14882TIP3    H266138   4.055   0.113   7.864  0.1953 -1.5470 -1.0294
14883TIP3   OH266139   3.152   1.263   8.773  0.3934 -0.3270  0.6931
14883TIP3    H166140   3.225   1.201   8.763 -0.1505 -1.0002  0.8179
14883TIP3    H266141   3.151   1.311   8.690 -0.7376 -2.2201 -0.4757
14884TIP3   OH266142   1.958   2.702  37.574 -0.0339  0.1010  0.1382
14884TIP3    H166143   1.910   2.621  37.560  0.8494 -0.9447  2.5614
14884TIP3    H266144   1.929   2.732  37.660  0.1142  2.0443 -0.4475
14885TIP3   OH266145   3.342   2.565  39.749 -0.3503  0.0446 -0.6098
14885TIP3    H166146   3.392   2.575  39.830  0.3765 -0.6671 -0.9633
14885TIP3    H266147   3.259   2.610  39.767 -0.6752 -1.1167  0.9490
14886TIP3   OH266148   0.937   3.622   7.662  0.5383 -0.3252 -0.2610
14886TIP3    H166149   0.861   3.644   7.608 -1.3546 -0.7273  2.0560
14886TIP3    H266150   0.951   3.700   7.716  0.1358 -1.1122  1.0363
14887TIP3   OH266151   4.370   0.102   3.510  0.0207 -0.4224  0.4802
14887TIP3    H166152   4.430   0.045   3.557 -0.2363  1.1921  2.9160
14887TIP3    H266153   4.288   0.097   3.560  0.1498  2.4095  1.1094
14888TIP3   OH266154   0.260   0.618   0.872  0.1100  0.7094  0.3515
14888TIP3    H166155   0.293   0.655   0.954 -0.3533  0.8566  0.4754
14888TIP3    H266156   0.191   0.558   0.899  1.9355 -1.5529  0.2776
14889TIP3   OH266157   2.262   1.523   3.660  0.0572  0.5222 -0.2280
14889TIP3    H166158   2.170   1.503   3.644  0.1290 -0.1022  0.1249
14889TIP3    H266159   2.261   1.594   3.724 -0.1742 -0.4000  0.8224
14890TIP3   OH266160   2.342   3.853  28.990  0.2049 -0.2731 -0.0768
14890TIP3    H166161   2.306   3.813  28.911 -0.9073 -1.2801  0.8875
14890TIP3    H266162   2.387   3.782  29.035 -1.4634 -0.4147  1.4712
14891TIP3   OH266163   3.923   1.369  34.869 -0.4085 -0.0645 -0.1678
14891TIP3    H166164   3.988   1.418  34.921 -1.3847 -0.3382  1.3946
14891TIP3    H266165   3.875   1.437  34.822 -1.8803  0.6125  2.1362
14892TIP3   OH266166   1.352   3.041  41.561  0.2833 -0.3133 -0.2831
14892TIP3    H166167   1.372   2.960  41.607 -0.6192 -1.4706 -1.8559
14892TIP3    H266168   1.264   3.028  41.526  1.5037 -0.2280 -3.7373
14893TIP3   OH266169   3.452   2.761  26.265  0.2254 -0.0956  0.1468
14893TIP3    H166170   3.371   2.717  26.289 -0.4393  0.6608 -0.6218
14893TIP3    H266171   3.522   2.708  26.305 -0.6872 -0.0802  1.8536
14894TIP3   OH266172   0.763   0.682  37.462  0.1234  0.0020  0.0139
14894TIP3    H166173   0.846   0.725  37.443 -0.7072  1.6180 -0.0465
14894TIP3    H266174   0.707   0.751  37.497 -1.5197 -0.8358 -0.8479
14895TIP3   OH266175   1.038   2.005  35.746 -0.1553 -0.0960  0.9997
14895TIP3    H166176   1.058   1.919  35.782  1.0681 -0.0524  0.4674
14895TIP3    H266177   0.990   1.988  35.666  1.3227 -0.3641  0.1290
14896TIP3   OH266178   1.025   1.553  13.243  0.5046  0.3979 -0.9748
14896TIP3    H166179   1.102   1.519  13.289 -0.1945  2.3377  1.9587
14896TIP3    H266180   1.053   1.639  13.211 -0.3623  1.0879  0.0610
14897TIP3   OH266181   1.070   3.522  29.000 -0.6088  0.3341 -0.0257
14897TIP3    H166182   1.069   3.617  29.012 -1.0231  0.3891 -0.4751
14897TIP3    H266183   0.978   3.497  28.994 -0.4955 -0.0516 -0.2367
14898TIP3   OH266184   1.664   1.495  36.554  0.2566  0.0363  0.1115
14898TIP3    H166185   1.645   1.529  36.467  0.8222 -0.1064 -0.0784
14898TIP3    H266186   1.712   1.413  36.538  0.9601  0.3476  0.5409
14899TIP3   OH266187   2.001   3.281  11.095  0.4873 -0.2120  0.0841
14899TIP3    H166188   2.030   3.227  11.168 -3.0733 -0.0835  1.8303
14899TIP3    H266189   1.993   3.369  11.131  0.6963  0.2932 -1.0622
14900TIP3   OH266190   3.447   4.262  11.881 -0.0552 -0.3243  0.1613
14900TIP3    H166191   3.513   4.214  11.931 -0.5760 -0.6479  0.5420
14900TIP3    H266192   3.371   4.204  11.878  0.9006 -1.6661 -3.5749
14901TIP3   OH266193   0.448   0.398   6.663 -0.1222 -0.5638 -0.1555
14901TIP3    H166194   0.415   0.308   6.667 -0.0378 -0.7230 -1.9818
14901TIP3    H266195   0.401   0.438   6.590  1.4149  0.1849 -0.7824
14902TIP3   OH266196   1.062   3.675  36.502 -0.4173 -0.5407 -0.1100
14902TIP3    H166197   1.142   3.669  36.555 -0.4421 -1.3877 -0.1553
14902TIP3    H266198   0.997   3.713  36.561 -0.0052  0.0863 -0.0518
14903TIP3   OH266199   0.154   1.839  28.977 -0.6960 -0.0789 -0.5607
14903TIP3    H166200   0.233   1.786  28.969 -1.0282 -1.2319  2.4145
14903TIP3    H266201   0.185   1.929  28.970  1.0927 -0.4707  1.1925
14904TIP3   OH266202   2.040   2.325  10.976  0.7555  0.5423  0.1700
14904TIP3    H166203   1.988   2.390  11.022  0.9777  1.6679 -1.1042
14904TIP3    H266204   2.129   2.339  11.008  0.8090  0.9060 -0.1277
14905TIP3   OH266205   3.955   2.989  10.706 -0.0465  0.0663 -0.7546
14905TIP3    H166206   3.974   2.985  10.800 -0.0381 -1.1403 -0.7905
14905TIP3    H266207   3.918   3.077  10.693 -1.0090 -0.0986  0.5711
14906TIP3   OH266208   1.155   2.588   6.845  0.1835  0.1746  0.6981
14906TIP3    H166209   1.070   2.595   6.800 -0.0182 -0.3425  0.9907
14906TIP3    H266210   1.140   2.524   6.914  0.1750  1.8011  2.2567
14907TIP3   OH266211   0.717   2.990   3.257 -0.7746  0.5692  0.0649
14907TIP3    H166212   0.810   2.988   3.280 -0.5389 -0.4034 -0.8848
14907TIP3    H266213   0.681   3.063   3.308 -0.2130 -1.1165  3.0991
14908TIP3   OH266214   0.657   4.080  28.649 -0.3311  0.2661 -0.0061
14908TIP3    H166215   0.688   3.991  28.636 -0.1571  0.3890 -0.4351
14908TIP3    H266216   0.625   4.108  28.563  0.2232  0.8490 -0.0258
14909TIP3   OH266217   0.742   3.155   9.638  0.0882  0.0862 -0.0940
14909TIP3    H166218   0.788   3.076   9.669  0.7049  0.1246 -0.8856
14909TIP3    H266219   0.754   3.154   9.543  0.7811  1.5563 -0.0411
14910TIP3   OH266220   1.659   1.704   4.929 -0.1669 -0.4458  0.2199
14910TIP3    H166221   1.612   1.776   4.968 -0.7684 -0.1158 -1.0592
14910TIP3    H266222   1.644   1.630   4.988 -0.6962  0.1299  0.8165
14911TIP3   OH266223   3.548   0.880   3.937  0.4047  0.0966  0.5770
14911TIP3    H166224   3.506   0.825   3.871  0.1880 -0.5650  1.2624
14911TIP3    H266225   3.492   0.873   4.014  1.0812  0.2385  1.0908
14912TIP3   OH266226   3.213   3.138  37.207  0.1407 -0.0901  0.5134
14912TIP3    H166227   3.157   3.092  37.143 -1.9030  1.4219  1.1306
14912TIP3    H266228   3.289   3.081  37.215 -0.4697 -1.3851 -1.7032
14913TIP3   OH266229   0.276   1.465  40.846  0.0015  0.6807  0.0140
14913TIP3    H166230   0.275   1.535  40.781  0.3969  1.0904  0.4409
14913TIP3    H266231   0.193   1.419  40.833  0.4234  0.2349 -1.3418
14914TIP3   OH266232   1.619   4.383  18.420  0.3721 -1.0648 -0.4973
14914TIP3    H166233   1.711   4.409  18.420 -0.0057  0.3693 -0.7768
14914TIP3    H266234   1.601   4.357  18.510  0.9237 -0.8815 -0.3323
14915TIP3   OH266235   4.271   3.080  31.166 -0.3914  0.0015  0.2969
14915TIP3    H166236   4.353   3.058  31.210 -0.0911 -0.8606 -0.6543
14915TIP3    H266237   4.298   3.118  31.082 -0.9100 -2.3542 -1.0251
14916TIP3   OH266238   0.848   2.685  11.576  1.1388 -0.0673  0.2234
14916TIP3    H166239   0.825   2.742  11.649 -1.0702 -0.6738  0.0835
14916TIP3    H266240   0.764   2.666  11.533  2.1166 -1.4147 -1.2072
14917TIP3   OH266241   1.897   0.181  15.735 -0.6030  0.2299 -0.1445
14917TIP3    H166242   1.921   0.088  15.729 -0.5567  0.3019 -1.3621
14917TIP3    H266243   1.897   0.199  15.829  0.7376 -0.6603  0.0710
14918TIP3   OH266244   3.124   0.486  39.948  0.1922 -0.3177 -0.1369
14918TIP3    H166245   3.172   0.429  40.008 -0.8058  0.1833  1.1724
14918TIP3    H266246   3.168   0.571  39.956 -0.3167 -0.0943  0.3686
14919TIP3   OH266247   0.164   0.102  28.260  0.0575 -0.7340 -0.6193
14919TIP3    H166248   0.172   0.048  28.182 -0.6585  0.0106 -1.2338
14919TIP3    H266249   0.093   0.062  28.310  0.0294 -0.7926 -0.7077
14920TIP3   OH266250   1.889   3.929  35.923 -0.1264 -0.5692 -0.4663
14920TIP3    H166251   1.969   3.942  35.974 -0.9636 -1.0014  1.0534
14920TIP3    H266252   1.908   3.964  35.837  1.5358 -0.2427  0.0059
14921TIP3   OH266253   4.134   0.802  23.870  0.0213 -0.8723  0.0147
14921TIP3    H166254   4.129   0.774  23.962 -0.8481 -0.9160 -0.0367
14921TIP3    H266255   4.048   0.780  23.834  0.3052 -0.7131 -0.7753
14922TIP3   OH266256   2.094   3.321   5.546 -1.0328 -0.2732 -0.1877
14922TIP3    H166257   2.050   3.272   5.476 -2.0037  0.9662 -0.4900
14922TIP3    H266258   2.143   3.389   5.500  0.5209 -1.0847  0.2114
14923TIP3   OH266259   0.827   1.071  12.178  0.4403  0.0919 -0.0016
14923TIP3    H166260   0.916   1.054  12.209  0.6062 -0.4939 -0.7594
14923TIP3    H266261   0.799   0.987  12.141 -0.6425  0.1082  0.7475
14924TIP3   OH266262   3.188   2.780  29.270 -0.6259  0.4930  0.0966
14924TIP3    H166263   3.183   2.873  29.289  2.4551  0.8616 -0.3739
14924TIP3    H266264   3.194   2.738  29.356  0.7771  1.0345  0.2919
14925TIP3   OH266265   4.261   3.415   7.462 -0.4953 -0.1808 -0.0902
14925TIP3    H166266   4.248   3.385   7.552  0.3428  0.0151  0.1102
14925TIP3    H266267   4.263   3.511   7.469 -2.6148 -0.0534 -0.6457
14926TIP3   OH266268   3.120   0.073   3.306  0.2606 -0.1919  0.0438
14926TIP3    H166269   3.210   0.042   3.300  0.1136 -0.7502  0.6558
14926TIP3    H266270   3.068   0.006   3.260  0.2830  0.8223 -1.5639
14927TIP3   OH266271   0.695   0.323   0.744 -0.7480  0.0150 -0.0878
14927TIP3    H166272   0.639   0.327   0.821  0.6947 -1.7044  1.1376
14927TIP3    H266273   0.673   0.240   0.702  0.6428 -0.5680  0.2812
14928TIP3   OH266274   2.910   2.919  12.331  0.0875  0.1574  0.4029
14928TIP3    H166275   2.879   2.936  12.420 -0.2738  1.5820  0.0386
14928TIP3    H266276   2.885   2.998  12.282  3.1999  0.8756 -0.2214
14929TIP3   OH266277   2.380   3.081   9.974 -0.8347 -0.2962 -0.2581
14929TIP3    H166278   2.319   3.124  10.034 -1.6765 -2.4510  0.5081
14929TIP3    H266279   2.415   3.007  10.023  1.9753  0.4756 -0.8978
14930TIP3   OH266280   1.687   0.268  17.109  0.3754 -0.8225 -0.2301
14930TIP3    H166281   1.641   0.237  17.187 -1.3798  0.2425 -0.7879
14930TIP3    H266282   1.706   0.360  17.128 -0.1054 -0.5421 -1.0653
14931TIP3   OH266283   0.399   3.586  23.000 -0.3124 -0.3683  0.2025
14931TIP3    H166284   0.412   3.560  23.092  0.0297 -0.1178  0.2245
14931TIP3    H266285   0.471   3.543  22.953  0.1885  0.4375  0.2210
14932TIP3   OH266286   3.700   4.198  34.837 -0.5279 -0.5290  0.0151
14932TIP3    H166287   3.771   4.134  34.832 -0.1497 -0.0209 -1.8938
14932TIP3    H266288   3.733   4.274  34.789 -1.3789  0.7195  1.3261
14933TIP3   OH266289   1.274   0.821  33.151 -0.4145  0.0674 -0.0535
14933TIP3    H166290   1.363   0.828  33.116 -0.7047  0.7674 -0.6780
14933TIP3    H266291   1.229   0.899  33.118 -1.2635 -0.2793  0.2583
14934TIP3   OH266292   3.752   3.152  22.600 -0.3852 -0.3527  0.4664
14934TIP3    H166293   3.801   3.173  22.679 -0.1139 -0.5415  0.3468
14934TIP3    H266294   3.732   3.237  22.561  2.2724 -0.2956 -0.9741
14935TIP3   OH266295   3.738   1.615  38.171 -0.1714  0.3110 -0.0236
14935TIP3    H166296   3.653   1.636  38.132 -0.6287 -2.0636 -0.4366
14935TIP3    H266297   3.722   1.537  38.224  1.6853  0.0422  0.2057
14936TIP3   OH266298   3.168   2.020   7.168 -0.1425  0.1179 -0.1272
14936TIP3    H166299   3.235   2.087   7.185  0.5100  0.0698 -2.2935
14936TIP3    H266300   3.214   1.937   7.179 -0.0382  0.0785 -0.8228
14937TIP3   OH266301   1.642   1.388  38.437 -0.3708  0.2427 -0.0527
14937TIP3    H166302   1.637   1.469  38.487 -2.5637  0.6102 -0.7570
14937TIP3    H266303   1.657   1.416  38.347 -0.5337 -0.1739 -0.2115
14938TIP3   OH266304   1.829   2.835  13.549 -0.2847  1.0296  0.0134
14938TIP3    H166305   1.844   2.864  13.639 -2.0970  2.6908 -0.1405
14938TIP3    H266306   1.883   2.893  13.495  0.5004  0.2890 -0.0204
14939TIP3   OH266307   3.256   2.228  41.047  0.4508  0.0989  0.0759
14939TIP3    H166308   3.278   2.155  41.105  0.4263  0.5004  0.6067
14939TIP3    H266309   3.340   2.270  41.028  0.1619  2.4223  3.1587
14940TIP3   OH266310   3.088   2.417   9.535  0.0676 -0.2116 -0.0823
14940TIP3    H166311   3.147   2.349   9.566  0.2719 -0.5570 -1.1963
14940TIP3    H266312   3.037   2.375   9.465 -1.9562 -0.1192  1.2567
14941TIP3   OH266313   3.214   1.956  36.936  0.3890 -0.1023 -0.4661
14941TIP3    H166314   3.272   1.991  37.004  0.4397 -2.1892  0.6513
14941TIP3    H266315   3.137   1.925  36.984  0.7126 -2.2377 -1.1983
14942TIP3   OH266316   0.818   3.309  33.304 -0.2675  0.0692 -0.4122
14942TIP3    H166317   0.849   3.383  33.253 -0.3812 -0.3641 -1.1167
14942TIP3    H266318   0.883   3.299  33.374  0.3528  0.1223 -0.9725
14943TIP3   OH266319   1.487   4.125  27.521  0.1856  0.0628 -0.2820
14943TIP3    H166320   1.530   4.196  27.474  1.6177 -1.9108 -2.1723
14943TIP3    H266321   1.395   4.131  27.496  0.7666 -0.3981 -2.7608
14944TIP3   OH266322   2.081   0.442  11.026  0.0893 -0.4713  0.5331
14944TIP3    H166323   2.006   0.488  10.988 -0.0400 -0.2751  1.0176
14944TIP3    H266324   2.086   0.359  10.978 -0.4132 -0.4715  0.4798
14945TIP3   OH266325   3.834   1.670   2.557 -0.1185  0.4829 -0.1169
14945TIP3    H166326   3.806   1.580   2.542  1.1126 -0.4171  2.3396
14945TIP3    H266327   3.900   1.686   2.490  0.2930 -0.7878 -0.0391
14946TIP3   OH266328   3.441   3.512  13.207  0.0108 -0.3649  0.9910
14946TIP3    H166329   3.514   3.539  13.262  0.6185  0.5621 -0.2130
14946TIP3    H266330   3.422   3.589  13.153 -0.4190 -1.2885 -0.2286
14947TIP3   OH266331   3.730   0.894  36.224 -0.3928 -0.1916 -0.5156
14947TIP3    H166332   3.784   0.872  36.148  0.1957  0.3250 -0.2527
14947TIP3    H266333   3.672   0.818  36.234 -0.7555 -0.0998 -1.7150
14948TIP3   OH266334   3.078   3.072   5.082  0.1103  0.0966  0.1188
14948TIP3    H166335   3.016   3.023   5.136  1.6505  0.5440  2.4552
14948TIP3    H266336   3.043   3.161   5.080  0.2768  0.1798  0.7901
14949TIP3   OH266337   0.540   3.402  39.501  0.0616  0.4365 -0.1476
14949TIP3    H166338   0.629   3.424  39.472 -0.5955  0.0457 -2.7192
14949TIP3    H266339   0.483   3.462  39.453 -1.2619 -1.6855 -1.4016
14950TIP3   OH266340   2.777   2.808   7.216  0.0773  0.3338  0.0414
14950TIP3    H166341   2.696   2.777   7.257 -0.1054 -0.3177 -0.7654
14950TIP3    H266342   2.765   2.902   7.207  0.2071  0.5237  1.6312
14951TIP3   OH266343   1.886   4.228   9.642 -0.3774  0.4680 -0.0945
14951TIP3    H166344   1.811   4.176   9.672 -0.5944  0.6418 -0.3320
14951TIP3    H266345   1.958   4.202   9.700 -0.2991 -0.6238 -0.6380
14952TIP3   OH266346   0.228   1.693  40.649 -0.1504  0.1635 -0.1185
14952TIP3    H166347   0.241   1.761  40.714  0.7938  1.8123 -1.9157
14952TIP3    H266348   0.315   1.680  40.611 -0.7255 -0.5070 -1.2539
14953TIP3   OH266349   3.686   2.141  10.049 -0.0944 -0.0014  0.1588
14953TIP3    H166350   3.773   2.110  10.074 -0.1436  0.4790  0.9705
14953TIP3    H266351   3.633   2.130  10.128 -0.2383  1.6346  0.3345
14954TIP3   OH266352   4.014   2.480  37.447 -0.1496 -0.1716  0.2576
14954TIP3    H166353   3.936   2.453  37.399 -0.9444  2.0964  0.1441
14954TIP3    H266354   4.087   2.455  37.391 -0.8498 -1.3436 -0.1497
14955TIP3   OH266355   2.246   1.117  27.785 -0.1325  0.2843  0.3556
14955TIP3    H166356   2.305   1.084  27.853  1.1161  1.6682 -0.0044
14955TIP3    H266357   2.217   1.039  27.738  1.3810 -0.4393  0.5721
14956TIP3   OH266358   1.726   2.869  28.609 -0.2103 -0.7446 -0.3494
14956TIP3    H166359   1.688   2.899  28.527 -1.6541  0.2018  0.6236
14956TIP3    H266360   1.782   2.941  28.638 -0.7560 -0.5141  0.1489
14957TIP3   OH266361   0.166   2.301  29.226  0.2976 -0.6041  0.1181
14957TIP3    H166362   0.244   2.352  29.245 -0.4315 -0.0921  1.9203
14957TIP3    H266363   0.133   2.274  29.312 -1.2333 -1.2382 -0.6254
14958TIP3   OH266364   0.730   3.336   4.813 -0.0715  0.3697  0.6711
14958TIP3    H166365   0.806   3.291   4.848 -1.5346 -3.2386 -0.2930
14958TIP3    H266366   0.656   3.300   4.863 -1.4982  0.4172 -1.2911
14959TIP3   OH266367   2.340   2.647  31.763 -0.1843  0.3950 -0.7080
14959TIP3    H166368   2.355   2.692  31.679 -0.0612 -0.3372 -1.0884
14959TIP3    H266369   2.348   2.554  31.741 -0.3414  0.1948  0.0866
14960TIP3   OH266370   2.149   4.325   5.683 -0.0348 -0.1459 -0.4914
14960TIP3    H166371   2.174   4.380   5.609  1.9118  1.0186  0.9199
14960TIP3    H266372   2.146   4.386   5.757 -0.3072 -1.5374  0.6874
14961TIP3   OH266373   3.378   0.069   5.544 -0.0515  0.0762 -0.4872
14961TIP3    H166374   3.358   0.154   5.505 -0.4675  0.2854  0.1654
14961TIP3    H266375   3.292   0.028   5.558  0.1496 -0.5089 -0.9130
14962TIP3   OH266376   3.782   1.991  31.044 -0.3341 -0.0326 -0.4809
14962TIP3    H166377   3.832   2.055  30.993 -0.7900  1.2082  0.5769
14962TIP3    H266378   3.691   2.016  31.030 -0.4594  0.4980  1.1219
14963TIP3   OH266379   2.130   3.475   0.045 -0.0109  0.2087  0.3547
14963TIP3    H166380   2.090   3.562   0.035  1.5571  0.8424 -0.8188
14963TIP3    H266381   2.222   3.492   0.062  0.2758 -1.2365  0.4127
14964TIP3   OH266382   2.185   1.946  39.328  1.1345  0.4505 -0.2534
14964TIP3    H166383   2.269   1.992  39.318  1.4850 -0.0383  0.3560
14964TIP3    H266384   2.199   1.888  39.403  0.3889  0.0458 -0.4237
14965TIP3   OH266385   1.384   0.173  38.896  0.2124  0.2369 -0.6287
14965TIP3    H166386   1.378   0.168  38.992  1.7235 -0.7141 -0.5448
14965TIP3    H266387   1.296   0.155  38.865 -0.3190  0.6486  0.5853
14966TIP3   OH266388   2.063   0.352  38.733  0.0238 -0.5455  0.2624
14966TIP3    H166389   2.074   0.426  38.793  1.4951 -0.3052 -0.2524
14966TIP3    H266390   2.097   0.276  38.782  2.2508 -0.1690 -0.5762
14967TIP3   OH266391   0.084   2.988  31.515  0.2174  0.2487  0.3791
14967TIP3    H166392   0.083   2.899  31.549 -0.8363 -0.2219 -0.7802
14967TIP3    H266393   0.001   3.025  31.545  0.1698  0.4746 -0.0229
14968TIP3   OH266394   3.272   4.323   7.223 -0.0208 -0.6126 -0.2095
14968TIP3    H166395   3.192   4.354   7.180  0.0521  0.6925  0.5437
14968TIP3    H266396   3.343   4.366   7.175  0.0944  0.1999  0.6572
14969TIP3   OH266397   2.407   2.094  39.276 -0.8360  0.4954  0.3643
14969TIP3    H166398   2.469   2.147  39.326 -0.1161 -0.8037  0.8786
14969TIP3    H266399   2.360   2.158  39.222 -1.2072  1.8647  2.2148
14970TIP3   OH266400   4.199   0.898   7.659  0.4817  0.1961 -0.4025
14970TIP3    H166401   4.164   0.834   7.721 -0.1273 -0.6725 -1.5927
14970TIP3    H266402   4.294   0.892   7.669  0.4826 -1.4923 -1.0165
14971TIP3   OH266403   3.117   1.928  37.625 -0.2884  0.5804 -0.6031
14971TIP3    H166404   3.043   1.978  37.659 -0.7248  0.5238 -1.4280
14971TIP3    H266405   3.193   1.963  37.670 -1.0750 -1.3799  2.5249
14972TIP3   OH266406   0.429   0.092  28.022  0.0570  0.0575 -0.5702
14972TIP3    H166407   0.334   0.089  28.031  0.2345 -1.4862  1.3811
14972TIP3    H266408   0.451   0.185  28.035 -1.1776  0.4566 -1.2140
14973TIP3   OH266409   0.434   2.920   8.413  0.2444 -0.1383 -0.6647
14973TIP3    H166410   0.342   2.891   8.416  0.5028 -0.9093  0.7333
14973TIP3    H266411   0.458   2.910   8.321 -0.9748 -0.2488 -1.0001
14974TIP3   OH266412   3.482   2.186   4.592 -0.2913  0.7736  0.3524
14974TIP3    H166413   3.410   2.244   4.565 -0.8870 -0.1450 -0.0742
14974TIP3    H266414   3.559   2.221   4.546 -0.8377  0.6522 -0.6886
14975TIP3   OH266415   1.235   1.449  30.280  0.0233 -0.3695 -0.2867
14975TIP3    H166416   1.270   1.408  30.201 -2.5704  0.0911 -1.7866
14975TIP3    H266417   1.211   1.375  30.337  2.3168 -0.6973  0.3680
14976TIP3   OH266418   3.396   0.253   3.938  0.5097  0.3000  0.2049
14976TIP3    H166419   3.435   0.250   4.025  1.7716 -0.7381 -0.3729
14976TIP3    H266420   3.434   0.331   3.898  1.5101 -0.3262 -0.1075
14977TIP3   OH266421   2.466   1.107  17.531 -0.5035  0.2860 -0.4517
14977TIP3    H166422   2.413   1.103  17.452 -3.2535 -1.3343  1.3294
14977TIP3    H266423   2.479   1.200  17.546 -0.2411  0.6432 -2.5370
14978TIP3   OH266424   3.100   1.267   4.359  0.0159  0.1753  0.2356
14978TIP3    H166425   3.086   1.256   4.453  0.0283  1.3296  0.3948
14978TIP3    H266426   3.081   1.182   4.321 -1.4713  0.0797  1.1223
14979TIP3   OH266427   1.159   0.973  34.530  0.1963  0.2441  0.0940
14979TIP3    H166428   1.086   0.914  34.508  0.3342  0.2290 -0.3237
14979TIP3    H266429   1.193   0.938  34.612 -0.4436  0.4131  0.4433
14980TIP3   OH266430   3.275   0.600   6.021 -0.0436 -0.4542 -0.0367
14980TIP3    H166431   3.336   0.657   6.068  0.8180 -0.0076 -1.6363
14980TIP3    H266432   3.191   0.648   6.024  0.0692 -0.2797  0.7227
14981TIP3   OH266433   3.197   1.663  36.856  0.3218 -0.4548 -0.3713
14981TIP3    H166434   3.217   1.578  36.894 -0.4089 -0.0700  0.9055
14981TIP3    H266435   3.275   1.715  36.872  0.3464 -0.5536 -0.1680
14982TIP3   OH266436   3.874   2.364  38.135  0.2989 -0.1781 -0.1339
14982TIP3    H166437   3.817   2.438  38.115 -0.0910 -0.8931 -1.8523
14982TIP3    H266438   3.948   2.402  38.183 -0.9910  0.9502  1.0263
14983TIP3   OH266439   0.668   0.131  23.046  0.3591 -0.4796 -0.2992
14983TIP3    H166440   0.633   0.105  23.131  1.7816  2.3778  1.2920
14983TIP3    H266441   0.593   0.171  23.001  0.4130  1.2858  1.1254
14984TIP3   OH266442   0.250   0.520  27.942  0.4850  0.1080 -0.1582
14984TIP3    H166443   0.194   0.597  27.929 -0.4664 -0.4901  0.3040
14984TIP3    H266444   0.197   0.460  27.994  0.4565 -1.7109 -2.1598
14985TIP3   OH266445   0.363   2.735  33.075  0.1110  0.3091 -0.1978
14985TIP3    H166446   0.373   2.641  33.086 -1.2123  0.0929 -0.6931
14985TIP3    H266447   0.344   2.747  32.982  1.1291  1.1586 -0.3147
14986TIP3   OH266448   1.902   3.847   4.265  0.4513 -0.2017 -0.0674
14986TIP3    H166449   1.950   3.838   4.183  1.2527  1.0626  0.2301
14986TIP3    H266450   1.969   3.838   4.333 -0.0468 -0.3078  0.4177
14987TIP3   OH266451   4.325   4.290   9.599  0.1372  0.1416 -0.4878
14987TIP3    H166452   4.350   4.265   9.688  0.2830 -0.3197 -0.6569
14987TIP3    H266453   4.240   4.333   9.609  0.9835  1.7595  0.1023
14988TIP3   OH266454   2.662   3.273   7.380  0.0068  0.4247  0.0714
14988TIP3    H166455   2.689   3.365   7.383 -3.9159  1.7502  3.8471
14988TIP3    H266456   2.583   3.273   7.327  0.8256 -1.2148 -1.2612
14989TIP3   OH266457   4.213   2.621  35.644 -0.1231 -0.0947  0.0862
14989TIP3    H166458   4.196   2.559  35.573 -2.5627  0.1320  0.4051
14989TIP3    H266459   4.160   2.697  35.623  0.3284  0.6030  1.3659
14990TIP3   OH266460   4.336   1.348   6.354  0.0289  0.1537  0.3165
14990TIP3    H166461   4.416   1.371   6.307  0.7743 -2.1217  0.3415
14990TIP3    H266462   4.366   1.321   6.440 -0.9222  0.4747  0.7673
14991TIP3   OH266463   0.363   0.785   9.030  0.0748  0.7471 -0.3862
14991TIP3    H166464   0.420   0.716   9.065 -0.4791  0.9383  0.9501
14991TIP3    H266465   0.306   0.739   8.969  0.5015  0.2376 -0.4162
14992TIP3   OH266466   1.494   2.050   4.522  0.6177  0.3618 -0.4158
14992TIP3    H166467   1.498   2.039   4.427 -0.2969 -1.9860 -0.2474
14992TIP3    H266468   1.424   2.114   4.536 -0.8074 -0.9343 -1.2939
14993TIP3   OH266469   0.057   0.291  12.378  0.2943  0.0315  0.2663
14993TIP3    H166470   0.016   0.373  12.349  1.0062  0.8016  1.3152
14993TIP3    H266471   0.096   0.253  12.299 -0.7647  0.2728 -0.3839
14994TIP3   OH266472   0.978   4.090  10.370 -0.6490 -0.2888 -0.1144
14994TIP3    H166473   1.047   4.154  10.354  0.2409 -0.7441  1.6340
14994TIP3    H266474   1.009   4.010  10.329 -0.7436 -0.1684 -0.4239
14995TIP3   OH266475   1.030   3.885  31.127 -0.6803 -0.0966 -0.2071
14995TIP3    H166476   0.990   3.862  31.210 -0.0156 -0.1717  0.1018
14995TIP3    H266477   0.971   3.950  31.088 -0.6561  0.4444  0.6358
14996TIP3   OH266478   1.309   1.299  16.074 -0.2181 -0.4850  0.0324
14996TIP3    H166479   1.399   1.269  16.061 -0.7098 -2.9122  1.5431
14996TIP3    H266480   1.272   1.301  15.986  1.1403  0.0878 -0.5618
14997TIP3   OH266481   2.195   0.425  40.769 -0.5112 -0.2313 -0.0188
14997TIP3    H166482   2.258   0.415  40.840 -0.8425  1.1914  0.5172
14997TIP3    H266483   2.184   0.520  40.760 -0.5609 -0.3617 -1.9053
14998TIP3   OH266484   0.994   4.287  35.947  0.3130 -0.3339 -0.4540
14998TIP3    H166485   0.977   4.199  35.913 -1.0920 -0.4112  0.3693
14998TIP3    H266486   0.957   4.346  35.881 -1.0580 -0.4489  0.1727
14999TIP3   OH266487   0.932   3.096   3.087 -0.2260  0.1888  0.1335
14999TIP3    H166488   0.960   3.060   3.171 -0.4338 -2.0178 -0.6853
14999TIP3    H266489   1.013   3.127   3.046  0.0441  0.1486  0.6290
15000TIP3   OH266490   0.182   4.124  30.553  0.4918 -0.2201  0.3520
15000TIP3    H166491   0.252   4.165  30.605 -0.2298 -0.2241  1.3490
15000TIP3    H266492   0.114   4.191  30.548 -0.2139 -0.8648  1.0031
15001TIP3   OH266493   2.352   4.127  32.572  0.0142  0.5735  0.1602
15001TIP3    H166494   2.373   4.186  32.644 -0.3910 -0.1050  0.8466
15001TIP3    H266495   2.289   4.175  32.519  1.5544  1.7352 -0.6830
15002TIP3   OH266496   0.609   2.789  12.323  0.8809 -0.5457  0.1375
15002TIP3    H166497   0.589   2.805  12.231  1.4223 -1.7213 -0.2020
15002TIP3    H266498   0.531   2.745  12.357  1.7306 -2.6998 -0.5128
15003TIP3   OH266499   3.446   1.486  40.097  0.1321 -0.4458 -0.3854
15003TIP3    H166500   3.522   1.442  40.135 -0.2363 -0.3337  0.5072
15003TIP3    H266501   3.483   1.560  40.049  0.5346  0.2425  0.9308
15004TIP3   OH266502   2.313   2.662   0.661  0.0937 -0.4459  0.2743
15004TIP3    H166503   2.223   2.678   0.687  0.1163  0.6618 -0.2622
15004TIP3    H266504   2.349   2.607   0.731 -0.8629 -0.5334  0.7110
15005TIP3   OH266505   3.684   4.344  27.534  0.3760 -0.3669 -0.2561
15005TIP3    H166506   3.595   4.372  27.554  0.9176 -0.0761  2.0342
15005TIP3    H266507   3.706   4.391  27.454 -1.5646 -0.6045 -0.9860
15006TIP3   OH266508   3.353   3.761  36.943  0.0421  0.3852  0.0123
15006TIP3    H166509   3.347   3.843  36.992 -1.4959 -0.2080  0.8774
15006TIP3    H266510   3.263   3.731  36.934  0.5520 -1.0788 -0.5176
15007TIP3   OH266511   1.172   2.865   7.909 -0.0733  0.5261 -0.1083
15007TIP3    H166512   1.124   2.845   7.990  1.3126 -1.1042  0.3770
15007TIP3    H266513   1.108   2.911   7.854 -2.1279 -1.3092  0.5850
15008TIP3   OH266514   3.874   3.398  10.912 -0.1555 -0.0335  0.0427
15008TIP3    H166515   3.874   3.350  10.829 -4.1630  2.2085 -1.5263
15008TIP3    H266516   3.798   3.364  10.960  0.3138  0.8028  1.4494
15009TIP3   OH266517   2.845   0.238  39.871  0.2445  0.1440 -0.1368
15009TIP3    H166518   2.868   0.311  39.929  0.7095 -0.1373  0.0288
15009TIP3    H266519   2.772   0.272  39.818  1.1589  1.1166 -0.8196
15010TIP3   OH266520   1.148   0.245  17.206 -0.8781 -0.3330 -1.2393
15010TIP3    H166521   1.113   0.228  17.118 -1.5602 -3.6107 -0.4713
15010TIP3    H266522   1.137   0.162  17.252  0.8866  0.8253  1.4940
15011TIP3   OH266523   0.023   1.163  35.920 -0.0548 -0.0125 -0.0645
15011TIP3    H166524  -0.043   1.162  35.851 -0.4781 -0.4420  0.3448
15011TIP3    H266525   0.031   1.072  35.947 -0.9868  0.3412  1.5029
15012TIP3   OH266526   0.905   0.519  41.271 -0.1260  0.1579  0.8296
15012TIP3    H166527   0.871   0.597  41.227 -0.8616 -0.3869  0.4247
15012TIP3    H266528   0.957   0.475  41.204  0.7409  0.5629  1.2139
15013TIP3   OH266529   0.000   2.707  12.552 -0.8389  0.0109  0.1345
15013TIP3    H166530  -0.060   2.689  12.624 -1.2277 -0.3106 -0.2734
15013TIP3    H266531   0.079   2.656  12.574 -1.3009 -0.8362 -0.1423
15014TIP3   OH266532   0.610   1.927  13.300 -0.4001 -0.0529  0.0377
15014TIP3    H166533   0.637   1.906  13.390 -0.3922 -1.1445 -0.2073
15014TIP3    H266534   0.523   1.890  13.292  0.2243 -1.3938 -0.9011
15015TIP3   OH266535   1.203   1.517  10.004  0.9682 -0.5128  0.0704
15015TIP3    H166536   1.259   1.540  10.077 -0.0136 -0.2404  0.7635
15015TIP3    H266537   1.129   1.578  10.011  0.2230 -1.3520 -0.3652
15016TIP3   OH266538   3.157   4.367   6.165 -0.6595 -0.4065  0.1005
15016TIP3    H166539   3.134   4.337   6.253 -1.2665 -1.9879 -0.5722
15016TIP3    H266540   3.156   4.288   6.111  1.3110  0.2650 -1.0287
15017TIP3   OH266541   1.802   1.132   1.778 -0.2765  0.4301  0.2864
15017TIP3    H166542   1.829   1.129   1.869  0.6690 -0.6221  0.0056
15017TIP3    H266543   1.839   1.214   1.744  2.1336 -0.6474  0.0898
15018TIP3   OH266544   3.780   2.949   2.418  0.5974 -0.6360  0.1665
15018TIP3    H166545   3.874   2.953   2.434  0.6327 -0.3973 -0.0900
15018TIP3    H266546   3.744   3.021   2.469  0.4509 -1.2648  0.9620
15019TIP3   OH266547   4.051   3.893   1.648  0.5569 -0.3004  0.1320
15019TIP3    H166548   4.031   3.914   1.556 -1.1520 -1.6141  0.1549
15019TIP3    H266549   3.971   3.851   1.680  1.8244 -1.6389  1.6619
15020TIP3   OH266550   2.281   3.552  40.620  0.4667  0.3443  0.3083
15020TIP3    H166551   2.262   3.623  40.682  0.9382  1.9515 -1.2920
15020TIP3    H266552   2.316   3.482  40.675 -4.1628 -0.5467  2.6219
15021TIP3   OH266553   4.082   4.162  39.858 -0.3984 -0.4463  0.0059
15021TIP3    H166554   4.007   4.185  39.912 -1.2625 -0.7376 -1.0333
15021TIP3    H266555   4.112   4.078  39.893  0.1331  0.1670  1.0979
15022TIP3   OH266556   0.889   2.314  30.652 -0.2253  0.6502 -0.3824
15022TIP3    H166557   0.856   2.401  30.629  0.4494  0.5615 -1.8353
15022TIP3    H266558   0.881   2.263  30.571  3.3891  0.6464 -0.9096
15023TIP3   OH266559   3.030   0.857   2.285  0.4795 -0.0311 -0.0888
15023TIP3    H166560   2.956   0.816   2.329 -0.1049 -0.2462 -1.2352
15023TIP3    H266561   3.060   0.925   2.346 -0.1757 -0.4496  0.7110
15024TIP3   OH266562   2.734   4.363   4.157  0.4940 -0.7577  0.8368
15024TIP3    H166563   2.754   4.384   4.248  0.4852 -0.9811  0.8910
15024TIP3    H266564   2.762   4.272   4.147  1.1928 -0.5044  0.4076
15025TIP3   OH266565   3.460   0.785  29.294 -0.7409 -0.4200 -0.5270
15025TIP3    H166566   3.459   0.858  29.232 -0.9633  1.1497  1.2731
15025TIP3    H266567   3.542   0.795  29.342 -1.1244 -0.9408  0.2511
15026TIP3   OH266568   1.437   1.558   7.650  0.3364 -0.2520 -0.7944
15026TIP3    H166569   1.446   1.642   7.604  0.4077  0.2586  0.1169
15026TIP3    H266570   1.526   1.535   7.675  0.2356 -0.1756 -0.3400
15027TIP3   OH266571   0.803   3.552  40.223 -0.1528 -0.1416 -0.1802
15027TIP3    H166572   0.856   3.534  40.301  1.5357  1.5401 -0.8524
15027TIP3    H266573   0.847   3.506  40.152 -0.9983 -0.6974 -0.3517
15028TIP3   OH266574   1.313   3.396  31.319 -0.7345 -0.0996  0.0869
15028TIP3    H166575   1.230   3.426  31.283 -1.0205 -0.1094  0.7300
15028TIP3    H266576   1.299   3.304  31.341 -0.7961  0.0919  0.8839
15029TIP3   OH266577   2.614   2.032  12.914 -0.1761 -0.0292 -0.2787
15029TIP3    H166578   2.537   2.088  12.923 -0.8798 -1.1255  0.8738
15029TIP3    H266579   2.680   2.071  12.972 -0.9071 -0.7472  1.0897
15030TIP3   OH266580   0.502   0.246  21.667 -0.0597  0.5563 -0.1563
15030TIP3    H166581   0.529   0.333  21.696  0.6066  0.9544 -1.8582
15030TIP3    H266582   0.444   0.262  21.593  0.2646 -0.4396 -0.6458
15031TIP3   OH266583   2.045   2.312  33.195 -0.0438  0.1351 -0.0702
15031TIP3    H166584   1.971   2.255  33.215  0.7869 -1.6190 -1.6636
15031TIP3    H266585   2.009   2.382  33.142 -0.6708 -0.3616 -0.3056
15032TIP3   OH266586   3.436   3.603  12.853  0.2983  0.3446 -0.2257
15032TIP3    H166587   3.475   3.523  12.818  0.2679 -0.0530  0.6299
15032TIP3    H266588   3.375   3.573  12.920 -0.4402  1.0393 -0.5650
15033TIP3   OH266589   3.532   2.418   0.095  0.3094 -0.0883 -0.6450
15033TIP3    H166590   3.550   2.399   0.187  2.1693 -0.8550 -1.1216
15033TIP3    H266591   3.493   2.506   0.096 -0.8149 -0.5768  0.9513
15034TIP3   OH266592   1.870   0.312  17.856  0.5901 -0.6604  0.5683
15034TIP3    H166593   1.947   0.254  17.857  1.4012  0.3023  2.8983
15034TIP3    H266594   1.813   0.277  17.925 -0.9329 -1.1325 -0.8780
15035TIP3   OH266595   1.849   4.392  14.424 -0.1438  0.2902 -0.0361
15035TIP3    H166596   1.840   4.298  14.437 -1.4491  0.2419 -1.0963
15035TIP3    H266597   1.939   4.411  14.450  0.1982 -1.2696  0.0261
15036TIP3   OH266598   1.358   3.454  36.927 -0.5156  0.2706 -0.3674
15036TIP3    H166599   1.406   3.533  36.906 -2.5770  1.2184 -1.9297
15036TIP3    H266600   1.394   3.387  36.868  0.6873  0.2165  0.4000
15037TIP3   OH266601   3.867   2.906  39.259 -0.4012 -0.0886 -0.2488
15037TIP3    H166602   3.836   2.883  39.171  1.0051  0.2843 -0.8751
15037TIP3    H266603   3.787   2.925  39.308 -1.2736 -1.1907 -1.1815
15038TIP3   OH266604   1.690   1.853  37.021 -0.1811  0.1233 -0.4893
15038TIP3    H166605   1.609   1.860  36.970  0.7613 -0.4445 -2.1391
15038TIP3    H266606   1.705   1.942  37.054 -0.5966  0.6332 -1.5990
15039TIP3   OH266607   0.051   2.242   8.615  0.2327 -0.1858  0.5814
15039TIP3    H166608   0.117   2.184   8.653  0.8820  0.2976  0.2163
15039TIP3    H266609   0.004   2.278   8.690  1.6759  0.9758  0.9660
15040TIP3   OH266610   0.024   1.693   9.376 -0.5366 -0.0111  0.4411
15040TIP3    H166611   0.099   1.695   9.317 -2.0949  0.7952 -1.6300
15040TIP3    H266612  -0.035   1.628   9.338 -2.0516  1.3040  0.4364
15041TIP3   OH266613   4.083   0.765   8.103  0.0394  0.5191 -0.3297
15041TIP3    H166614   4.127   0.845   8.073 -1.8304  1.8444  0.2668
15041TIP3    H266615   4.124   0.744   8.186 -0.7759  2.0929  0.5186
15042TIP3   OH266616   0.825   1.562   6.078  0.0063 -0.1200 -0.8844
15042TIP3    H166617   0.749   1.562   6.135 -0.6114 -1.3638 -1.6606
15042TIP3    H266618   0.893   1.608   6.128 -0.5890 -0.9173  0.7073
15043TIP3   OH266619   2.939   1.659   8.548  0.6465 -0.2198  0.7209
15043TIP3    H166620   2.948   1.571   8.584  1.3663 -1.2725 -1.8435
15043TIP3    H266621   2.850   1.663   8.515  1.1288 -0.6789 -0.7267
15044TIP3   OH266622   3.200   3.283  30.159 -0.9326 -0.9726  0.7937
15044TIP3    H166623   3.235   3.195  30.151  0.6187 -0.3946  0.8853
15044TIP3    H266624   3.147   3.295  30.080  2.4457 -0.4646 -1.5966
15045TIP3   OH266625   1.687   1.998  10.436  0.2420  0.0694  0.5268
15045TIP3    H166626   1.622   1.933  10.462 -1.4875  0.4029 -2.5690
15045TIP3    H266627   1.707   2.045  10.517  0.2645 -3.0819  2.5279
15046TIP3   OH266628   3.734   2.393  22.193  0.3027 -0.3865  0.2940
15046TIP3    H166629   3.691   2.381  22.278 -0.4666 -0.3939 -0.0866
15046TIP3    H266630   3.757   2.305  22.165  1.5677 -0.2950  0.9966
15047TIP3   OH266631   1.965   3.633  34.796  0.5334 -0.3684  0.2571
15047TIP3    H166632   2.000   3.722  34.793 -0.0084 -0.1668 -0.3523
15047TIP3    H266633   1.908   3.632  34.873 -1.6297  0.6768 -1.2162
15048TIP3   OH266634   0.046   1.876  28.174  0.4792  0.1798 -0.0006
15048TIP3    H166635   0.077   1.921  28.252  1.4783 -0.2569 -0.1265
15048TIP3    H266636  -0.046   1.856  28.192  1.1912 -1.8130  1.9905
15049TIP3   OH266637   2.668   0.111   5.919 -0.3468  0.1738  0.4092
15049TIP3    H166638   2.760   0.110   5.944  0.2594  1.8043 -1.5448
15049TIP3    H266639   2.621   0.119   6.002  1.2503 -0.4347  1.4199
15050TIP3   OH266640   2.911   1.332  34.876  0.0406  0.0084 -0.2673
15050TIP3    H166641   2.887   1.314  34.785  0.8811  0.8180 -0.6596
15050TIP3    H266642   3.006   1.339  34.875  0.0979 -0.4441  0.7698
15051TIP3   OH266643   4.064   0.363   0.702  0.0656 -0.3625 -0.1643
15051TIP3    H166644   4.142   0.308   0.704 -0.6240 -1.4410 -1.3634
15051TIP3    H266645   4.097   0.453   0.713  1.1482 -1.0053  2.5198
15052TIP3   OH266646   3.025   1.610  33.775  0.9841  0.8213  0.3815
15052TIP3    H166647   3.109   1.641  33.741 -0.0412  1.2566 -1.9430
15052TIP3    H266648   2.988   1.686  33.820  0.9272  1.2998 -0.4483
15053TIP3   OH266649   1.780   3.877  36.326 -0.1984  0.4346  0.2964
15053TIP3    H166650   1.804   3.834  36.244 -0.4637  0.8137  0.0152
15053TIP3    H266651   1.709   3.823  36.362 -0.6928  0.7636 -0.1722
15054TIP3   OH266652   0.375   0.322   5.691  0.2453  0.0623 -0.0652
15054TIP3    H166653   0.457   0.365   5.665  0.5553  1.0413  2.2697
15054TIP3    H266654   0.308   0.365   5.639  0.9683  0.8940 -0.3370
15055TIP3   OH266655   2.755   1.406   5.417  0.1247 -0.1825 -0.1482
15055TIP3    H166656   2.729   1.468   5.349 -0.4978 -0.8878 -0.5698
15055TIP3    H266657   2.703   1.328   5.399 -0.9314 -0.0038  1.8112
15056TIP3   OH266658   1.368   1.135  26.637 -0.2831  0.4156 -0.8947
15056TIP3    H166659   1.440   1.098  26.689 -0.8141  1.8288  0.9389
15056TIP3    H266660   1.289   1.098  26.675 -0.6387  0.5295 -1.5089
15057TIP3   OH266661   1.689   2.434  33.773 -0.5224 -0.1668  0.1527
15057TIP3    H166662   1.649   2.372  33.711  2.0443  0.3883 -2.2795
15057TIP3    H266663   1.765   2.387  33.806  1.3201  1.4703 -1.5382
15058TIP3   OH266664   1.348   0.040  36.534 -0.1289 -0.0710  0.1242
15058TIP3    H166665   1.266  -0.010  36.536  0.2359 -0.6392  1.9438
15058TIP3    H266666   1.398  -0.000  36.463 -0.8250 -0.6979 -0.0244
15059TIP3   OH266667   0.626   2.148  12.594  0.8509  0.2853 -0.7902
15059TIP3    H166668   0.641   2.242  12.602 -0.3752  0.6039 -1.8656
15059TIP3    H266669   0.536   2.141  12.564  0.1131 -1.3540  1.5682
15060TIP3   OH266670   1.256   3.830   5.861 -0.2585 -0.4839  0.1957
15060TIP3    H166671   1.294   3.861   5.780  0.4749 -2.8523 -0.4332
15060TIP3    H266672   1.292   3.742   5.874 -1.4354 -0.7441  2.3473
15061TIP3   OH266673   1.329   0.953  41.190 -0.2357 -0.1611 -0.5787
15061TIP3    H166674   1.380   0.966  41.110  0.4150  0.0020 -0.1428
15061TIP3    H266675   1.377   0.885  41.238 -1.2423 -1.0991 -0.8442
15062TIP3   OH266676   0.526   3.397  11.570 -0.1332 -0.2521 -0.3553
15062TIP3    H166677   0.604   3.395  11.513 -0.5709  0.4066 -1.0063
15062TIP3    H266678   0.535   3.479  11.618 -0.0240 -0.5647  0.1550
15063TIP3   OH266679   0.050   0.686  40.619  0.2714 -0.2915  0.1404
15063TIP3    H166680   0.110   0.622  40.581  1.5069  0.1004  1.3718
15063TIP3    H266681   0.079   0.770  40.583  1.3146  0.0536  1.7175
15064TIP3   OH266682   3.038   0.889  32.619 -0.0086  0.5872  0.2598
15064TIP3    H166683   3.086   0.937  32.551  2.3608 -1.1173  0.6123
15064TIP3    H266684   2.975   0.836  32.570  1.1067 -0.0022 -0.5921
15065TIP3   OH266685   2.519   4.024   8.150 -0.4178 -0.1383 -0.1464
15065TIP3    H166686   2.586   3.956   8.140  0.2445  0.1890  1.7073
15065TIP3    H266687   2.437   3.976   8.157 -0.1636 -0.6478 -0.6308
15066TIP3   OH266688   0.653   1.682  28.797 -0.1730  0.1476  0.5757
15066TIP3    H166689   0.579   1.702  28.854 -1.3223 -0.1248 -0.7527
15066TIP3    H266690   0.652   1.587  28.788 -0.2956  0.2216 -0.2542
15067TIP3   OH266691   0.985   2.529   9.561  0.1306 -1.1769 -0.0100
15067TIP3    H166692   1.021   2.600   9.508  1.0486 -1.9688 -0.4561
15067TIP3    H266693   1.057   2.467   9.572 -0.3076 -1.4750  1.4005
15068TIP3   OH266694   0.022   3.049  33.887 -0.2597  0.2805  0.4839
15068TIP3    H166695  -0.037   3.113  33.847 -0.3325 -0.5629 -0.8132
15068TIP3    H266696   0.110   3.081  33.865 -0.2301 -2.1861 -3.9782
15069TIP3   OH266697   3.120   2.086   0.894 -0.2708 -0.5467  0.0476
15069TIP3    H166698   3.025   2.084   0.880 -0.2452 -0.6420 -0.1164
15069TIP3    H266699   3.134   2.162   0.951 -0.6721 -1.7405  1.8356
15070TIP3   OH266700   1.680   2.269  14.506 -0.3638 -0.0056  0.0343
15070TIP3    H166701   1.727   2.299  14.428 -0.8025  1.8919  0.4537
15070TIP3    H266702   1.708   2.178  14.517  1.9247  0.5482 -0.6666
15071TIP3   OH266703   3.589   0.780   8.181 -0.7645  1.0909  0.4152
15071TIP3    H166704   3.552   0.747   8.099 -0.3054 -0.6113  0.8439
15071TIP3    H266705   3.527   0.752   8.248  0.1621  0.1037  0.9063
15072TIP3   OH266706   1.771   3.761   2.239  0.1903 -0.0097 -0.3203
15072TIP3    H166707   1.686   3.755   2.283 -0.2985 -0.2401 -1.2675
15072TIP3    H266708   1.832   3.720   2.300 -0.4803 -0.3877  0.1182
15073TIP3   OH266709   2.369   3.685  32.969  0.2476  0.0138 -0.3907
15073TIP3    H166710   2.297   3.644  32.920 -0.3415  1.1686 -0.5214
15073TIP3    H266711   2.342   3.679  33.060 -0.1663  0.7211 -0.4634
15074TIP3   OH266712   0.041   3.686  30.379  0.0209 -0.2347  0.1467
15074TIP3    H166713   0.116   3.745  30.381 -0.5092  0.5256 -1.3195
15074TIP3    H266714  -0.013   3.718  30.307 -2.1451 -0.2691  1.6965
15075TIP3   OH266715   0.348   2.338  38.451  0.1647  0.3522 -0.0149
15075TIP3    H166716   0.383   2.352  38.362 -1.5939  0.0840 -0.7937
15075TIP3    H266717   0.403   2.393  38.507  0.1597  2.0102 -1.5414
15076TIP3   OH266718   0.951   0.738  30.905  0.2020  0.4732 -0.2024
15076TIP3    H166719   0.992   0.657  30.877 -0.1857  0.8648 -2.0152
15076TIP3    H266720   0.937   0.788  30.824 -0.6597  1.8357  0.7303
15077TIP3   OH266721   1.702   1.679   4.404 -0.2523  0.0669  0.1022
15077TIP3    H166722   1.704   1.774   4.390  0.0444  0.1303  0.5334
15077TIP3    H266723   1.610   1.658   4.411 -0.3121  0.3751  0.2961
15078TIP3   OH266724   2.174   0.341  11.748 -0.6877  0.8452 -0.0134
15078TIP3    H166725   2.149   0.257  11.785  1.5769  0.4718  0.8232
15078TIP3    H266726   2.134   0.406  11.807 -0.0010  0.2940  1.0855
15079TIP3   OH266727   0.081   0.338  28.095 -0.7301 -0.2302  0.4336
15079TIP3    H166728   0.018   0.399  28.135 -1.0061 -1.6878  2.3530
15079TIP3    H266729   0.112   0.285  28.168  2.0302 -0.2242 -0.6308
15080TIP3   OH266730   2.759   1.323  34.425  0.0846 -0.1582 -0.0409
15080TIP3    H166731   2.767   1.400  34.481 -1.6304 -0.9654  1.3943
15080TIP3    H266732   2.784   1.250  34.480 -1.0380 -0.9157 -0.5083
15081TIP3   OH266733   1.636   0.236  38.049  0.0523 -0.1093 -0.5998
15081TIP3    H166734   1.567   0.183  38.089  1.4007 -3.0169 -1.8454
15081TIP3    H266735   1.596   0.272  37.970  0.1325 -2.6129 -1.8729
15082TIP3   OH266736   3.069   3.664  38.113  0.1127  0.1913 -0.2474
15082TIP3    H166737   3.093   3.579  38.148 -1.3320 -0.0261  0.2846
15082TIP3    H266738   3.130   3.725  38.153 -0.9040 -0.1681  1.9716
15083TIP3   OH266739   0.989   3.843   6.153 -0.7534 -0.2423 -0.0045
15083TIP3    H166740   0.979   3.866   6.061  1.6175  0.4885 -0.1549
15083TIP3    H266741   0.986   3.927   6.199 -0.7799 -0.4859  0.4483
15084TIP3   OH266742   1.676   0.326  13.794 -0.6968  0.4327 -0.1987
15084TIP3    H166743   1.721   0.251  13.832  0.7562  1.3750  0.0242
15084TIP3    H266744   1.714   0.336  13.707  0.2220  1.7907  0.3316
15085TIP3   OH266745   1.736   0.969  37.638 -0.3552  0.0624 -1.1867
15085TIP3    H166746   1.805   1.017  37.683  1.2811 -1.5556 -1.8625
15085TIP3    H266747   1.670   0.952  37.706  1.5376 -1.3596  0.4160
15086TIP3   OH266748   2.677   0.859   5.336  0.4539  0.5955  0.1385
15086TIP3    H166749   2.665   0.783   5.392  1.6325  0.2505 -0.0403
15086TIP3    H266750   2.748   0.833   5.277 -1.6708  0.3742 -2.5025
15087TIP3   OH266751   1.114   2.790  10.739 -0.3014  0.8304  0.5084
15087TIP3    H166752   1.105   2.843  10.818  0.3409 -1.0940  1.9479
15087TIP3    H266753   1.155   2.849  10.675 -0.2906  2.2673  1.7907
15088TIP3   OH266754   3.001   0.546  34.683  0.4479 -0.2434 -0.4067
15088TIP3    H166755   3.018   0.459  34.719 -0.9928 -0.2730  0.2745
15088TIP3    H266756   2.933   0.582  34.739 -1.0657  0.1832 -2.4273
15089TIP3   OH266757   1.330   1.579   1.224  0.4407  0.5650  0.0820
15089TIP3    H166758   1.326   1.620   1.138  0.7853  1.3105  0.4047
15089TIP3    H266759   1.392   1.507   1.214 -0.4454 -0.1137 -0.5837
15090TIP3   OH266760   2.041   2.893  10.245  0.2801 -0.1302 -0.2912
15090TIP3    H166761   1.980   2.833  10.202 -0.2191  0.2353 -0.1079
15090TIP3    H266762   2.105   2.836  10.288  0.4179 -0.5073 -0.9893
15091TIP3   OH266763   3.806   3.987  31.435  0.5232  0.1775 -0.0214
15091TIP3    H166764   3.878   4.041  31.402  0.3758  1.8381  2.1579
15091TIP3    H266765   3.736   3.998  31.370  0.5614  2.5365  0.2326
15092TIP3   OH266766   0.911   3.415  39.996  0.3564 -0.1654 -0.1042
15092TIP3    H166767   0.922   3.466  39.916 -2.7830 -0.6290 -0.9711
15092TIP3    H266768   0.927   3.325  39.971  0.8187 -0.1578  0.1559
15093TIP3   OH266769   0.443   3.813  25.700 -0.2992 -0.6661  0.1548
15093TIP3    H166770   0.415   3.760  25.625 -1.6325 -1.0928  0.9256
15093TIP3    H266771   0.411   3.901  25.680  1.5266 -0.1914 -0.9142
15094TIP3   OH266772   1.846   0.519  36.422 -0.3785  0.1221  0.0101
15094TIP3    H166773   1.827   0.448  36.484  0.0021 -0.8303 -0.9196
15094TIP3    H266774   1.928   0.492  36.380 -1.1126  0.2567 -1.5644
15095TIP3   OH266775   1.012   2.582  12.468 -0.1620  0.3088 -0.1016
15095TIP3    H166776   1.066   2.592  12.390 -1.9399 -0.2407 -1.4608
15095TIP3    H266777   0.925   2.562  12.435 -1.0742  0.4699  2.0280
15096TIP3   OH266778   1.923   0.713  15.089 -0.7882  0.3838 -0.8021
15096TIP3    H166779   1.900   0.671  15.172  0.9077  1.4545  0.2706
15096TIP3    H266780   1.876   0.662  15.023 -0.2122 -2.0902  0.5624
15097TIP3   OH266781   0.986   0.359  40.507 -0.3785 -0.1780 -0.1021
15097TIP3    H166782   1.063   0.375  40.561  0.2135  0.3868 -1.0802
15097TIP3    H266783   1.016   0.295  40.442 -0.9916 -0.6290  0.0582
15098TIP3   OH266784   3.225   1.218  39.138 -0.0141  0.3202 -0.4912
15098TIP3    H166785   3.219   1.131  39.178 -0.0028 -0.0561 -1.2939
15098TIP3    H266786   3.263   1.274  39.206  1.3530 -0.6184 -0.4552
15099TIP3   OH266787   1.575   4.313  35.252 -0.1792 -0.2080  0.1193
15099TIP3    H166788   1.545   4.386  35.305 -0.0059 -0.0479 -0.0013
15099TIP3    H266789   1.531   4.236  35.289 -2.0494  0.2229 -1.0588
15100TIP3   OH266790   4.156   1.283  27.006  0.3974 -0.4945  0.9007
15100TIP3    H166791   4.223   1.264  26.940 -0.4081  0.9188 -0.4071
15100TIP3    H266792   4.073   1.275  26.959 -0.3684 -1.8086  2.3816
15101TIP3   OH266793   0.855   3.974   2.809  0.5337  0.3246  0.2130
15101TIP3    H166794   0.850   4.065   2.836  0.5903 -0.0828  1.6830
15101TIP3    H266795   0.811   3.972   2.724  0.2613  1.6607  0.2991
15102TIP3   OH266796   1.271   3.300  37.144  0.0626 -0.0969  0.2534
15102TIP3    H166797   1.251   3.226  37.087 -2.5563  2.1881 -2.1380
15102TIP3    H266798   1.298   3.370  37.085  0.4551  1.4796  2.1742
15103TIP3   OH266799   4.386   3.736  33.159  0.6122 -0.1084 -0.7343
15103TIP3    H166800   4.347   3.649  33.169 -0.8121  0.6099  0.6779
15103TIP3    H266801   4.415   3.759  33.247  2.2376  0.3118 -1.3536
15104TIP3   OH266802   2.069   3.105   2.682  0.0855  0.2484  0.4562
15104TIP3    H166803   1.987   3.061   2.706  0.0524  0.1089  0.0867
15104TIP3    H266804   2.135   3.064   2.738 -0.1773  0.7364  1.1501
15105TIP3   OH266805   1.061   1.238   0.232 -0.3162  0.1250  0.0943
15105TIP3    H166806   1.146   1.203   0.259  0.5739  1.2102 -1.1337
15105TIP3    H266807   1.078   1.276   0.145 -2.7836 -2.4817 -1.7157
15106TIP3   OH266808   1.445   1.464  35.087  0.1987  0.2262 -0.8141
15106TIP3    H166809   1.529   1.510  35.080 -0.6947  1.8764 -1.3447
15106TIP3    H266810   1.400   1.509  35.157 -0.4592 -0.3076 -0.8894
15107TIP3   OH266811   1.304   0.862  12.170  0.1637 -0.3027 -0.0984
15107TIP3    H166812   1.355   0.827  12.097 -0.4837  0.6960 -1.0738
15107TIP3    H266813   1.220   0.817  12.165  0.3650 -0.7465  0.4780
15108TIP3   OH266814   0.345   0.925   2.976 -0.1319 -0.2330 -0.1607
15108TIP3    H166815   0.289   0.857   3.013 -1.5078  1.8669  1.9674
15108TIP3    H266816   0.284   0.995   2.952  1.4027  1.3787  0.4101
15109TIP3   OH266817   4.061   2.121  21.243  0.0550  0.0748  0.0262
15109TIP3    H166818   3.984   2.072  21.216 -0.2810 -0.5739  2.0141
15109TIP3    H266819   4.133   2.081  21.195 -0.8851  1.3198 -2.6163
15110TIP3   OH266820   4.324   3.845  28.824  0.2213 -0.0104 -0.1517
15110TIP3    H166821   4.375   3.895  28.887 -0.2663 -1.4549  1.4661
15110TIP3    H266822   4.257   3.905  28.793  0.9369  0.9450  0.1146
15111TIP3   OH266823   4.127   3.727   4.991  0.1331 -0.0372  0.5949
15111TIP3    H166824   4.176   3.656   5.031 -0.0326 -0.0958  0.6941
15111TIP3    H266825   4.061   3.751   5.056  1.6143  1.7469  1.5475
15112TIP3   OH266826   3.774   2.384  33.020 -0.5760 -0.0405  0.1348
15112TIP3    H166827   3.840   2.340  33.073  0.9696  1.1957 -0.6993
15112TIP3    H266828   3.735   2.449  33.079  1.1732  1.3683 -0.1657
15113TIP3   OH266829   2.516   0.010   0.939  0.2100  0.7026  0.1652
15113TIP3    H166830   2.518  -0.061   1.003  1.1016 -1.0061 -1.6723
15113TIP3    H266831   2.425   0.039   0.938 -0.0182  0.1186  1.4571
15114TIP3   OH266832   1.848   2.105   3.472 -0.0963  0.2441 -0.1509
15114TIP3    H166833   1.854   2.184   3.526 -1.2112  1.0408 -1.1325
15114TIP3    H266834   1.806   2.040   3.528  0.9351  0.2920  0.7063
15115TIP3   OH266835   1.447   2.436  39.039 -0.4118 -0.2872  0.3336
15115TIP3    H166836   1.515   2.369  39.029 -0.8123 -0.5167 -1.2123
15115TIP3    H266837   1.457   2.468  39.128  0.3922 -1.7568  0.8050
15116TIP3   OH266838   0.308   3.836  41.168  0.8378 -0.7561  0.1272
15116TIP3    H166839   0.288   3.885  41.089 -3.2056 -1.7285  0.2958
15116TIP3    H266840   0.304   3.901  41.238 -3.2975 -0.7982  0.2092
15117TIP3   OH266841   2.346   2.592  37.250 -0.1233  0.0512  0.4850
15117TIP3    H166842   2.286   2.662  37.226  0.3039 -0.3269 -1.9821
15117TIP3    H266843   2.397   2.575  37.170  2.1148 -0.7857  1.9723
15118TIP3   OH266844   1.087   2.189  14.676 -0.6338  0.5081  0.0994
15118TIP3    H166845   1.119   2.199  14.766 -0.4785  0.6695  0.0260
15118TIP3    H266846   1.000   2.149  14.686  0.4763 -2.0339  0.1961
15119TIP3   OH266847   0.999   2.485   7.978 -0.2251  0.3024 -0.0742
15119TIP3    H166848   0.904   2.493   7.988 -0.2152  0.6410 -0.2444
15119TIP3    H266849   1.032   2.574   7.987  0.0151  0.2726 -0.6521
15120TIP3   OH266850   0.147   1.891   1.260 -0.1641  0.0248  0.0570
15120TIP3    H166851   0.207   1.816   1.259  0.7218  0.7203  0.1063
15120TIP3    H266852   0.177   1.946   1.188 -1.1817  0.0643 -0.3582
15121TIP3   OH266853   0.026   2.374   1.435 -0.2950 -0.3435 -0.0753
15121TIP3    H166854   0.100   2.434   1.428 -1.6798  1.3377 -1.1402
15121TIP3    H266855   0.029   2.322   1.354  0.3388 -1.0818  0.4032
15122TIP3   OH266856   4.359   0.821   4.698 -0.3315  0.5790 -0.5577
15122TIP3    H166857   4.359   0.911   4.729  1.7278  0.8460 -1.1994
15122TIP3    H266858   4.431   0.779   4.745 -0.3442 -0.3361 -1.3110
15123TIP3   OH266859   1.225   1.740  34.680  0.1967 -0.0300 -0.0373
15123TIP3    H166860   1.173   1.727  34.600  0.4129 -0.3682 -0.1225
15123TIP3    H266861   1.234   1.835  34.687 -2.2936  0.2036  1.1596
15124TIP3   OH266862   0.384   0.603  29.589  0.7378 -0.3359 -0.0435
15124TIP3    H166863   0.476   0.615  29.614  0.3485  0.1319  1.2431
15124TIP3    H266864   0.358   0.522  29.633  0.4060 -0.1990  0.0179
15125TIP3   OH266865   3.594   3.116   8.325 -0.2295  0.2712 -0.1609
15125TIP3    H166866   3.643   3.190   8.360 -0.0169  1.3795 -2.6184
15125TIP3    H266867   3.506   3.127   8.360 -1.1720  3.7551 -3.0247
15126TIP3   OH266868   1.620   2.808  15.867  0.1781  0.3396 -0.1955
15126TIP3    H166869   1.536   2.852  15.856  0.5158  0.7938 -1.0982
15126TIP3    H266870   1.643   2.823  15.959 -0.9885 -0.2934  0.2111
15127TIP3   OH266871   2.786   0.250   9.667  0.1349  0.6416  0.1835
15127TIP3    H166872   2.851   0.187   9.698  1.1807  0.6194 -1.8840
15127TIP3    H266873   2.731   0.199   9.606 -0.2255  1.2613 -0.0151
15128TIP3   OH266874   1.020   3.754  16.284 -0.6958 -0.0141  0.4538
15128TIP3    H166875   1.064   3.757  16.369 -0.9982 -1.4281  0.6832
15128TIP3    H266876   1.024   3.844  16.252  1.7946  0.0470  0.7517
15129TIP3   OH266877   1.275   2.876  39.353  0.8514  0.4289  0.2477
15129TIP3    H166878   1.330   2.822  39.295 -1.0051  1.2215 -2.4688
15129TIP3    H266879   1.250   2.817  39.424  3.2012 -0.6350  0.3117
15130TIP3   OH266880   4.324   2.920  38.098  0.3666  0.0458 -0.2071
15130TIP3    H166881   4.387   2.923  38.027  1.8050  2.1663  1.0623
15130TIP3    H266882   4.274   3.001  38.090  0.5039  0.2861  1.1319
15131TIP3   OH266883   0.197   2.505   8.030 -0.2291 -0.0299 -0.4239
15131TIP3    H166884   0.189   2.537   8.120 -1.2157 -0.3992 -0.3615
15131TIP3    H266885   0.190   2.583   7.976  1.8215  0.3861 -0.1636
15132TIP3   OH266886   0.802   4.394  30.886  0.1083 -0.2526 -0.1223
15132TIP3    H166887   0.874   4.337  30.912 -1.5706 -1.4864  2.3142
15132TIP3    H266888   0.762   4.422  30.969  0.3062  3.9133 -1.1952
15133TIP3   OH266889   3.407   4.146   2.581  0.4893  0.6137  0.3477
15133TIP3    H166890   3.481   4.169   2.523 -0.1175 -0.7235 -1.0244
15133TIP3    H266891   3.371   4.066   2.543 -0.5721  0.2431  2.0420
15134TIP3   OH266892   2.713   0.560   7.628  0.2421  0.3639  0.6183
15134TIP3    H166893   2.663   0.632   7.667 -1.6460  0.3497 -1.5834
15134TIP3    H266894   2.728   0.588   7.538  2.1446 -0.7328  0.5552
15135TIP3   OH266895   3.584   2.087  33.048  0.9356  0.3404  0.5816
15135TIP3    H166896   3.553   2.012  33.098  0.5914  0.8607  1.1701
15135TIP3    H266897   3.505   2.132  33.019  1.1345  0.1568 -0.2727
15136TIP3   OH266898   3.038   0.573  31.551  0.1222  1.1104 -0.1827
15136TIP3    H166899   3.024   0.654  31.599 -0.8572 -0.2511  2.0017
15136TIP3    H266900   3.115   0.533  31.592  1.0871  1.2501 -1.7595
15137TIP3   OH266901   2.043   3.443  36.336 -0.3699 -0.2092  1.0797
15137TIP3    H166902   2.089   3.511  36.288 -0.9427 -0.3898  0.2614
15137TIP3    H266903   2.106   3.371  36.343 -0.1728 -0.0534  0.9055
15138TIP3   OH266904   2.089   1.453  11.434  0.5181 -0.1098  0.2178
15138TIP3    H166905   2.140   1.398  11.494 -1.1603 -1.7775  0.2157
15138TIP3    H266906   2.073   1.533  11.484  1.1590 -0.4916  1.0826
15139TIP3   OH266907   3.009   2.459  39.118 -0.5084  0.4823  0.6561
15139TIP3    H166908   2.930   2.450  39.172 -1.1498  0.0124 -0.3374
15139TIP3    H266909   2.986   2.521  39.050  0.1662  0.7492  0.6541
15140TIP3   OH266910   2.603   0.310   8.884  0.2703 -0.0770 -0.6991
15140TIP3    H166911   2.567   0.361   8.956 -2.1889  1.2402 -2.6736
15140TIP3    H266912   2.679   0.264   8.921  0.2280  1.9478  2.1747
15141TIP3   OH266913   2.120   0.530  33.223 -0.2523  0.9960  0.0187
15141TIP3    H166914   2.092   0.601  33.281 -0.7071  0.1253  0.8898
15141TIP3    H266915   2.088   0.556  33.136  0.4777  2.3315  0.1233
15142TIP3   OH266916   3.841   0.788  31.290 -0.3482  0.2225 -0.2827
15142TIP3    H166917   3.765   0.784  31.347 -0.2816  1.3538 -0.0981
15142TIP3    H266918   3.907   0.732  31.333 -0.4565  0.6971  0.5011
15143TIP3   OH266919   4.193   1.341  21.109  0.1622 -0.4889  0.4945
15143TIP3    H166920   4.158   1.338  21.019 -1.1659 -1.6536  1.0153
15143TIP3    H266921   4.126   1.386  21.159 -0.2593 -2.0316  1.3643
15144TIP3   OH266922   4.398   0.609   9.590 -0.2414  0.4737  0.2762
15144TIP3    H166923   4.373   0.680   9.531  0.1043  0.0907 -0.3464
15144TIP3    H266924   4.455   0.650   9.655  0.8907  0.5744 -0.7349
15145TIP3   OH266925   2.548   0.454  37.364  0.6880  0.1591 -0.4701
15145TIP3    H166926   2.624   0.510  37.374  1.3496 -0.8807  0.5722
15145TIP3    H266927   2.491   0.477  37.437  1.0232 -0.5928  0.0416
15146TIP3   OH266928   1.400   3.239  14.444 -0.2314  0.1034  0.1502
15146TIP3    H166929   1.349   3.173  14.491  0.9707 -0.2895  0.9494
15146TIP3    H266930   1.365   3.238  14.355 -0.3417 -1.5064  0.1830
15147TIP3   OH266931   0.502   3.413   0.087  0.2754  0.0447  0.7205
15147TIP3    H166932   0.417   3.397   0.127  0.8375  1.3694  2.6225
15147TIP3    H266933   0.500   3.365   0.005 -2.5505  0.5896  0.3734
15148TIP3   OH266934   0.040   4.283  31.223  1.0574  0.4952  0.5854
15148TIP3    H166935   0.124   4.281  31.268  1.5935  3.8608 -0.0118
15148TIP3    H266936  -0.025   4.278  31.293  1.8653  3.6816  1.7113
15149TIP3   OH266937   0.171   0.577  26.722 -0.3520  0.3469  0.1123
15149TIP3    H166938   0.092   0.546  26.766 -0.6263  1.1041  0.1630
15149TIP3    H266939   0.226   0.610  26.793  0.5552 -1.2668  0.2318
15150TIP3   OH266940   0.466   4.079  36.935 -0.2277 -0.6702  0.3815
15150TIP3    H166941   0.548   4.130  36.936 -0.6462  0.0231  0.4753
15150TIP3    H266942   0.481   4.009  36.999 -0.2520  0.3627  1.5657
15151TIP3   OH266943   1.204   0.496   3.036  0.2916 -0.9358 -0.1424
15151TIP3    H166944   1.224   0.487   2.943  1.2534 -1.0186  0.0596
15151TIP3    H266945   1.257   0.428   3.078 -0.5638 -1.2682  0.4180
15152TIP3   OH266946   0.315   1.410   9.876 -0.0768  0.2159  0.2183
15152TIP3    H166947   0.320   1.327   9.830  1.5560  0.7630 -0.6645
15152TIP3    H266948   0.308   1.386   9.969  2.8963 -1.0029  0.2420
15153TIP3   OH266949   3.602   3.634   1.918  0.1172  0.0511  0.1558
15153TIP3    H166950   3.643   3.709   1.873 -1.2233 -0.3065 -1.7776
15153TIP3    H266951   3.556   3.587   1.849 -3.0461  0.0538  2.0590
15154TIP3   OH266952   3.765   1.853   2.859 -0.3265 -0.5238 -0.7200
15154TIP3    H166953   3.669   1.849   2.850 -0.3143  0.5985 -1.5965
15154TIP3    H266954   3.782   1.820   2.947 -1.6184  0.3738 -0.0967
15155TIP3   OH266955   1.552   3.568   8.435 -0.0076 -0.1103 -0.4396
15155TIP3    H166956   1.549   3.490   8.490 -2.6652  0.8373  0.9696
15155TIP3    H266957   1.578   3.638   8.494 -0.7446  0.5718 -0.9051
15156TIP3   OH266958   0.049   0.557   2.814 -0.1523  0.1831 -0.4301
15156TIP3    H166959   0.039   0.496   2.887 -1.6898 -0.3614 -1.0469
15156TIP3    H266960  -0.016   0.528   2.750  1.6759  0.1947 -2.3680
15157TIP3   OH266961   0.316   2.683   5.067  0.1839 -0.4589  0.2244
15157TIP3    H166962   0.332   2.590   5.053  0.0995 -0.3693 -0.5196
15157TIP3    H266963   0.221   2.691   5.067  0.1959 -0.3105 -0.1618
15158TIP3   OH266964   0.367   3.583  35.174  0.4178  0.5525  0.3944
15158TIP3    H166965   0.345   3.532  35.252  0.5923  0.9834  0.7282
15158TIP3    H266966   0.307   3.551  35.107  2.6927 -2.4875 -0.3854
15159TIP3   OH266967   3.613   0.578  28.513  0.0661  0.4437 -0.1129
15159TIP3    H166968   3.560   0.643  28.559  1.7359  0.9617  1.1817
15159TIP3    H266969   3.685   0.628  28.474 -0.3806 -0.2310 -1.8963
15160TIP3   OH266970   2.650   3.412  10.949  0.4762 -0.6048  0.3657
15160TIP3    H166971   2.738   3.425  10.914  1.2017 -1.6684  1.7227
15160TIP3    H266972   2.628   3.322  10.925  0.2186 -0.7089  0.9771
15161TIP3   OH266973   3.107   3.013  12.940  0.0449 -0.2476  0.4721
15161TIP3    H166974   3.034   2.953  12.922  0.0799 -0.3882  0.7877
15161TIP3    H266975   3.148   2.977  13.019 -0.8930  1.0897  1.6165
15162TIP3   OH266976   1.152   2.104  28.376 -0.0453  0.1719 -0.3826
15162TIP3    H166977   1.079   2.078  28.432 -0.2784  0.3082 -0.6229
15162TIP3    H266978   1.119   2.179  28.326  0.9100  1.4976  0.9168
15163TIP3   OH266979   2.445   1.325   4.295 -0.1592 -0.3269  0.0873
15163TIP3    H166980   2.425   1.233   4.276 -2.3497  0.0644  0.2585
15163TIP3    H266981   2.360   1.369   4.295  0.4087  1.1023  3.3147
15164TIP3   OH266982   2.884   1.532   7.440 -0.1290  0.0098 -0.0560
15164TIP3    H166983   2.970   1.500   7.468 -0.5002 -0.4961  0.5290
15164TIP3    H266984   2.900   1.572   7.354  0.6951 -0.0511  0.0631
15165TIP3   OH266985   1.361   3.165  13.125 -0.3096 -0.4908  0.5383
15165TIP3    H166986   1.305   3.232  13.165 -0.0472 -0.4867  0.9061
15165TIP3    H266987   1.314   3.138  13.046  0.0118  0.7785 -0.1086
15166TIP3   OH266988   2.584   3.699  38.454 -0.7783 -0.0537 -0.0465
15166TIP3    H166989   2.618   3.643  38.524  1.2521  0.4067 -0.6130
15166TIP3    H266990   2.661   3.727  38.405 -1.2474  5.0997  1.5352
15167TIP3   OH266991   1.054   1.004  40.971 -0.4095 -0.6083 -0.3727
15167TIP3    H166992   1.129   0.947  40.957  0.4831 -0.1304  2.0142
15167TIP3    H266993   1.090   1.084  41.008 -1.9834  0.0285 -0.1069
15168TIP3   OH266994   3.201   0.450  35.795  0.1494 -0.0262  0.5525
15168TIP3    H166995   3.269   0.403  35.844  1.5332 -1.6724 -2.6257
15168TIP3    H266996   3.129   0.387  35.789  0.7600 -0.6135 -1.0595
15169TIP3   OH266997   3.324   3.777   7.182  0.0446 -0.4022 -0.0033
15169TIP3    H166998   3.363   3.702   7.136  2.0840 -0.7937  2.1229
15169TIP3    H266999   3.357   3.854   7.136  2.2093 -0.7767  0.7954
15170TIP3   OH267000   1.868   0.124  33.571 -0.0733  0.3322 -0.1509
15170TIP3    H167001   1.796   0.182  33.596  0.7221  2.6654 -2.6872
15170TIP3    H267002   1.834   0.073  33.498 -0.1976 -1.1713  0.9210
15171TIP3   OH267003   3.278   3.207   6.519  0.6662 -0.1122  0.6018
15171TIP3    H167004   3.252   3.287   6.473  1.9379 -1.0645 -2.0045
15171TIP3    H267005   3.205   3.146   6.503 -0.5882  0.6011  3.1021
15172TIP3   OH267006   0.865   2.707   5.520  0.5615 -0.1610 -0.1881
15172TIP3    H167007   0.925   2.638   5.548  2.2512  1.9824  1.9646
15172TIP3    H267008   0.897   2.733   5.434  2.5290  0.5827  0.6922
15173TIP3   OH267009   3.239   3.368   4.707 -0.2292 -0.6547 -0.0978
15173TIP3    H167010   3.314   3.309   4.704 -0.8539 -1.4336 -0.9726
15173TIP3    H267011   3.232   3.394   4.799 -0.3838 -2.5301  0.4517
15174TIP3   OH267012   2.313   1.913  38.434  0.4024  0.2696 -0.0254
15174TIP3    H167013   2.289   1.826  38.400  1.2414 -0.4395  1.1091
15174TIP3    H267014   2.273   1.974  38.372  0.1167 -0.9237 -1.0855
15175TIP3   OH267015   1.612   1.090   9.646  0.2942  0.2731  0.2650
15175TIP3    H167016   1.679   1.093   9.714  0.2070  0.1682  0.3559
15175TIP3    H267017   1.530   1.076   9.694  0.3206 -0.5338  0.0825
15176TIP3   OH267018   0.906   2.376   7.722  0.1563 -0.1027  0.2893
15176TIP3    H167019   0.924   2.444   7.786 -2.2618 -0.2059  1.1751
15176TIP3    H267020   0.827   2.332   7.754  0.1742 -1.6711 -1.5771
15177TIP3   OH267021   0.609   3.667  40.998 -0.0208  0.6146 -0.1267
15177TIP3    H167022   0.585   3.600  41.062 -0.3764  0.7553 -0.1085
15177TIP3    H267023   0.577   3.634  40.914  0.8887  0.1992 -0.3142
15178TIP3   OH267024   2.758   3.059  28.123  0.4194 -0.0181  0.0931
15178TIP3    H167025   2.800   3.044  28.038  0.3605 -0.2520  0.1056
15178TIP3    H267026   2.692   2.991  28.130 -0.5134  0.8292 -0.2761
15179TIP3   OH267027   2.497   3.202  41.403  0.5122 -0.2867 -0.4968
15179TIP3    H167028   2.527   3.147  41.331 -0.6283  0.7367 -1.8153
15179TIP3    H267029   2.427   3.256  41.365  0.5987  1.0453  1.1019
15180TIP3   OH267030   3.323   0.855  31.990  0.3473  0.0946 -0.2196
15180TIP3    H167031   3.389   0.894  31.934 -0.8138  2.0983 -0.2926
15180TIP3    H267032   3.352   0.874  32.079  0.3954  0.0274 -0.2206
15181TIP3   OH267033   1.828   1.010  27.087 -0.7418  0.0212 -0.3658
15181TIP3    H167034   1.903   1.070  27.085 -0.3833 -0.4213 -2.1656
15181TIP3    H267035   1.754   1.063  27.056 -0.9178  0.1266  0.2240
15182TIP3   OH267036   0.886   1.142  11.774 -0.1419 -0.0947 -0.4862
15182TIP3    H167037   0.957   1.092  11.734 -1.2213 -1.1704 -1.1206
15182TIP3    H267038   0.837   1.177  11.699 -1.4679 -1.1002 -0.1193
15183TIP3   OH267039   1.272   4.368  12.640 -0.1619 -0.8071  0.1676
15183TIP3    H167040   1.329   4.428  12.591 -2.0348 -0.0414 -1.2054
15183TIP3    H267041   1.223   4.425  12.700  1.1278 -1.5733  2.0711
15184TIP3   OH267042   1.521   0.518  18.094 -1.2505  0.1376  0.0461
15184TIP3    H167043   1.607   0.546  18.064 -1.0833 -0.6573 -0.2541
15184TIP3    H267044   1.539   0.450  18.159 -1.6418 -0.7437 -0.7385
15185TIP3   OH267045   1.740   0.754   4.057 -0.2178  0.2423  0.2273
15185TIP3    H167046   1.739   0.688   3.988 -0.8168  0.0294  0.4321
15185TIP3    H267047   1.831   0.757   4.087  0.1830  0.7618 -0.9677
15186TIP3   OH267048   2.698   4.265  36.519 -0.6010 -0.0712 -0.1196
15186TIP3    H167049   2.685   4.353  36.484  1.2861  0.7504  1.0908
15186TIP3    H267050   2.610   4.229  36.526 -1.3024  1.1268 -2.0700
15187TIP3   OH267051   1.176   3.283  35.677 -0.9477 -0.3896 -0.7304
15187TIP3    H167052   1.086   3.250  35.673 -1.5604  1.1100 -0.0526
15187TIP3    H267053   1.185   3.317  35.766  0.3675 -0.7008 -0.7282
15188TIP3   OH267054   0.204   2.273  37.277 -0.1283  0.0816 -0.3981
15188TIP3    H167055   0.158   2.357  37.290  0.3917  0.4204 -0.7476
15188TIP3    H267056   0.295   2.297  37.263 -0.3077 -0.4016 -2.6376
15189TIP3   OH267057   4.229   3.675  26.190 -0.2755 -0.0122  0.4901
15189TIP3    H167058   4.177   3.738  26.240  1.8297  1.0414  1.4820
15189TIP3    H267059   4.217   3.702  26.099 -1.2653  0.3147  0.6962
15190TIP3   OH267060   1.262   2.034  31.848  0.0061 -0.5142  0.0417
15190TIP3    H167061   1.269   2.079  31.764  1.9510  0.0235  0.4526
15190TIP3    H267062   1.336   1.973  31.850  1.1317  0.8102  2.0941
15191TIP3   OH267063   1.347   3.295   8.027 -0.4119 -0.0012  0.0158
15191TIP3    H167064   1.363   3.213   8.074  0.8349  0.9461  1.3185
15191TIP3    H267065   1.296   3.348   8.088 -1.1616  0.2254 -0.7974
15192TIP3   OH267066   4.406   4.072  24.711 -0.0425 -0.2953  0.3985
15192TIP3    H167067   4.388   3.984  24.743  0.9054  0.0624  2.0054
15192TIP3    H267068   4.466   4.110  24.775  0.6286  1.0661 -0.9564
15193TIP3   OH267069   0.147   3.649   9.434  0.1120  0.1073  0.0335
15193TIP3    H167070   0.060   3.636   9.472  1.2643  2.3039  4.0361
15193TIP3    H267071   0.196   3.571   9.461  0.4503  0.8539  1.6934
15194TIP3   OH267072   2.746   1.347   3.370  0.7587  0.1776 -0.0027
15194TIP3    H167073   2.676   1.412   3.364  0.4782 -0.0140  1.0761
15194TIP3    H267074   2.701   1.264   3.384  1.0792 -0.3983 -2.0794
15195TIP3   OH267075   2.129   1.045  32.006  0.0418  0.6963 -0.3627
15195TIP3    H167076   2.059   1.070  32.067 -0.7635 -0.8787 -0.5948
15195TIP3    H267077   2.115   0.952  31.990  1.9068  0.4520 -0.8174
15196TIP3   OH267078   0.398   0.111  28.998 -0.3291 -0.5175 -0.7485
15196TIP3    H167079   0.304   0.114  28.980  0.2179 -0.1550 -4.1914
15196TIP3    H267080   0.431   0.042  28.942  1.8287  1.3551 -1.9458
15197TIP3   OH267081   1.502   1.782  29.425  0.2099  0.0192 -0.1029
15197TIP3    H167082   1.461   1.819  29.347 -0.4917  1.2444  0.8031
15197TIP3    H267083   1.504   1.855  29.487  1.7259 -0.6371  0.6650
15198TIP3   OH267084   2.747   0.913  11.943  0.4923  0.8359  0.0989
15198TIP3    H167085   2.658   0.880  11.926  1.4785 -1.2726 -1.4165
15198TIP3    H267086   2.761   0.896  12.036 -0.8393  1.6732  0.4875
15199TIP3   OH267087   3.652   0.783  26.909  0.5672  0.3171  0.0412
15199TIP3    H167088   3.630   0.832  26.830  0.0245  0.1262  0.0670
15199TIP3    H267089   3.648   0.848  26.980 -1.9337 -0.0583  0.3472
15200TIP3   OH267090   0.672   4.141   4.488 -0.5066  0.2682  0.3027
15200TIP3    H167091   0.680   4.084   4.565 -1.1861  0.3129  0.4080
15200TIP3    H267092   0.578   4.146   4.471 -0.3442 -0.3810 -1.0042
15201TIP3   OH267093   4.302   2.830  29.768  0.8237  0.0025  0.4486
15201TIP3    H167094   4.365   2.785  29.711 -1.9239  1.2123 -4.0451
15201TIP3    H267095   4.343   2.915  29.785  0.8180  0.5954 -2.0109
15202TIP3   OH267096   3.756   4.013   4.503  0.5810  0.1155 -0.2335
15202TIP3    H167097   3.683   4.072   4.520  0.5771  0.2837 -0.7888
15202TIP3    H267098   3.783   3.981   4.589 -0.4756 -0.3535 -0.0666
15203TIP3   OH267099   0.696   3.086  10.260 -0.3552 -0.2914  0.1503
15203TIP3    H167100   0.701   3.004  10.212 -0.8755  0.1094 -0.6113
15203TIP3    H267101   0.624   3.073  10.322  0.0177 -0.6475  0.5153
15204TIP3   OH267102   2.427   1.345  37.571  0.2779 -0.2122 -0.4926
15204TIP3    H167103   2.361   1.412  37.552  0.3666 -0.0147 -0.1181
15204TIP3    H267104   2.452   1.361  37.662  1.9029  0.6239 -1.0543
15205TIP3   OH267105   3.447   2.947   5.084  0.1588 -0.4579  0.5879
15205TIP3    H167106   3.406   2.994   5.011  1.0417 -0.9797 -0.2663
15205TIP3    H267107   3.537   2.932   5.056  1.0266  0.7937  2.4898
15206TIP3   OH267108   2.176   3.834  10.167 -0.1563  0.0120 -0.7811
15206TIP3    H167109   2.229   3.856  10.244 -1.7473 -3.7131  1.6857
15206TIP3    H267110   2.090   3.871  10.184 -0.9181 -2.0190  0.0513
15207TIP3   OH267111   1.347   2.932   3.946 -0.4365  0.2724  0.0283
15207TIP3    H167112   1.331   2.838   3.937 -1.6262  0.3878  0.6204
15207TIP3    H267113   1.329   2.950   4.039  0.0071  1.0422 -0.0277
15208TIP3   OH267114   3.758   1.334  27.768 -0.2038  0.7275 -0.1767
15208TIP3    H167115   3.755   1.366  27.858 -0.4099 -2.4948  1.1173
15208TIP3    H267116   3.844   1.293  27.759  0.4575  2.3457 -2.0574
15209TIP3   OH267117   4.253   2.492   0.618 -0.2067  0.2580  0.3038
15209TIP3    H167118   4.273   2.585   0.629  1.9465 -0.2644  1.3104
15209TIP3    H267119   4.295   2.468   0.536 -1.2812  0.2818 -0.2677
15210TIP3   OH267120   0.161   3.192   0.907 -0.2084 -0.4439  0.3996
15210TIP3    H167121   0.078   3.177   0.953 -0.7040 -0.2251 -0.4076
15210TIP3    H267122   0.138   3.193   0.815  0.8842 -1.6280  0.0784
15211TIP3   OH267123   3.606   4.101   8.172  0.2314 -0.5860  0.5579
15211TIP3    H167124   3.528   4.046   8.174 -1.3119  1.4935  1.6945
15211TIP3    H267125   3.647   4.083   8.087 -1.6478 -1.5246 -0.1927
15212TIP3   OH267126   4.210   0.454  39.194  0.1706 -0.6739  0.0110
15212TIP3    H167127   4.193   0.432  39.103 -0.1573  0.4842 -0.2204
15212TIP3    H267128   4.127   0.438  39.239  0.3616 -1.3445  0.1360
15213TIP3   OH267129   1.459   0.850  28.983 -0.4600 -0.4698 -0.2249
15213TIP3    H167130   1.537   0.822  29.032 -0.7652  1.9550  1.8684
15213TIP3    H267131   1.487   0.930  28.937 -1.4010 -0.1932 -0.3333
15214TIP3   OH267132   0.658   3.739   7.649  0.6038 -0.0559  0.0491
15214TIP3    H167133   0.621   3.808   7.704  1.3785  0.7484 -0.4193
15214TIP3    H267134   0.635   3.657   7.694 -0.9910  0.4540  0.2145
15215TIP3   OH267135   2.578   2.165   7.623  0.6837 -0.4447  0.3351
15215TIP3    H167136   2.646   2.210   7.574 -0.8560  0.3224 -1.1876
15215TIP3    H267137   2.538   2.233   7.677 -2.6337  0.6444 -3.0465
15216TIP3   OH267138   2.345   0.612  26.725  0.2802  0.2141  0.1080
15216TIP3    H167139   2.405   0.677  26.688 -0.1764  0.4879 -0.1609
15216TIP3    H267140   2.378   0.528  26.694  1.5820  0.1978  1.4312
15217TIP3   OH267141   0.357   0.892  29.522  0.0478 -0.0625 -0.1635
15217TIP3    H167142   0.379   0.810  29.479  2.1299  0.5043 -0.2776
15217TIP3    H267143   0.262   0.898  29.515  0.0595 -1.3545 -2.1581
15218TIP3   OH267144   1.467   2.023  33.868  0.1723  0.1251 -0.2885
15218TIP3    H167145   1.465   1.956  33.936  1.4389 -0.4896 -0.8218
15218TIP3    H267146   1.542   1.999  33.814  0.3785  1.7409 -0.7458
15219TIP3   OH267147   0.242   1.172  13.739  0.8377 -0.5722 -0.3368
15219TIP3    H167148   0.228   1.238  13.807  2.1490 -0.7032  0.0894
15219TIP3    H267149   0.206   1.210  13.659  2.2943  1.0094 -0.2824
15220TIP3   OH267150   3.688   1.375   2.933  0.1224  0.1343 -0.6818
15220TIP3    H167151   3.739   1.442   2.887 -0.1953  0.2170 -0.9162
15220TIP3    H267152   3.671   1.413   3.019  0.6064  0.0330 -0.5374
15221TIP3   OH267153   1.201   1.598   1.749 -0.4714 -0.0477  0.4355
15221TIP3    H167154   1.237   1.610   1.662 -0.9772 -1.0867  0.0645
15221TIP3    H267155   1.111   1.629   1.743  0.4798  3.3528  1.5838
15222TIP3   OH267156   1.094   1.926  17.160 -0.0994  0.1821 -0.2620
15222TIP3    H167157   1.037   1.945  17.086 -1.8271  0.0744  0.9757
15222TIP3    H267158   1.039   1.877  17.221  1.6135 -0.7838  0.5892
15223TIP3   OH267159   1.687   3.288  41.612  0.5067  0.0547 -0.2765
15223TIP3    H167160   1.690   3.319  41.702 -0.2501 -1.5900  0.3377
15223TIP3    H267161   1.604   3.322  41.578 -0.2693 -1.1534  0.3610
15224TIP3   OH267162   1.251   1.994  37.368 -0.1541 -0.3214  0.2105
15224TIP3    H167163   1.222   1.915  37.322  1.8568 -0.6969 -0.5364
15224TIP3    H267164   1.325   2.026  37.315  0.5862  0.6990  1.7983
15225TIP3   OH267165   3.935   1.902  39.878  0.6343  0.6066  0.2284
15225TIP3    H167166   3.874   1.831  39.860  0.6053  0.7223 -0.1366
15225TIP3    H267167   3.945   1.902  39.973 -0.6389  1.1652  0.3844
15226TIP3   OH267168   0.915   3.471   5.771 -0.5041 -0.1187  0.2982
15226TIP3    H167169   0.948   3.561   5.779 -0.6730 -0.1090  0.9475
15226TIP3    H267170   0.820   3.481   5.769 -0.5110 -0.1973 -0.9017
15227TIP3   OH267171   1.407   1.773  31.197 -0.1222  0.4805  0.8498
15227TIP3    H167172   1.483   1.819  31.232  0.1615  0.7083 -0.0331
15227TIP3    H267173   1.409   1.686  31.237  1.3521  0.0288 -0.1332
15228TIP3   OH267174   1.508   3.996  34.276 -0.0586 -0.6076 -0.1286
15228TIP3    H167175   1.493   4.090  34.285 -1.1464 -0.7761 -0.0909
15228TIP3    H267176   1.600   3.984  34.302 -0.1963  0.3001  0.8383
15229TIP3   OH267177   2.008   0.643  37.951  0.7104  0.0843  0.3015
15229TIP3    H167178   2.086   0.602  37.914  1.6525  0.6457  1.5751
15229TIP3    H267179   1.982   0.583  38.021 -0.4785 -0.4816 -0.5905
15230TIP3   OH267180   2.301   1.556  27.346 -0.0567  0.2386 -0.2327
15230TIP3    H167181   2.239   1.511  27.288  0.1311  1.7502 -1.6781
15230TIP3    H267182   2.382   1.505  27.337 -0.6651 -0.9097  0.5616
15231TIP3   OH267183   0.340   2.058   5.856 -0.0168  0.2885 -0.1663
15231TIP3    H167184   0.313   2.051   5.764 -1.1646 -0.3157  0.1948
15231TIP3    H267185   0.331   2.151   5.876  2.1974  0.8023 -1.1971
15232TIP3   OH267186   3.573   1.865   4.324  0.7149  0.4753 -0.4940
15232TIP3    H167187   3.525   1.836   4.401  0.5817 -3.7018 -1.8657
15232TIP3    H267188   3.512   1.921   4.276 -0.3121  0.6107  0.9238
15233TIP3   OH267189   1.099   2.142  12.756 -0.3773  0.4152 -0.4505
15233TIP3    H167190   1.017   2.146  12.707 -0.8749  0.7262  0.3921
15233TIP3    H267191   1.073   2.156  12.847  0.7296  1.4818 -0.2859
15234TIP3   OH267192   0.120   3.252   0.402 -0.3921 -0.1578 -0.5410
15234TIP3    H167193   0.128   3.235   0.496  0.9677  0.2177 -0.5703
15234TIP3    H267194   0.057   3.187   0.371 -1.5759  0.2942  0.7798
15235TIP3   OH267195   4.137   1.225   2.364  0.0076 -0.6868 -0.8149
15235TIP3    H167196   4.149   1.141   2.409  1.1460  0.5399  1.3050
15235TIP3    H267197   4.225   1.262   2.360 -0.6975  1.1141 -0.2967
15236TIP3   OH267198   3.635   0.437  29.397 -0.0834 -0.3627 -0.0790
15236TIP3    H167199   3.607   0.496  29.467  0.7003  0.4759 -0.4353
15236TIP3    H267200   3.717   0.476  29.365  0.1175 -1.3085 -0.7537
15237TIP3   OH267201   1.204   1.583   6.828  0.2260 -0.7430  0.2600
15237TIP3    H167202   1.289   1.625   6.837  0.6539 -1.3469 -0.8170
15237TIP3    H267203   1.159   1.601   6.911  0.8156  0.8621  0.2674
15238TIP3   OH267204   3.982   1.322   6.460  0.5171 -0.0625 -0.4633
15238TIP3    H167205   3.948   1.338   6.549  0.4801  0.9456 -0.6438
15238TIP3    H267206   3.966   1.229   6.445  0.2102 -0.1736  0.4607
15239TIP3   OH267207   0.550   0.659   0.636  0.1119  0.2354  0.1024
15239TIP3    H167208   0.506   0.741   0.618 -2.2648 -0.7846  0.8809
15239TIP3    H267209   0.555   0.654   0.732 -0.1803 -0.7093  0.0819
15240TIP3   OH267210   0.120   1.800   8.051  0.5112  0.4079  0.1364
15240TIP3    H167211   0.155   1.855   7.981  4.5975  1.3086  2.5158
15240TIP3    H267212   0.103   1.716   8.008  3.7987  0.5702 -1.9217
15241TIP3   OH267213   0.369   1.397  35.950  0.0757  0.3171 -0.2827
15241TIP3    H167214   0.433   1.395  35.878  1.1040  2.3618  0.4883
15241TIP3    H267215   0.382   1.483  35.990 -0.3919 -0.8068  2.4273
15242TIP3   OH267216   3.019   3.327  36.286  0.3748 -0.2733 -0.3720
15242TIP3    H167217   2.945   3.357  36.338  0.0623  0.8729 -1.4270
15242TIP3    H267218   3.084   3.397  36.294  1.1865 -1.0741  0.2004
15243TIP3   OH267219   3.154   1.279  11.488 -0.2371 -0.6119 -0.0441
15243TIP3    H167220   3.168   1.190  11.454 -2.3832 -0.2590 -2.1538
15243TIP3    H267221   3.171   1.336  11.413  0.6818  0.7487  1.1628
15244TIP3   OH267222   4.313   0.407  37.074  0.6601 -0.6680  0.4443
15244TIP3    H167223   4.321   0.413  36.979 -0.4964  1.0605  0.4054
15244TIP3    H267224   4.391   0.452  37.107  0.9968 -1.1553  0.3262
15245TIP3   OH267225   2.490   3.475  30.826 -0.4721  0.2194 -0.8067
15245TIP3    H167226   2.532   3.390  30.837  1.1504  1.0748 -0.0771
15245TIP3    H267227   2.421   3.476  30.892  1.4943  0.6259  1.3973
15246TIP3   OH267228   2.645   4.132  37.404 -0.3227  0.0145  0.0161
15246TIP3    H167229   2.591   4.102  37.331 -1.1012  1.2256  0.0639
15246TIP3    H267230   2.733   4.100  37.384 -0.9426 -1.5297 -0.3419
15247TIP3   OH267231   2.310   3.453   7.846  0.1086 -0.1197  0.4819
15247TIP3    H167232   2.339   3.365   7.870  0.9081  0.1977  0.7465
15247TIP3    H267233   2.309   3.501   7.929  1.6365  0.6426  0.1120
15248TIP3   OH267234   1.162   1.053  36.064  0.5435  1.0080  0.1128
15248TIP3    H167235   1.140   1.070  35.972 -0.4913  1.0343  0.3569
15248TIP3    H267236   1.224   1.122  36.087  1.1779  0.7308 -0.6941
15249TIP3   OH267237   2.424   0.979  10.518 -0.2296 -0.5019  0.5130
15249TIP3    H167238   2.483   0.962  10.591 -0.8051 -1.1982  0.8253
15249TIP3    H267239   2.404   0.892  10.483  0.5108 -0.1555 -0.8611
15250TIP3   OH267240   2.292   1.573  28.220 -0.1816 -0.2181  0.5269
15250TIP3    H167241   2.262   1.636  28.285 -0.1595  0.5354 -0.1796
15250TIP3    H267242   2.229   1.501  28.224 -1.3550  0.7562 -0.0450
15251TIP3   OH267243   1.288   3.372  37.686  0.9101 -0.0141 -0.1449
15251TIP3    H167244   1.292   3.378  37.591  1.3230  0.5418 -0.0997
15251TIP3    H267245   1.195   3.361  37.706  0.8099 -0.0246 -0.6044
15252TIP3   OH267246   2.335   3.788  35.484 -0.1842 -0.0686  0.4104
15252TIP3    H167247   2.322   3.870  35.533  2.1596  0.1192  0.8097
15252TIP3    H267248   2.368   3.815  35.399 -1.2803 -0.5482 -0.1896
15253TIP3   OH267249   3.079   3.004   3.703 -0.1431 -0.0019 -0.0688
15253TIP3    H167250   3.074   3.038   3.792  1.4660  2.1303 -0.6943
15253TIP3    H267251   3.041   3.073   3.649 -0.8741 -1.1540 -1.0704
15254TIP3   OH267252   2.232   0.300  38.168 -0.1218 -0.5511  0.0859
15254TIP3    H167253   2.241   0.253  38.085  2.0003 -1.4651  0.7658
15254TIP3    H267254   2.320   0.331  38.187 -0.2756 -1.4053  2.5649
15255TIP3   OH267255   3.858   1.079  40.550 -0.3385  0.5538  0.2804
15255TIP3    H167256   3.837   1.051  40.461 -1.0630  1.5637  0.1244
15255TIP3    H267257   3.861   0.997  40.600  1.5670 -0.2037 -0.9222
15256TIP3   OH267258   3.161   3.921   7.631 -0.4560  0.4309 -0.3520
15256TIP3    H167259   3.109   3.955   7.705  0.4003 -0.5159  0.7273
15256TIP3    H267260   3.134   3.974   7.557 -0.0595  2.6320  0.9880
15257TIP3   OH267261   4.097   3.278   5.141  0.5925 -0.0220 -0.0120
15257TIP3    H167262   4.152   3.289   5.219  0.8654 -0.4956 -0.1275
15257TIP3    H267263   4.014   3.319   5.163  0.2011 -1.3071  1.0332
15258TIP3   OH267264   0.900   0.822  27.184  0.2830  0.5515  0.6138
15258TIP3    H167265   0.992   0.816  27.157 -0.0121  0.9637 -0.5772
15258TIP3    H267266   0.862   0.739  27.156  0.1043  0.7394  0.2952
15259TIP3   OH267267   0.234   3.643  12.980 -0.1997 -0.4743 -0.0888
15259TIP3    H167268   0.325   3.646  12.950 -0.3210 -0.6588 -0.4847
15259TIP3    H267269   0.236   3.686  13.065  0.2793 -0.5864 -0.0381
15260TIP3   OH267270   0.985   2.975  31.791  0.0182 -0.2798  0.0882
15260TIP3    H167271   1.004   2.885  31.818  0.8447 -0.1929 -0.1622
15260TIP3    H267272   1.065   3.024  31.814 -0.2804  0.3117 -0.1167
15261TIP3   OH267273   1.236   0.559  36.898  0.6621 -0.3748 -0.4844
15261TIP3    H167274   1.236   0.650  36.927 -3.7623 -0.0768 -0.6272
15261TIP3    H267275   1.270   0.562  36.809 -0.0313  1.2828 -0.7268
15262TIP3   OH267276   3.866   3.072   0.181  0.6021  0.8510  0.1287
15262TIP3    H167277   3.810   3.109   0.112  2.5788  0.3016 -1.8876
15262TIP3    H267278   3.804   3.029   0.241 -1.1596  0.3501 -1.9165
15263TIP3   OH267279   3.705   2.298  40.201 -0.5188  0.0250 -0.2412
15263TIP3    H167280   3.620   2.292  40.159 -0.2969 -0.9614 -0.5662
15263TIP3    H267281   3.690   2.268  40.291 -0.3056 -1.2424 -0.6118
15264TIP3   OH267282   0.815   2.769  40.124 -0.2774 -0.0063 -0.2882
15264TIP3    H167283   0.789   2.850  40.167  4.0524  1.0273  0.8413
15264TIP3    H267284   0.803   2.785  40.031 -0.9954  1.2873  0.0111
15265TIP3   OH267285   2.152   2.560   1.181 -0.2045  0.4317  0.1251
15265TIP3    H167286   2.219   2.603   1.235 -0.2043  0.2491  0.2709
15265TIP3    H267287   2.070   2.600   1.210 -0.3158 -0.3645  0.9672
15266TIP3   OH267288   3.292   0.008  12.200 -0.4933  0.3900  0.2252
15266TIP3    H167289   3.376   0.042  12.170 -0.1760 -1.3483 -1.0251
15266TIP3    H267290   3.314  -0.047  12.276 -0.5511  0.2678  0.1544
15267TIP3   OH267291   2.771   2.117   5.161 -0.0231 -0.4680 -0.1957
15267TIP3    H167292   2.867   2.118   5.153  0.0876 -0.3684  1.0072
15267TIP3    H267293   2.753   2.172   5.237 -1.0325 -0.6648 -0.2812
15268TIP3   OH267294   1.693   2.965   4.187 -0.5508 -0.2997 -0.3865
15268TIP3    H167295   1.605   2.990   4.215 -0.6651  1.0107 -1.7685
15268TIP3    H267296   1.680   2.924   4.102  0.0208 -1.9014  0.2541
15269TIP3   OH267297   2.432   3.194  35.924 -0.1147 -0.2509  0.3274
15269TIP3    H167298   2.459   3.280  35.891 -2.3893  0.3296 -0.2236
15269TIP3    H267299   2.393   3.151  35.849 -1.5811 -0.5988  1.2527
15270TIP3   OH267300   2.867   3.230   8.372  0.0878  0.0811 -0.0794
15270TIP3    H167301   2.799   3.283   8.331  1.2532  0.6181 -1.4142
15270TIP3    H267302   2.828   3.143   8.382  0.1361 -0.5295 -3.7354
15271TIP3   OH267303   1.409   2.953  36.845 -0.4890  0.1833  0.0986
15271TIP3    H167304   1.486   2.928  36.793 -1.6274  0.1894 -1.6871
15271TIP3    H267305   1.410   2.894  36.920  0.3188 -0.9780 -0.7918
15272TIP3   OH267306   3.837   3.063   1.429 -0.1614 -0.0449  0.2447
15272TIP3    H167307   3.928   3.039   1.415 -0.6571 -1.0050 -1.8759
15272TIP3    H267308   3.802   2.995   1.486  0.4503  0.3572  1.1057
15273TIP3   OH267309   2.156   2.428  18.551  0.1502 -0.1283  0.0003
15273TIP3    H167310   2.152   2.428  18.455  1.7844 -0.1430 -0.0862
15273TIP3    H267311   2.208   2.351  18.573  0.8844  0.5893  0.8445
15274TIP3   OH267312   2.198   0.867  27.626 -0.8469  0.4979  0.6404
15274TIP3    H167313   2.164   0.857  27.537 -0.5250 -1.4455  0.6799
15274TIP3    H267314   2.157   0.795  27.675  1.6734 -0.6909  1.1695
15275TIP3   OH267315   3.074   1.027   0.494 -0.0965  0.4206  0.2869
15275TIP3    H167316   3.096   1.024   0.587 -1.6439  1.3109  0.7249
15275TIP3    H267317   3.009   1.097   0.487  0.2989  0.6744 -1.5480
15276TIP3   OH267318   0.826   3.590   0.490  0.7736  0.4076  0.5238
15276TIP3    H167319   0.734   3.562   0.490  0.9405 -0.3902 -1.6184
15276TIP3    H267320   0.832   3.654   0.560 -1.9541  2.1378 -0.6701
15277TIP3   OH267321   4.349   1.954  37.490 -0.9979 -0.0894 -0.1639
15277TIP3    H167322   4.262   1.993  37.481 -0.8687 -0.0978 -1.9348
15277TIP3    H267323   4.378   1.942  37.399  1.0116  0.2892  0.3819
15278TIP3   OH267324   0.269   2.603  36.546 -0.0448  0.1094  0.0320
15278TIP3    H167325   0.256   2.685  36.500  1.1819  0.4539  0.2685
15278TIP3    H267326   0.308   2.544  36.481 -1.4937 -0.5149 -0.3169
15279TIP3   OH267327   3.047   1.753   2.373 -0.4148 -0.3488 -0.3872
15279TIP3    H167328   3.052   1.848   2.388  0.5917 -0.7420  2.3271
15279TIP3    H267329   3.128   1.732   2.328  0.4234 -0.1605  0.9624
15280TIP3   OH267330   2.403   3.641  28.113  0.0108 -0.2394  0.2209
15280TIP3    H167331   2.421   3.548  28.129 -1.2737 -0.5551 -0.0373
15280TIP3    H267332   2.312   3.643  28.081 -0.0345  1.1215  0.3579
15281TIP3   OH267333   0.236   1.281  39.817 -0.1981  0.5126  0.6898
15281TIP3    H167334   0.239   1.264  39.723 -1.6469  1.8631  0.3673
15281TIP3    H267335   0.148   1.316  39.833 -0.6957 -1.4634  2.8870
15282TIP3   OH267336   0.093   3.212  10.992  0.3128  0.2150  0.3532
15282TIP3    H167337   0.047   3.193  11.074 -0.4854  0.4586 -0.0251
15282TIP3    H267338   0.030   3.191  10.924 -0.0281  2.5103 -0.1320
15283TIP3   OH267339   1.227   1.115   9.070  0.2341 -0.0141  0.0206
15283TIP3    H167340   1.255   1.142   9.157  0.5953 -0.8896  0.1875
15283TIP3    H267341   1.253   1.023   9.064 -0.3331 -0.1310 -0.7849
15284TIP3   OH267342   0.395   2.324  35.503 -0.3995  0.2066 -0.2920
15284TIP3    H167343   0.307   2.356  35.526 -0.2233  1.8465 -1.6755
15284TIP3    H267344   0.429   2.390  35.444  0.7998 -1.6621 -1.8114
15285TIP3   OH267345   4.386   3.205  41.118 -0.2598 -0.5684  0.4155
15285TIP3    H167346   4.464   3.227  41.067  0.5917  0.2995  2.0153
15285TIP3    H267347   4.338   3.144  41.063 -0.7225  2.1993 -2.5787
15286TIP3   OH267348   2.648   2.162  37.489  0.2324  0.5487  0.7219
15286TIP3    H167349   2.732   2.198  37.518  1.3324  0.1696 -1.7120
15286TIP3    H267350   2.600   2.237  37.454  0.6821  0.3851 -0.2842
15287TIP3   OH267351   0.047   0.670  40.171  0.4990 -0.0066 -0.9004
15287TIP3    H167352  -0.004   0.732  40.120 -0.4318 -0.1264 -0.1440
15287TIP3    H267353  -0.014   0.637  40.237  0.7759 -2.1902 -1.6568
15288TIP3   OH267354   0.489   3.767  40.262  0.2002  0.0281  0.3309
15288TIP3    H167355   0.446   3.681  40.263 -1.0297  0.6253  0.7206
15288TIP3    H267356   0.573   3.752  40.305 -0.2523 -0.8629  0.9331
15289TIP3   OH267357   3.558   2.360  11.360 -0.1124  0.3328 -0.5387
15289TIP3    H167358   3.511   2.321  11.434 -0.3991 -2.2000 -1.9179
15289TIP3    H267359   3.523   2.449  11.354 -1.2338  0.0900  1.3823
15290TIP3   OH267360   1.955   3.548   6.262  0.4597  0.6400 -0.4469
15290TIP3    H167361   2.049   3.544   6.249  0.6399  0.7329  0.7289
15290TIP3    H267362   1.941   3.516   6.351 -0.7708 -0.8173 -1.1116
15291TIP3   OH267363   0.923   3.599  12.669  0.0548  0.0863 -0.1190
15291TIP3    H167364   0.887   3.590  12.757  0.6440 -0.6577  0.0517
15291TIP3    H267365   1.002   3.652  12.680  0.6045 -0.7298 -0.0639
15292TIP3   OH267366   3.488   4.087  11.113  0.1827 -0.0819  0.4689
15292TIP3    H167367   3.546   4.026  11.158 -0.8743 -0.4430  1.3791
15292TIP3    H267368   3.413   4.097  11.172  0.0424  1.6096  0.0646
15293TIP3   OH267369   1.780   1.186  33.922 -0.9373  0.0744  0.4918
15293TIP3    H167370   1.739   1.258  33.874  0.8684  1.3248  0.7047
15293TIP3    H267371   1.831   1.229  33.991  0.2475 -1.3859  0.5935
15294TIP3   OH267372   1.333   1.625   8.557  0.0741  0.4353 -0.2870
15294TIP3    H167373   1.274   1.551   8.568  0.7480 -0.2918 -1.3487
15294TIP3    H267374   1.365   1.643   8.645  1.5310 -1.9560 -0.2344
15295TIP3   OH267375   2.755   4.039  33.446  0.2699 -0.4487 -0.0067
15295TIP3    H167376   2.665   4.036  33.414  0.7849 -1.3392 -1.4687
15295TIP3    H267377   2.809   4.042  33.367  1.5762 -1.8044  0.7719
15296TIP3   OH267378   3.241   0.017   2.500  0.2700 -0.4302  0.3576
15296TIP3    H167379   3.256  -0.061   2.553 -0.3864  0.2289  1.5340
15296TIP3    H267380   3.328   0.038   2.465  0.2697 -2.3233 -0.9348
15297TIP3   OH267381   3.990   2.009  35.986 -0.3781  0.0518 -0.0203
15297TIP3    H167382   4.046   2.056  36.047  0.6782  1.1776 -1.8096
15297TIP3    H267383   3.959   1.933  36.036  0.9993  0.5584  1.6758
15298TIP3   OH267384   0.396   3.997  40.151  0.3839 -0.0713  0.4690
15298TIP3    H167385   0.417   3.925  40.211 -0.5395 -1.2842 -0.6238
15298TIP3    H267386   0.476   4.050  40.150  0.3786  0.0922  2.8704
15299TIP3   OH267387   2.429   0.649   9.481 -0.0912 -0.4100 -0.1689
15299TIP3    H167388   2.410   0.717   9.546  1.1428  0.1918 -0.4096
15299TIP3    H267389   2.479   0.583   9.528  2.2684  0.8073 -0.7998
15300TIP3   OH267390   3.045   2.149  34.225  0.1752  0.0436  0.5887
15300TIP3    H167391   3.120   2.127  34.280  0.3768 -1.2262 -0.1706
15300TIP3    H267392   2.969   2.135  34.281  0.3493 -1.7004  0.4293
15301TIP3   OH267393   1.943   0.803  30.502  0.1281 -0.1334  0.5672
15301TIP3    H167394   1.985   0.871  30.449  1.4866 -0.8230  0.7082
15301TIP3    H267395   1.920   0.847  30.584  0.5189  0.2947  0.4507
15302TIP3   OH267396   4.126   2.969   7.205  0.4563  0.1585 -0.1239
15302TIP3    H167397   4.206   2.921   7.182 -0.0297  0.1892 -2.0181
15302TIP3    H267398   4.156   3.038   7.264  1.8495  0.1480 -0.7745
15303TIP3   OH267399   0.968   0.845  10.752 -0.6098 -0.1561  0.1715
15303TIP3    H167400   0.939   0.881  10.836 -2.1479  0.5454 -0.6400
15303TIP3    H267401   0.918   0.892  10.686  1.5187  0.2617 -1.2698
15304TIP3   OH267402   2.238   3.738  38.734 -0.1605  0.5297 -0.8168
15304TIP3    H167403   2.298   3.786  38.678 -0.7322  1.8770 -0.3234
15304TIP3    H267404   2.272   3.750  38.823 -1.0216  1.1346 -0.5561
15305TIP3   OH267405   3.558   0.220  39.850 -0.5094 -0.5311 -0.3304
15305TIP3    H167406   3.467   0.207  39.875 -0.0159 -0.7955  1.5005
15305TIP3    H267407   3.558   0.300  39.799 -1.7270 -0.3443 -0.0661
15306TIP3   OH267408   4.106   4.092  37.835 -0.2848  0.1482 -0.3642
15306TIP3    H167409   4.117   3.998  37.817 -0.5081  0.2299 -0.9687
15306TIP3    H267410   4.153   4.135  37.764  1.3705  0.5253  0.9028
15307TIP3   OH267411   2.254   4.052   2.324 -1.0505  0.0039  1.1659
15307TIP3    H167412   2.159   4.040   2.321 -0.9581 -0.8823  1.4430
15307TIP3    H267413   2.278   4.035   2.416 -0.4717 -1.1520  0.8264
15308TIP3   OH267414   0.515   4.164  12.172  0.2879  0.6456  0.3959
15308TIP3    H167415   0.579   4.108  12.214 -1.5604 -2.4607 -0.6332
15308TIP3    H267416   0.452   4.186  12.241  0.6280  0.8644  0.6370
15309TIP3   OH267417   3.125   0.014  37.547 -0.3672 -0.1509 -0.2211
15309TIP3    H167418   3.109   0.036  37.455 -0.1068  1.3496  0.0755
15309TIP3    H267419   3.215  -0.019  37.548 -1.0621 -2.2477 -0.8070
15310TIP3   OH267420   4.137   0.832  31.846  0.3706 -0.4195 -0.4166
15310TIP3    H167421   4.099   0.839  31.759  0.7525  0.9518 -0.4869
15310TIP3    H267422   4.211   0.773  31.836 -0.7517 -1.8709 -0.5892
15311TIP3   OH267423   2.269   1.527  10.486  0.4082 -0.2765 -0.2386
15311TIP3    H167424   2.239   1.458  10.545  0.8550 -0.2807 -0.0114
15311TIP3    H267425   2.296   1.481  10.406  0.2217 -0.3133 -0.2807
15312TIP3   OH267426   0.170   4.163  10.097  0.2146 -0.2782  0.2351
15312TIP3    H167427   0.135   4.252  10.106  0.6774 -0.1252  0.5794
15312TIP3    H267428   0.146   4.137  10.008 -0.9230 -0.2515  0.5191
15313TIP3   OH267429   3.207   4.247   9.148  0.4122  0.3075  0.1861
15313TIP3    H167430   3.300   4.229   9.162  0.3121 -0.7386 -0.3830
15313TIP3    H267431   3.165   4.222   9.230  0.4476 -0.8411 -0.1263
15314TIP3   OH267432   3.676   3.454   7.027  0.2566  0.2444  0.1765
15314TIP3    H167433   3.583   3.477   7.030  0.1822 -0.0626  0.2194
15314TIP3    H267434   3.678   3.367   6.987  0.4565 -0.1559  1.0490
15315TIP3   OH267435   1.795   0.162  38.657 -0.1428 -0.2008 -0.4564
15315TIP3    H167436   1.827   0.217  38.585 -0.0328  1.3039  0.6818
15315TIP3    H267437   1.749   0.224  38.715  1.1799 -1.0409  1.5929
15316TIP3   OH267438   0.053   0.504  27.130 -0.7547  0.2777 -0.4090
15316TIP3    H167439   0.023   0.586  27.170  2.1178  1.1524  0.2058
15316TIP3    H267440   0.142   0.523  27.101 -0.0801 -2.5564 -0.4846
15317TIP3   OH267441   0.320   0.475  40.235 -0.2620 -0.8502 -0.0758
15317TIP3    H167442   0.387   0.533  40.198  0.5048 -0.2433  2.1409
15317TIP3    H267443   0.254   0.469  40.166  1.0301  0.2909 -1.4954
15318TIP3   OH267444   3.545   3.714  31.537 -0.0699 -0.3120  0.0347
15318TIP3    H167445   3.553   3.733  31.443 -0.7904 -1.5711 -0.3028
15318TIP3    H267446   3.560   3.799  31.580  1.0723  0.1315 -1.1645
15319TIP3   OH267447   3.407   3.730  38.779 -0.3203  0.0034 -0.2924
15319TIP3    H167448   3.350   3.737  38.702  1.6021  0.4346 -1.7557
15319TIP3    H267449   3.463   3.807  38.774  0.8607 -0.7632  0.7018
15320TIP3   OH267450   2.988   3.896  35.773  0.5392  0.4619 -0.0981
15320TIP3    H167451   3.017   3.818  35.725  0.4725 -0.6791  1.6068
15320TIP3    H267452   3.034   3.969  35.731  0.8679 -0.5285 -1.5330
15321TIP3   OH267453   1.721   1.497  40.449  0.5704 -0.3405 -0.5885
15321TIP3    H167454   1.786   1.457  40.507 -0.4134  0.0383  0.8240
15321TIP3    H267455   1.645   1.438  40.454  0.0086  0.3792 -0.4621
15322TIP3   OH267456   3.727   1.111  40.283 -0.2224  0.4618  0.2080
15322TIP3    H167457   3.740   1.063  40.202  1.7564 -0.1226  0.8379
15322TIP3    H267458   3.752   1.201  40.262  0.7484  0.2152  0.2764
15323TIP3   OH267459   3.788   4.113  27.724  0.1383  0.1440 -0.3299
15323TIP3    H167460   3.740   4.180  27.675  3.5913  1.2361 -2.6513
15323TIP3    H267461   3.831   4.162  27.795 -0.6592 -0.4916  0.6298
15324TIP3   OH267462   3.846   0.711   6.462  0.2431  0.7548 -0.0747
15324TIP3    H167463   3.895   0.697   6.381  2.0251 -1.6934  1.2625
15324TIP3    H267464   3.908   0.755   6.520 -0.2870  0.6196  0.6125
15325TIP3   OH267465   2.814   3.831  30.751  0.0066 -0.1754  0.4491
15325TIP3    H167466   2.822   3.860  30.842  1.3256 -0.4880  0.4478
15325TIP3    H267467   2.817   3.912  30.700 -1.9848  0.1083  0.7243
15326TIP3   OH267468   3.074   1.931  32.551 -0.6181  0.1826 -0.3614
15326TIP3    H167469   3.021   1.855  32.526  0.9209 -0.6041 -1.4252
15326TIP3    H267470   3.010   2.000  32.569 -2.0393 -1.1724  0.0077
15327TIP3   OH267471   1.617   1.148  37.031  0.0963  0.4068  0.7311
15327TIP3    H167472   1.612   1.087  37.105  0.4696  1.5597  1.7614
15327TIP3    H267473   1.694   1.202  37.051 -0.9441  2.0226  0.5396
15328TIP3   OH267474   2.402   1.104  12.969  0.0626  0.2475 -0.1771
15328TIP3    H167475   2.417   1.195  12.944  1.4409  0.5722  1.6600
15328TIP3    H267476   2.388   1.106  13.063  0.7209 -1.4988  0.0052
15329TIP3   OH267477   3.884   3.868  39.957 -0.0257 -0.2504  0.0174
15329TIP3    H167478   3.877   3.775  39.936 -0.2851 -0.6260  1.6852
15329TIP3    H267479   3.822   3.911  39.898 -0.0004 -1.1384 -0.6723
15330TIP3   OH267480   0.468   3.410  32.260  0.0921  0.1564  0.0546
15330TIP3    H167481   0.534   3.382  32.197  0.2198  0.1525  0.1913
15330TIP3    H267482   0.476   3.349  32.333  0.1222  0.3198  0.1894
15331TIP3   OH267483   2.112   1.816  27.769  0.2491 -0.4015 -0.4902
15331TIP3    H167484   2.156   1.807  27.685  1.0099 -1.0555 -0.0408
15331TIP3    H267485   2.168   1.770  27.831  0.0582  0.6256  0.5030
15332TIP3   OH267486   2.460   2.043  11.412 -0.1981 -0.6004  0.0399
15332TIP3    H167487   2.409   2.108  11.460  1.0204 -0.0286  0.5965
15332TIP3    H267488   2.400   2.011  11.344 -0.5873  1.6968 -0.7795
15333TIP3   OH267489   1.902   3.682   8.582 -0.2260 -0.0700 -0.0829
15333TIP3    H167490   1.903   3.586   8.583  0.0324 -0.0660 -0.0247
15333TIP3    H267491   1.992   3.707   8.564 -0.1955  0.1712  0.3860
15334TIP3   OH267492   2.591   0.916  11.435  0.4066 -0.5716  0.2381
15334TIP3    H167493   2.600   0.917  11.340  1.0269 -0.1525  0.2987
15334TIP3    H267494   2.615   0.827  11.461 -1.3103 -1.1805 -0.1308
15335TIP3   OH267495   1.731   2.971  35.659  0.4197 -0.3484  0.0148
15335TIP3    H167496   1.661   2.905  35.653  1.3445 -1.7244  2.6068
15335TIP3    H267497   1.723   3.005  35.749  2.7969 -0.2575  0.2454
15336TIP3   OH267498   2.988   0.050   7.880  0.1267 -0.0469 -0.0924
15336TIP3    H167499   3.040  -0.006   7.938 -0.3855  0.7030  1.1289
15336TIP3    H267500   2.951   0.117   7.937 -1.1281  0.2088 -1.1415
15337TIP3   OH267501   0.178   1.064  27.280  0.3237  0.4105  0.1524
15337TIP3    H167502   0.229   0.992  27.317 -0.8576 -0.3991  0.2601
15337TIP3    H267503   0.211   1.142  27.325 -1.1385 -0.5301  3.1368
15338TIP3   OH267504   4.368   0.905  23.908  0.3921  0.5194  0.0917
15338TIP3    H167505   4.288   0.860  23.880 -0.1297  0.4930  1.5318
15338TIP3    H267506   4.439   0.847  23.880 -0.2590 -1.3275  1.9740
15339TIP3   OH267507   3.987   1.808   9.714  0.5188 -0.1238  0.1059
15339TIP3    H167508   4.068   1.820   9.664  1.0043 -0.0600  0.8945
15339TIP3    H267509   3.999   1.727   9.763 -0.4872 -0.8931 -0.8635
15340TIP3   OH267510   2.933   0.111  11.782  0.7588  0.0363 -0.6255
15340TIP3    H167511   2.982   0.052  11.724 -1.4123 -1.2812 -1.2339
15340TIP3    H267512   2.941   0.197  11.740  2.1297 -0.2275 -0.9518
15341TIP3   OH267513   4.303   1.948  22.329  0.2426  0.3659  0.4306
15341TIP3    H167514   4.227   1.942  22.271  0.5368 -1.7441  0.1721
15341TIP3    H267515   4.378   1.962  22.271  0.4310 -0.9099  0.3281
15342TIP3   OH267516   3.953   0.299  23.984  0.0435  0.4610 -0.4008
15342TIP3    H167517   3.955   0.217  24.034  3.0556  0.6038 -0.0889
15342TIP3    H267518   3.927   0.365  24.047 -1.7043 -0.1010 -0.4777
15343TIP3   OH267519   0.943   2.547  26.697  0.5012 -0.1849 -0.6357
15343TIP3    H167520   0.855   2.517  26.677  0.3326 -0.2675  0.1794
15343TIP3    H267521   0.989   2.547  26.613  0.0009 -1.0491 -0.9197
15344TIP3   OH267522   2.757   1.208  10.365 -0.4192 -0.5744 -0.2988
15344TIP3    H167523   2.789   1.220  10.454  0.4225 -2.0349 -0.3701
15344TIP3    H267524   2.836   1.205  10.311 -0.7162 -2.5504 -0.7039
15345TIP3   OH267525   1.354   3.109  30.648 -1.3326  0.9589 -0.5946
15345TIP3    H167526   1.369   3.023  30.688 -5.3043 -0.0680 -0.9447
15345TIP3    H267527   1.421   3.165  30.688 -0.0888 -1.7365  1.4674
15346TIP3   OH267528   0.656   3.879  11.030  0.7651 -0.0526  0.0253
15346TIP3    H167529   0.581   3.821  11.042 -1.2171  2.6591  2.1489
15346TIP3    H267530   0.632   3.935  10.957  0.3729  1.2009  1.0732
15347TIP3   OH267531   1.011   4.009   0.077  0.1814  0.2101 -0.3331
15347TIP3    H167532   0.965   4.003   0.161  0.1134  2.0946 -0.2019
15347TIP3    H267533   0.974   3.937   0.025  1.3854 -2.0555  1.7297
15348TIP3   OH267534   1.844   0.372  28.923 -0.1487 -0.0568 -0.1481
15348TIP3    H167535   1.904   0.313  28.879  0.8291 -0.4317  1.5957
15348TIP3    H267536   1.768   0.377  28.865  0.7749 -1.0814 -1.4895
15349TIP3   OH267537   0.650   3.414   3.474 -0.4819 -0.2408 -0.3242
15349TIP3    H167538   0.736   3.422   3.433 -0.1535 -0.1786  0.3674
15349TIP3    H267539   0.656   3.467   3.554 -1.1190 -0.3425 -0.2023
15350TIP3   OH267540   3.557   1.330   1.125  0.2108 -0.3828 -0.0206
15350TIP3    H167541   3.501   1.382   1.067 -1.2597 -0.9114  0.8797
15350TIP3    H267542   3.525   1.349   1.213  2.5032  0.5307  0.7004
15351TIP3   OH267543   0.436   4.145  28.253 -0.6747  0.1024 -0.1631
15351TIP3    H167544   0.501   4.192  28.305  0.9798 -2.0400 -0.1532
15351TIP3    H267545   0.365   4.126  28.315  0.5154 -0.9783  0.9184
15352TIP3   OH267546   2.840   2.045  30.411 -0.5972  0.1443 -0.2127
15352TIP3    H167547   2.909   1.979  30.404  0.4071  1.2822 -1.6556
15352TIP3    H267548   2.770   2.011  30.355 -0.5713 -0.2595 -0.0062
15353TIP3   OH267549   4.143   0.403  26.123 -0.2138  0.1887  0.4828
15353TIP3    H167550   4.235   0.428  26.115 -0.1145 -0.3892 -0.2826
15353TIP3    H267551   4.142   0.308  26.110 -0.9469  0.2292  0.1678
15354TIP3   OH267552   4.141   2.085  32.133  0.6606 -0.1337  0.5059
15354TIP3    H167553   4.097   2.025  32.194  2.8562 -2.5545 -0.1566
15354TIP3    H267554   4.229   2.050  32.124  1.2758  1.8045 -1.8968
15355TIP3   OH267555   2.962   4.397  34.775  0.2743 -0.1609  0.6630
15355TIP3    H167556   2.917   4.353  34.847  0.4453 -1.4325  0.0239
15355TIP3    H267557   3.053   4.366  34.780  1.1274  2.2343  1.8392
15356TIP3   OH267558   2.368   3.960   3.336 -0.6282  0.1415  0.4140
15356TIP3    H167559   2.436   3.928   3.396  0.2499  0.2120 -0.5286
15356TIP3    H267560   2.343   3.883   3.285  0.6288  0.6325 -1.0274
15357TIP3   OH267561   3.076   1.322  27.353 -0.1805 -0.5809 -0.5051
15357TIP3    H167562   2.985   1.314  27.383 -0.6578  0.0480 -1.7150
15357TIP3    H267563   3.128   1.322  27.433 -1.4161  1.2792  0.3650
15358TIP3   OH267564   3.358   2.598  34.466 -0.6186  0.7143 -0.1035
15358TIP3    H167565   3.386   2.529  34.406 -0.2586  0.4349  0.3852
15358TIP3    H267566   3.316   2.552  34.539 -0.2776  1.0052  0.2754
15359TIP3   OH267567   0.529   3.354  26.238  0.0550  0.5253 -0.9189
15359TIP3    H167568   0.613   3.328  26.277 -0.2579  0.7671 -0.0557
15359TIP3    H267569   0.473   3.277  26.249 -0.2655  0.8540 -0.1796
15360TIP3   OH267570   3.122   3.488   4.108 -0.5580  0.5437 -0.3680
15360TIP3    H167571   3.087   3.402   4.130 -0.3882  0.3207 -0.9439
15360TIP3    H267572   3.047   3.547   4.110 -0.3495  0.8490  2.2314
15361TIP3   OH267573   0.699   3.831   9.778 -0.5230 -0.0762  0.2246
15361TIP3    H167574   0.724   3.877   9.857 -0.1743 -2.3081  1.5003
15361TIP3    H267575   0.603   3.830   9.780 -0.5160 -0.0842  0.5985
15362TIP3   OH267576   4.035   0.983  39.692  0.4348  0.6870  0.1680
15362TIP3    H167577   3.949   0.981  39.652  0.3756  2.7288  0.0958
15362TIP3    H267578   4.092   0.939  39.629 -0.4646 -0.2464  0.0005
15363TIP3   OH267579   2.427   3.800  39.375  0.3643  0.2680  0.1653
15363TIP3    H167580   2.348   3.830  39.330 -0.3435 -2.0375 -0.2716
15363TIP3    H267581   2.482   3.765  39.304  0.9778  0.2053  0.6695
15364TIP3   OH267582   1.719   1.092  36.627  0.1981  0.6707 -0.3840
15364TIP3    H167583   1.772   1.157  36.581  0.5983 -0.0578 -0.9839
15364TIP3    H267584   1.742   1.103  36.719  2.0364 -0.1572 -0.6973
15365TIP3   OH267585   0.785   3.888  37.377 -0.2088  0.6445 -0.3328
15365TIP3    H167586   0.814   3.909  37.289  0.3399 -0.6463 -0.4824
15365TIP3    H267587   0.721   3.817  37.366 -1.8011  1.9368  0.1705
15366TIP3   OH267588   1.996   0.050  28.092 -0.3112  0.2668 -0.0173
15366TIP3    H167589   2.042   0.096  28.163  1.0455  0.7921 -1.1789
15366TIP3    H267590   1.939  -0.013  28.137  1.9559 -0.8341  1.5383
15367TIP3   OH267591   3.092   4.092   9.400  0.4803  0.5257  0.3094
15367TIP3    H167592   3.084   4.186   9.415 -2.2590  0.2314  1.3223
15367TIP3    H267593   3.037   4.052   9.468  1.6779 -1.8395  0.0088
15368TIP3   OH267594   2.499   0.028  38.169  0.6410  0.0768 -0.0085
15368TIP3    H167595   2.486   0.100  38.231 -0.2414 -0.0228 -0.0644
15368TIP3    H267596   2.499  -0.051  38.223  2.5323  0.1613  0.1683
15369TIP3   OH267597   2.420   4.231  32.812  0.5164 -0.4388  0.1618
15369TIP3    H167598   2.356   4.271  32.871  1.5616 -0.0610  1.0728
15369TIP3    H267599   2.450   4.153  32.859  0.7214 -0.6075 -0.2500
15370TIP3   OH267600   1.174   2.242  33.285 -0.2675  0.1487 -0.1701
15370TIP3    H167601   1.262   2.277  33.293  0.1709 -0.6752 -1.0693
15370TIP3    H267602   1.185   2.147  33.293 -1.0941  0.0491 -0.1089
15371TIP3   OH267603   0.011   1.051   5.054  0.2484 -0.2718  0.1803
15371TIP3    H167604   0.088   1.043   4.998  0.3400 -0.4336  0.3258
15371TIP3    H267605   0.045   1.087   5.136 -0.1439  1.6033 -0.4304
15372TIP3   OH267606   0.949   0.724  13.776  0.0873  0.1793 -0.3367
15372TIP3    H167607   0.981   0.744  13.864 -0.8237 -0.2916  0.1155
15372TIP3    H267608   0.872   0.780  13.766  1.8425  2.4905 -2.0185
15373TIP3   OH267609   2.015   4.340  18.343  0.1038  0.1603  0.0567
15373TIP3    H167610   1.939   4.393  18.319 -1.7185 -1.7162  1.3761
15373TIP3    H267611   2.032   4.362  18.434  0.4760 -0.2135  0.0813
15374TIP3   OH267612   2.950   1.595  35.574 -0.3040  0.0901  0.0199
15374TIP3    H167613   3.006   1.554  35.640  0.1398  0.0863 -0.3544
15374TIP3    H267614   2.906   1.666  35.621 -0.4887 -0.3224  0.4784
15375TIP3   OH267615   2.691   1.863   8.426 -0.0981 -0.5507 -0.2154
15375TIP3    H167616   2.778   1.882   8.390 -0.4445 -0.7837 -1.2212
15375TIP3    H267617   2.686   1.768   8.429  0.1776 -0.5454  1.1425
15376TIP3   OH267618   3.447   1.139  29.393  0.4387  0.4499 -0.6632
15376TIP3    H167619   3.369   1.090  29.420 -0.8496  2.8066  0.1640
15376TIP3    H267620   3.520   1.079  29.410 -1.0886 -1.4292 -0.4218
15377TIP3   OH267621   4.081   4.342   4.541  0.1949  0.2438  0.1809
15377TIP3    H167622   4.076   4.432   4.574  0.7105  0.2240  0.3189
15377TIP3    H267623   4.052   4.288   4.614 -1.5307  0.3757 -0.3680
15378TIP3   OH267624   1.958   0.823  35.343  0.3322 -0.2797 -0.1733
15378TIP3    H167625   2.027   0.761  35.365 -0.4294 -0.4228  1.9854
15378TIP3    H267626   1.961   0.889  35.412 -0.6026  0.6539 -0.9757
15379TIP3   OH267627   0.890   0.695  40.119 -0.3416  0.4037 -0.0309
15379TIP3    H167628   0.899   0.644  40.200  1.3491 -0.9633 -1.0239
15379TIP3    H267629   0.827   0.646  40.066  1.9360 -1.2517 -1.3441
15380TIP3   OH267630   2.371   4.244  38.366  0.2063  0.3669  0.0630
15380TIP3    H167631   2.371   4.261  38.460  0.4712  0.9380 -0.0359
15380TIP3    H267632   2.279   4.249  38.340 -0.1409 -1.8398  0.6386
15381TIP3   OH267633   2.372   0.600  35.833  0.1099  0.0883  0.5134
15381TIP3    H167634   2.463   0.613  35.806  0.5595 -1.4632  1.1717
15381TIP3    H267635   2.374   0.607  35.928 -0.4426 -0.0172  0.5403
15382TIP3   OH267636   0.423   4.088  14.095 -0.2365  0.3159 -0.3163
15382TIP3    H167637   0.432   4.182  14.081 -1.6278  0.2249 -2.2855
15382TIP3    H267638   0.337   4.066  14.057 -0.8693 -1.4382  1.8504
15383TIP3   OH267639   2.822   2.513   1.193 -0.1749  0.0253 -0.2101
15383TIP3    H167640   2.851   2.561   1.271 -1.1076 -0.2580  0.3324
15383TIP3    H267641   2.856   2.424   1.206  1.0523  0.3576 -0.9327
15384TIP3   OH267642   1.511   3.787  33.237 -0.6168 -0.1492  0.4790
15384TIP3    H167643   1.591   3.834  33.261 -0.1740 -0.2326 -0.7657
15384TIP3    H267644   1.464   3.847  33.180 -0.2973 -0.9860 -0.7059
15385TIP3   OH267645   1.701   1.179  30.472 -0.0830  0.2890 -0.5120
15385TIP3    H167646   1.696   1.091  30.436  2.0307  0.5257 -1.4998
15385TIP3    H267647   1.651   1.174  30.554 -1.0305 -1.4803 -1.1471
15386TIP3   OH267648   4.216   2.183   0.233  0.0310  0.1515 -0.8576
15386TIP3    H167649   4.259   2.097   0.225 -1.1513 -0.3783 -1.8814
15386TIP3    H267650   4.182   2.201   0.146  0.8447  2.0111 -0.8258
15387TIP3   OH267651   4.279   2.164  39.458  0.2650  0.3171 -0.3167
15387TIP3    H167652   4.272   2.154  39.364  1.2196  2.1665 -0.6331
15387TIP3    H267653   4.210   2.226  39.481 -1.0926 -1.4106  0.5066
15388TIP3   OH267654   0.439   3.454  23.242 -0.1886  0.1364  0.6382
15388TIP3    H167655   0.360   3.488  23.283 -1.0251 -0.7251 -0.2118
15388TIP3    H267656   0.436   3.359  23.258  0.7594  0.1109  0.7318
15389TIP3   OH267657   3.488   2.500  28.636  0.2684 -0.3202 -0.4230
15389TIP3    H167658   3.507   2.457  28.553 -4.0548  0.7162 -2.2302
15389TIP3    H267659   3.549   2.575  28.639  2.5159 -2.0089 -1.0287
15390TIP3   OH267660   4.269   3.254  39.153 -0.1314 -0.1723 -0.2039
15390TIP3    H167661   4.226   3.171  39.133  0.0211 -0.2360 -0.2688
15390TIP3    H267662   4.358   3.244  39.117  0.3901 -0.5696  1.1176
15391TIP3   OH267663   1.851   0.728   5.856 -0.3491 -0.0455 -0.0373
15391TIP3    H167664   1.855   0.696   5.946  2.1883  0.2940  0.0428
15391TIP3    H267665   1.841   0.649   5.803 -0.4642 -0.3742  0.4712
15392TIP3   OH267666   0.974   0.245   5.398 -0.0560 -0.1550  0.1993
15392TIP3    H167667   1.017   0.312   5.345 -0.8521 -0.3933 -0.7762
15392TIP3    H267668   0.921   0.294   5.461  0.9808  0.1321  0.8696
15393TIP3   OH267669   3.078   2.828   4.831  0.5089 -0.5410  0.3453
15393TIP3    H167670   2.987   2.850   4.810  0.5271 -1.4328 -0.7373
15393TIP3    H267671   3.073   2.782   4.915  0.0594  0.1276  0.6954
15394TIP3   OH267672   2.866   0.169   6.749  0.5736  0.1645 -0.3081
15394TIP3    H167673   2.859   0.200   6.839 -0.5345 -1.1653  0.1094
15394TIP3    H267674   2.776   0.153   6.722  0.9695 -0.7916 -1.1416
15395TIP3   OH267675   1.019   1.484  28.568  0.1057 -0.6368  0.4523
15395TIP3    H167676   0.980   1.485  28.480  1.0360  1.6221 -0.0079
15395TIP3    H267677   1.113   1.475  28.552  0.3654  0.6765  1.1329
15396TIP3   OH267678   3.689   1.345  28.267 -0.1702  0.4411  0.2330
15396TIP3    H167679   3.624   1.310  28.328  0.0006 -0.5599 -0.1389
15396TIP3    H267680   3.767   1.291  28.281 -0.2606 -0.0987 -1.1380
15397TIP3   OH267681   3.470   1.329  37.891 -0.2625 -0.3691 -0.4133
15397TIP3    H167682   3.565   1.336  37.902  0.1680 -0.2576 -3.3738
15397TIP3    H267683   3.445   1.252  37.942  1.0960  0.4844  1.6894
15398TIP3   OH267684   0.330   0.947   8.203  0.4785  0.2901  0.2390
15398TIP3    H167685   0.291   1.008   8.140  0.6027 -0.0955 -0.2116
15398TIP3    H267686   0.334   0.863   8.157  0.2491 -0.0819  0.8745
15399TIP3   OH267687   1.502   1.296  19.102  0.5484 -0.1261 -0.0292
15399TIP3    H167688   1.444   1.361  19.063  0.1408 -0.2250  0.4012
15399TIP3    H267689   1.590   1.332  19.092  0.2533  0.9551  1.0603
15400TIP3   OH267690   0.192   0.521  38.094 -0.2276  0.7181  0.2716
15400TIP3    H167691   0.261   0.463  38.125  0.4139  1.7608  0.8559
15400TIP3    H267692   0.154   0.475  38.020  1.1269  0.1317 -0.0945
15401TIP3   OH267693   3.945   0.718  40.127  0.2346  0.6668 -0.8808
15401TIP3    H167694   3.938   0.646  40.189 -2.3718 -0.0784 -1.9487
15401TIP3    H267695   4.025   0.699  40.078  1.2493  0.2045  0.8624
15402TIP3   OH267696   4.229   3.651  13.411 -0.4479 -0.2719 -0.0145
15402TIP3    H167697   4.208   3.620  13.499  0.7900  0.2236  0.4761
15402TIP3    H267698   4.290   3.723  13.424 -1.2215  0.6637 -1.2388
15403TIP3   OH267699   1.223   3.212  10.834  0.3137 -0.3457 -0.2999
15403TIP3    H167700   1.308   3.228  10.876  0.0635  1.5834 -0.4222
15403TIP3    H267701   1.245   3.197  10.742  0.4463  3.3384 -1.0300
15404TIP3   OH267702   3.546   1.927  38.933  0.6040  0.3263  0.4188
15404TIP3    H167703   3.561   1.898  38.843  2.7468  0.9358  0.5316
15404TIP3    H267704   3.595   2.009  38.941  0.0520  0.5413  2.0079
15405TIP3   OH267705   2.895   3.853  36.033  0.2179  0.1428  0.3507
15405TIP3    H167706   2.955   3.865  35.959 -0.0943 -0.7559 -0.0573
15405TIP3    H267707   2.943   3.795  36.093 -0.0356 -0.1524  0.2681
15406TIP3   OH267708   3.455   1.781  32.150  0.3704  0.1597  0.6381
15406TIP3    H167709   3.461   1.692  32.183  0.7870 -0.6657 -1.4844
15406TIP3    H267710   3.365   1.808  32.167 -0.3443 -1.4185 -0.4152
15407TIP3   OH267711   0.965   4.252  31.062  0.0187  0.5083 -0.4655
15407TIP3    H167712   0.986   4.264  31.154 -0.8801  1.3418 -0.3553
15407TIP3    H267713   1.048   4.226  31.022  0.1115 -1.4007  0.8253
15408TIP3   OH267714   0.932   0.833  34.456  0.0104  0.2279  0.6856
15408TIP3    H167715   0.853   0.883  34.477 -0.3741 -0.0390 -0.0760
15408TIP3    H267716   0.918   0.748  34.500  0.8926  0.9168  2.4013
15409TIP3   OH267717   2.879   2.069  41.244 -0.2172  0.2135  0.0011
15409TIP3    H167718   2.884   2.036  41.154  1.5718 -0.1200  0.1945
15409TIP3    H267719   2.932   2.148  41.244 -0.7395  0.5802  0.6335
15410TIP3   OH267720   0.324   0.836  32.000  0.1131  0.7053 -0.4933
15410TIP3    H167721   0.402   0.820  31.946 -0.1979  0.0786 -0.7739
15410TIP3    H267722   0.327   0.929  32.020  0.8256  0.7265 -0.6773
15411TIP3   OH267723   1.554   3.451  13.185 -0.3243  0.2519  0.3074
15411TIP3    H167724   1.602   3.368  13.182 -1.2476 -0.2713 -1.1027
15411TIP3    H267725   1.556   3.477  13.277  0.5994 -0.9599  0.6559
15412TIP3   OH267726   3.590   2.003  25.643  0.2788 -0.6204 -0.0813
15412TIP3    H167727   3.650   2.022  25.716 -0.9319 -0.8668  1.0139
15412TIP3    H267728   3.564   1.912  25.656 -1.2090 -0.1898  0.1405
15413TIP3   OH267729   3.702   2.371   9.886 -0.2483  0.1583  0.0359
15413TIP3    H167730   3.694   2.289   9.934  1.2268  0.1826  0.3722
15413TIP3    H267731   3.666   2.437   9.946  0.8660  0.0843  0.8042
15414TIP3   OH267732   0.243   2.899   3.079 -0.0712  0.1533  0.2704
15414TIP3    H167733   0.290   2.816   3.067  0.6339  0.1650  2.5686
15414TIP3    H267734   0.311   2.962   3.104 -0.7847  1.1415 -0.2212
15415TIP3   OH267735   2.145   4.211   1.039 -0.3990  0.1655 -0.0733
15415TIP3    H167736   2.214   4.145   1.037 -0.1940  0.3515  0.7068
15415TIP3    H267737   2.188   4.291   1.070 -1.0248  0.1990  0.7523
15416TIP3   OH267738   3.394   1.822   0.847 -0.2907 -0.2089  0.1799
15416TIP3    H167739   3.482   1.785   0.853 -1.3196 -3.4455 -2.1932
15416TIP3    H267740   3.406   1.906   0.803  1.5546 -1.3071 -1.5789
15417TIP3   OH267741   0.765   0.405  36.436  0.4191 -0.4084 -0.3055
15417TIP3    H167742   0.764   0.477  36.499 -4.6219 -0.6582  0.3836
15417TIP3    H267743   0.738   0.445  36.353  0.6686 -1.0146 -0.6840
15418TIP3   OH267744   3.783   4.126  10.062 -0.3896  0.0506  0.2593
15418TIP3    H167745   3.838   4.197  10.028 -0.1074 -0.6229 -0.7423
15418TIP3    H267746   3.804   4.051  10.007 -1.9744 -0.3568  0.1560
15419TIP3   OH267747   3.212   0.310  12.026 -0.7141 -0.0347  0.3956
15419TIP3    H167748   3.192   0.390  11.978  2.4378  2.4567  2.7556
15419TIP3    H267749   3.283   0.269  11.977  0.1648  0.6713  1.0340
15420TIP3   OH267750   3.881   1.700  34.971  0.1585 -0.3278  0.2240
15420TIP3    H167751   3.860   1.662  35.057 -1.0045 -0.6867 -0.2054
15420TIP3    H267752   3.796   1.715  34.930  0.7029 -0.0678 -0.8332
15421TIP3   OH267753   3.028   0.509   6.864 -0.0836  0.0763 -0.5555
15421TIP3    H167754   3.103   0.451   6.873  1.1182  1.7773  1.2693
15421TIP3    H267755   2.967   0.480   6.932 -0.8937 -0.9423 -1.6672
15422TIP3   OH267756   2.068   0.212  37.443 -0.0528  0.0617 -0.3204
15422TIP3    H167757   2.017   0.209  37.525  2.2223 -0.9632  1.1481
15422TIP3    H267758   2.084   0.305  37.429  1.6299  0.1841  1.8596
15423TIP3   OH267759   3.898   0.991  38.089  0.2828 -0.5119 -0.4565
15423TIP3    H167760   3.933   0.945  38.166  0.9215  0.9984  0.2036
15423TIP3    H267761   3.864   1.073  38.124  0.2781  0.0636 -1.7608
15424TIP3   OH267762   2.160   2.294  31.894 -0.0321 -0.0286  0.0320
15424TIP3    H167763   2.190   2.248  31.972 -1.8573 -0.0763  0.7446
15424TIP3    H267764   2.143   2.384  31.924 -2.7435 -0.5427  0.2672
15425TIP3   OH267765   0.467   0.932  39.178 -0.7070 -0.3645  0.8441
15425TIP3    H167766   0.546   0.986  39.184 -1.2469  0.3800  1.6450
15425TIP3    H267767   0.467   0.899  39.089  0.8173 -0.8662  1.0102
15426TIP3   OH267768   0.654   3.565  18.307 -0.4558 -0.3906 -0.3249
15426TIP3    H167769   0.611   3.628  18.366 -0.0116 -0.0567 -0.3489
15426TIP3    H267770   0.743   3.556  18.343 -0.4734 -0.9076 -0.3980
15427TIP3   OH267771   4.011   2.962  38.463  0.0858  0.3621 -0.0725
15427TIP3    H167772   3.990   2.870  38.450  2.0146 -0.1115 -0.2340
15427TIP3    H267773   3.989   2.980  38.555 -1.5323  0.1321 -0.3986
15428TIP3   OH267774   1.567   2.304  12.473  0.4571 -0.1888  0.7083
15428TIP3    H167775   1.529   2.323  12.387 -0.2628 -1.7658  0.6426
15428TIP3    H267776   1.551   2.383  12.524 -2.9367 -0.7048  0.6735
15429TIP3   OH267777   2.021   1.382  29.577 -0.3068  0.2916 -0.0214
15429TIP3    H167778   2.094   1.378  29.516  1.1396  1.7488  1.4983
15429TIP3    H267779   1.956   1.437  29.533  0.2770  0.4931 -0.6529
15430TIP3   OH267780   0.305   2.314   0.025  0.1755 -0.3192  0.1615
15430TIP3    H167781   0.312   2.333   0.119 -0.3417 -0.7140  0.2878
15430TIP3    H267782   0.376   2.364  -0.015 -0.4135  0.9387  0.6090
15431TIP3   OH267783   0.394   1.909   2.225  0.2452 -0.1925  0.1588
15431TIP3    H167784   0.328   1.869   2.167 -4.4116  0.3636  4.3767
15431TIP3    H267785   0.402   1.999   2.193 -0.1017 -0.5890 -1.1263
15432TIP3   OH267786   1.155   1.141  41.350 -0.3219  0.2924  0.5486
15432TIP3    H167787   1.198   1.057  41.341 -1.3666 -0.2792  0.7055
15432TIP3    H267788   1.174   1.188  41.269  1.4021  0.4631  1.0162
15433TIP3   OH267789   1.759   2.938  15.491 -0.5426 -0.0086 -0.4179
15433TIP3    H167790   1.809   3.019  15.497 -1.1844  0.2745  2.5823
15433TIP3    H267791   1.807   2.876  15.546 -1.4844 -0.8659 -0.5315
15434TIP3   OH267792   1.439   3.725  27.776  0.1962  0.2125  0.1153
15434TIP3    H167793   1.377   3.746  27.706  0.1261  0.3570  0.2181
15434TIP3    H267794   1.417   3.786  27.846  0.4759  0.2853  0.1422
15435TIP3   OH267795   3.472   0.290  28.936  0.4231 -0.7388  0.7342
15435TIP3    H167796   3.433   0.203  28.923 -1.0030  0.0876 -0.8456
15435TIP3    H267797   3.449   0.313  29.026 -3.0668 -0.2120 -0.1677
15436TIP3   OH267798   0.169   2.289  12.321  0.4385  0.1176  0.1773
15436TIP3    H167799   0.236   2.232  12.359  0.0650 -0.2069  0.3559
15436TIP3    H267800   0.215   2.372  12.305  0.9820 -0.2290 -0.0805
15437TIP3   OH267801   2.235   1.114  31.752  0.5301 -0.5499 -0.3836
15437TIP3    H167802   2.311   1.153  31.794  1.1107  0.7730 -2.5045
15437TIP3    H267803   2.183   1.079  31.824  0.9243  2.4967  1.5527
15438TIP3   OH267804   2.010   0.096  27.832 -0.6794 -0.2751  0.1933
15438TIP3    H167805   2.036   0.187  27.822  1.6398 -0.9766 -0.8087
15438TIP3    H267806   1.996   0.084  27.926 -0.8183  1.0465  0.3534
15439TIP3   OH267807   3.353   0.729  11.173  0.4821 -0.8364 -0.5619
15439TIP3    H167808   3.424   0.789  11.196 -0.1903 -0.5723  0.9416
15439TIP3    H267809   3.388   0.678  11.101  1.3254  0.9009 -1.4604
15440TIP3   OH267810   3.907   3.388  31.324 -0.5194  0.0271 -0.0574
15440TIP3    H167811   3.965   3.333  31.271  1.3549  0.4012  1.5198
15440TIP3    H267812   3.952   3.472  31.331 -1.8918  0.7782  0.1255
15441TIP3   OH267813   1.523   1.548   3.999  0.7099 -0.1542 -0.2359
15441TIP3    H167814   1.489   1.636   4.017 -3.5054 -1.4178 -1.1282
15441TIP3    H267815   1.530   1.544   3.904 -0.6834 -1.2565 -0.3144
15442TIP3   OH267816   0.173   0.046  26.660 -0.2071 -0.0301  0.8858
15442TIP3    H167817   0.139  -0.019  26.599 -2.6020 -1.4470  3.4990
15442TIP3    H267818   0.249   0.005  26.700 -0.6894 -0.5654  1.2783
15443TIP3   OH267819   4.059   0.571  10.405 -0.3857 -0.0783 -0.7561
15443TIP3    H167820   4.080   0.596  10.315 -1.5997  0.0105 -1.0272
15443TIP3    H267821   3.978   0.619  10.425 -0.5268 -0.6683  0.1252
15444TIP3   OH267822   4.398   2.929   4.128 -0.5526  0.1326  0.3604
15444TIP3    H167823   4.378   2.885   4.210  2.5918  0.3762  1.3713
15444TIP3    H267824   4.431   2.860   4.070 -0.4546  0.3382  0.1679
15445TIP3   OH267825   3.020   0.749  13.096  0.1390  0.1219 -0.1418
15445TIP3    H167826   2.968   0.721  13.021 -0.8423  1.7861 -0.1257
15445TIP3    H267827   3.086   0.807  13.058 -1.3556  2.2846  0.3803
15446TIP3   OH267828   0.735   4.117   5.370 -0.7767 -0.3039 -0.5697
15446TIP3    H167829   0.808   4.121   5.309  0.7820 -0.2097  1.1988
15446TIP3    H267830   0.673   4.182   5.338 -0.0643 -0.3122 -2.0549
15447TIP3   OH267831   2.959   0.012  12.563 -0.0572 -0.1079  0.5989
15447TIP3    H167832   2.869   0.040  12.578  0.2306  1.3865 -0.3135
15447TIP3    H267833   3.011   0.065  12.623  0.3673  0.3475 -0.1558
15448TIP3   OH267834   0.649   2.168  29.386 -0.3077  0.1281  0.7341
15448TIP3    H167835   0.740   2.161  29.357 -0.0269  2.3153  0.9286
15448TIP3    H267836   0.640   2.097  29.450  0.8965 -0.8473 -0.1127
15449TIP3   OH267837   3.638   2.626   9.070  0.0091 -0.0899  0.9046
15449TIP3    H167838   3.722   2.669   9.085  1.1791 -1.2045 -1.7650
15449TIP3    H267839   3.577   2.698   9.052  0.9684  0.6508  0.5102
15450TIP3   OH267840   3.731   3.070   0.865  0.0833  0.2214  0.1197
15450TIP3    H167841   3.658   3.093   0.809  0.8129  1.1285 -0.4803
15450TIP3    H267842   3.770   2.993   0.823  0.1553  0.4244 -0.1893
15451TIP3   OH267843   3.601   0.280  39.216  0.2330  0.1012 -0.2461
15451TIP3    H167844   3.562   0.199  39.249 -2.2231  1.3764  0.1980
15451TIP3    H267845   3.639   0.256  39.132 -2.4588 -1.0939 -1.2220
15452TIP3   OH267846   3.186   0.721   9.844  0.4262  0.1566  0.2038
15452TIP3    H167847   3.211   0.659   9.775  0.9271  0.7934 -0.1996
15452TIP3    H267848   3.126   0.672   9.900 -1.4321  0.1778 -1.6731
15453TIP3   OH267849   3.520   0.295  38.043  0.0768  0.0928 -0.1236
15453TIP3    H167850   3.539   0.285  38.137 -0.7754  0.2438  0.0773
15453TIP3    H267851   3.605   0.295  38.001  0.5500  1.3346  0.7793
15454TIP3   OH267852   3.278   0.433  39.171 -0.2672 -0.0262 -0.0524
15454TIP3    H167853   3.233   0.468  39.248  0.6236 -0.9718  0.9375
15454TIP3    H267854   3.359   0.482  39.166 -0.2777 -0.0360 -0.3350
15455TIP3   OH267855   0.306   2.026  38.795 -0.8172  0.2294 -0.4755
15455TIP3    H167856   0.372   2.074  38.744 -2.4933  0.6650 -2.3645
15455TIP3    H267857   0.344   1.939  38.807  1.0383  1.1225  0.4656
15456TIP3   OH267858   1.724   1.375   0.926  0.1597 -0.1182 -0.6458
15456TIP3    H167859   1.695   1.288   0.953 -3.8403  1.3526  0.6283
15456TIP3    H267860   1.783   1.403   0.996 -1.3447 -0.5521  0.8728
15457TIP3   OH267861   4.367   3.883  38.127  0.3705  0.6518 -0.4210
15457TIP3    H167862   4.357   3.789  38.144  0.0313  0.3174 -2.2705
15457TIP3    H267863   4.426   3.888  38.052 -1.5866  1.7500 -1.9946
15458TIP3   OH267864   4.132   0.473  30.874 -0.4503  0.7247 -0.0876
15458TIP3    H167865   4.198   0.540  30.893 -0.0049  0.4108 -0.5264
15458TIP3    H267866   4.139   0.458  30.780 -1.6680  1.2364 -0.2744
15459TIP3   OH267867   1.991   1.025   9.457  0.6105 -0.3313 -0.0299
15459TIP3    H167868   2.061   1.087   9.479 -0.0947  1.0516 -1.4596
15459TIP3    H267869   1.956   1.058   9.374  0.9075 -3.2938 -1.4361
15460TIP3   OH267870   0.839   0.622  29.057 -0.0356  0.5142 -0.0465
15460TIP3    H167871   0.901   0.586  28.993 -1.5647 -1.6862 -0.4092
15460TIP3    H267872   0.795   0.692  29.009  0.3581  0.3468 -0.6761
15461TIP3   OH267873   0.067   1.182   9.237  0.5296 -0.1782  0.1408
15461TIP3    H167874   0.137   1.131   9.195  1.5247  1.4023 -0.1942
15461TIP3    H267875  -0.010   1.125   9.233  0.8659 -0.5913 -2.7568
15462TIP3   OH267876   0.656   1.125  27.919  0.3401  0.3875  0.1364
15462TIP3    H167877   0.640   1.141  27.826  1.5847  1.5537  0.0893
15462TIP3    H267878   0.637   1.208  27.961  2.0107  0.5752  0.5987
15463TIP3   OH267879   3.158   2.988  36.869 -0.4977 -1.2868 -0.7013
15463TIP3    H167880   3.167   3.050  36.797  1.3272 -1.7863 -0.9424
15463TIP3    H267881   3.134   2.905  36.827  2.5885 -2.1088 -1.0548
15464TIP3   OH267882   3.465   2.008  30.175 -0.3056  0.4595 -0.1423
15464TIP3    H167883   3.439   1.954  30.250  1.7033  1.1454  1.1560
15464TIP3    H267884   3.559   1.992  30.167 -0.0648  2.1654 -1.0496
15465TIP3   OH267885   1.336   3.803  37.970 -0.3070  0.0423 -0.6833
15465TIP3    H167886   1.336   3.707  37.980 -1.3773  0.1018  0.0655
15465TIP3    H267887   1.269   3.820  37.904  0.9282  0.2061 -1.9383
15466TIP3   OH267888   2.680   2.315  38.464  0.2871  0.3272 -0.2832
15466TIP3    H167889   2.606   2.365  38.429 -0.7359  0.3243  1.7281
15466TIP3    H267890   2.657   2.224  38.446 -0.4331  0.2997  0.6883
15467TIP3   OH267891   1.866   1.970  30.270 -0.0176  0.4508 -0.7020
15467TIP3    H167892   1.953   2.011  30.274  0.5397 -0.4301 -2.6231
15467TIP3    H267893   1.883   1.877  30.282 -0.8365  0.3532 -0.2115
15468TIP3   OH267894   4.178   0.911  35.585  0.1779  0.5246  0.0972
15468TIP3    H167895   4.115   0.890  35.517 -0.1729  1.9124 -0.0299
15468TIP3    H267896   4.191   1.005  35.578  1.5417  0.4126  0.7471
15469TIP3   OH267897   2.301   3.377  41.029  0.8519  0.1760  0.3809
15469TIP3    H167898   2.252   3.303  40.994  2.7491 -1.2324  0.4979
15469TIP3    H267899   2.251   3.454  41.004 -0.1648 -1.0349 -1.5263
15470TIP3   OH267900   0.856   2.876  29.240 -0.3813 -0.0282 -0.8739
15470TIP3    H167901   0.928   2.857  29.301 -0.5389  0.0564 -0.6602
15470TIP3    H267902   0.837   2.792  29.199 -2.2392 -0.7856  1.3005
15471TIP3   OH267903   2.877   0.628  39.037 -0.8004  0.1430 -0.5601
15471TIP3    H167904   2.797   0.677  39.018  0.6850  2.2908 -1.6960
15471TIP3    H267905   2.847   0.538  39.051 -3.4221  0.9140 -0.6384
15472TIP3   OH267906   3.312   3.638   4.489  0.8010 -0.1235 -0.2313
15472TIP3    H167907   3.362   3.700   4.542  0.6962 -0.3045  0.0808
15472TIP3    H267908   3.358   3.555   4.499  0.3052 -0.3490  0.2615
15473TIP3   OH267909   0.161   3.623  29.828 -0.7607  0.5580 -0.2620
15473TIP3    H167910   0.243   3.574  29.837 -1.1784 -0.3435 -1.1458
15473TIP3    H267911   0.179   3.687  29.760 -1.0995 -0.3482 -1.2166
15474TIP3   OH267912   0.945   2.791  16.905  0.2853  0.5072  0.0897
15474TIP3    H167913   0.873   2.840  16.945  0.2176  1.6665 -1.3622
15474TIP3    H267914   0.946   2.820  16.814  1.3395 -0.9741 -0.4096
15475TIP3   OH267915   1.338   2.087  29.898  0.6219 -0.7613 -0.0777
15475TIP3    H167916   1.378   2.000  29.906 -0.3467 -1.4506 -2.0836
15475TIP3    H267917   1.280   2.080  29.822  0.2537  1.5550 -0.0857
15476TIP3   OH267918   1.883   1.952  29.849 -0.4490 -0.0522  0.2150
15476TIP3    H167919   1.855   1.941  29.758  0.1115 -0.3882  0.0839
15476TIP3    H267920   1.896   1.863  29.881 -0.8838  0.0535  0.7074
15477TIP3   OH267921   3.590   3.140  36.894 -0.1112  0.1943 -0.6120
15477TIP3    H167922   3.675   3.101  36.872 -0.0132  0.3502 -0.5141
15477TIP3    H267923   3.600   3.171  36.984 -0.8996 -1.5129  0.1038
15478TIP3   OH267924   1.707   4.389  36.383  0.1945  0.1188  1.0872
15478TIP3    H167925   1.663   4.423  36.305  0.6808  0.3728  0.9219
15478TIP3    H267926   1.746   4.306  36.354  0.9605  0.5472  0.8680
15479TIP3   OH267927   3.484   2.355  32.611 -0.1723  0.1374  0.6571
15479TIP3    H167928   3.506   2.262  32.600 -0.9402 -0.1412  1.3503
15479TIP3    H267929   3.568   2.399  32.621  0.5771  0.1060 -3.5103
15480TIP3   OH267930   2.820   1.642  28.708 -0.2415 -0.1331 -0.5463
15480TIP3    H167931   2.806   1.648  28.614  1.4621 -0.5902 -0.8569
15480TIP3    H267932   2.905   1.598  28.718 -0.8375 -0.9899  1.2195
15481TIP3   OH267933   3.474   1.655   9.560 -0.5103 -0.1080 -0.3325
15481TIP3    H167934   3.441   1.710   9.489 -0.5481 -0.2995 -0.4615
15481TIP3    H267935   3.528   1.589   9.516 -0.2098  0.0147 -0.1499
15482TIP3   OH267936   3.415   0.321  31.082 -0.0098  0.2573 -0.4499
15482TIP3    H167937   3.334   0.366  31.059  0.2193  0.9671  0.0599
15482TIP3    H267938   3.394   0.272  31.161  0.0739  0.5249 -0.2577
15483TIP3   OH267939   1.967   3.920  12.178 -0.6419 -0.7173  0.8596
15483TIP3    H167940   1.900   3.977  12.216  0.2787 -0.0097  1.4874
15483TIP3    H267941   1.972   3.845  12.238 -0.5468 -0.5312  1.0903
15484TIP3   OH267942   1.281   2.334   0.789  0.3033 -0.0048  0.0872
15484TIP3    H167943   1.353   2.396   0.781  0.7460 -0.3676  1.1645
15484TIP3    H267944   1.312   2.269   0.852 -0.4521 -0.8999 -0.4373
15485TIP3   OH267945   1.681   1.486  13.751  0.5127 -0.4909 -0.2211
15485TIP3    H167946   1.637   1.409  13.789 -0.9186  0.5460  0.3123
15485TIP3    H267947   1.742   1.514  13.819  0.8877 -1.0136 -0.3323
15486TIP3   OH267948   2.692   3.598  37.644  0.2621 -0.2898  0.0912
15486TIP3    H167949   2.722   3.567  37.559 -0.3902 -1.3822  0.2450
15486TIP3    H267950   2.628   3.666  37.624 -0.8108 -1.3887 -0.3433
15487TIP3   OH267951   3.096   4.318   0.266  0.1559 -0.2233  0.5381
15487TIP3    H167952   3.132   4.274   0.344 -0.2649 -0.4284  0.6183
15487TIP3    H267953   3.102   4.252   0.197  1.1567  0.1826  0.2248
15488TIP3   OH267954   0.810   1.652  13.866 -0.5601 -0.5262 -0.5193
15488TIP3    H167955   0.873   1.580  13.863  0.0192 -0.0002 -1.2734
15488TIP3    H267956   0.851   1.717  13.923 -1.5737 -1.2191  1.0701
15489TIP3   OH267957   3.796   3.009  37.464  0.0128 -0.2026  0.5349
15489TIP3    H167958   3.743   3.088  37.472  0.0161 -0.2023  0.5523
15489TIP3    H267959   3.850   3.008  37.542 -0.7656 -0.7929  1.0858
15490TIP3   OH267960   2.000   3.036   8.383 -0.7381 -0.1225 -0.3433
15490TIP3    H167961   2.049   2.983   8.319 -0.1591 -0.1721  0.1322
15490TIP3    H267962   1.997   3.123   8.343  0.8661  0.2084  0.1786
15491TIP3   OH267963   2.395   2.879  36.592  0.0716  0.1944  0.4717
15491TIP3    H167964   2.311   2.890  36.549 -0.4644 -2.8081  0.5399
15491TIP3    H267965   2.397   2.787  36.619  1.9748  0.9422  3.4842
15492TIP3   OH267966   1.823   1.348   5.015  0.0865 -0.1964  0.6337
15492TIP3    H167967   1.784   1.426   5.055 -2.5437 -1.1893  0.1387
15492TIP3    H267968   1.832   1.286   5.087 -1.4061 -0.7488  0.3763
15493TIP3   OH267969   3.458   1.264  33.537  0.3655 -0.0200  0.5710
15493TIP3    H167970   3.484   1.236  33.625 -1.1125 -0.0487  1.0220
15493TIP3    H267971   3.482   1.356  33.533  1.4737 -0.2855  0.5710
15494TIP3   OH267972   3.176   3.463  27.861  0.3068  0.3284 -0.5376
15494TIP3    H167973   3.161   3.536  27.921  1.2870 -0.7481  1.1023
15494TIP3    H267974   3.104   3.402  27.878  1.3719 -0.6421  0.6497
15495TIP3   OH267975   1.637   3.595  29.221 -0.0165 -0.6150  0.2470
15495TIP3    H167976   1.616   3.612  29.313 -0.6372  0.9834 -0.1504
15495TIP3    H267977   1.564   3.634  29.173  0.1527 -1.6894 -0.9336
15496TIP3   OH267978   0.598   1.601  34.148 -0.0253  0.2528  0.0178
15496TIP3    H167979   0.567   1.593  34.058 -0.7336 -2.3058  0.3953
15496TIP3    H267980   0.690   1.628  34.139 -0.0073 -0.1873 -1.4966
15497TIP3   OH267981   2.487   1.280   6.962  0.5572  0.1466  0.1701
15497TIP3    H167982   2.522   1.206   7.013 -0.8477 -0.0110  0.9468
15497TIP3    H267983   2.514   1.358   7.011 -1.1285 -0.0172  1.4369
15498TIP3   OH267984   0.140   2.108  28.950  0.0032 -0.0853 -0.2882
15498TIP3    H167985   0.170   2.150  29.030  4.0919 -0.5382 -1.3776
15498TIP3    H267986   0.120   2.180  28.890 -0.2616  0.2357  0.1827
15499TIP3   OH267987   2.589   2.200   1.913  0.0363 -0.2938 -0.4867
15499TIP3    H167988   2.681   2.201   1.941 -0.4701 -0.3217  1.3232
15499TIP3    H267989   2.588   2.254   1.834  1.7249 -0.9060 -0.9836
15500TIP3   OH267990   4.180   2.477   5.286 -0.4309 -0.2068  0.1799
15500TIP3    H167991   4.222   2.428   5.356  0.3136 -0.7822 -0.6438
15500TIP3    H267992   4.089   2.484   5.312  0.0685  0.6997  1.8118
15501TIP3   OH267993   4.232   1.166   2.705  0.3074 -0.0989 -0.3165
15501TIP3    H167994   4.172   1.238   2.723 -0.3849 -0.7270 -0.0150
15501TIP3    H267995   4.187   1.089   2.742  1.2308 -0.6043 -0.2318
15502TIP3   OH267996   1.387   4.074  35.948  0.0581 -0.0588 -0.6404
15502TIP3    H167997   1.480   4.070  35.970 -0.3065  2.0846  1.6645
15502TIP3    H267998   1.360   4.163  35.970 -2.8029 -0.9407 -0.1296
15503TIP3   OH267999   0.420   3.059  21.219  0.5068  0.4218 -0.1933
15503TIP3    H168000   0.349   3.119  21.238  0.2244 -0.1908  0.7758
15503TIP3    H268001   0.463   3.095  21.141 -0.5227  1.0848 -0.4662
15504TIP3   OH268002   1.895   0.996  27.397  0.0640  0.0866 -0.4821
15504TIP3    H168003   1.861   1.054  27.328  0.1626 -0.3907 -0.9415
15504TIP3    H268004   1.838   1.011  27.472 -1.4154 -0.9548 -1.3403
15505TIP3   OH268005   2.327   0.709   2.363 -0.7719  0.6292 -0.7792
15505TIP3    H168006   2.397   0.656   2.325 -1.4776  0.3994 -1.8237
15505TIP3    H268007   2.372   0.778   2.413  0.1985  0.6636 -1.6743
15506TIP3   OH268008   2.420   1.969  10.538 -0.4670  0.8197  0.2803
15506TIP3    H168009   2.329   1.971  10.567 -1.0857 -0.4637 -1.4261
15506TIP3    H268010   2.435   1.878  10.512  1.5926  0.7895  1.3509
15507TIP3   OH268011   3.863   1.446  29.289 -0.2029  0.0372 -0.1678
15507TIP3    H168012   3.907   1.467  29.207 -0.2126  0.9626  0.0574
15507TIP3    H268013   3.874   1.351  29.298  0.9216  0.1066 -0.5935
15508TIP3   OH268014   0.247   0.429  33.972  0.0696  0.7203 -0.0375
15508TIP3    H168015   0.196   0.352  33.998  0.0168  0.2104 -1.5458
15508TIP3    H268016   0.305   0.396  33.902  0.1088  2.0269 -0.6415
15509TIP3   OH268017   3.247   2.254  28.126 -0.6756  0.0793 -0.0293
15509TIP3    H168018   3.319   2.279  28.067 -1.6526  0.1108 -1.2645
15509TIP3    H268019   3.244   2.323  28.192  1.3471 -0.6750  0.9319
15510TIP3   OH268020   2.262   2.310  38.304  0.1306  0.1040 -0.5956
15510TIP3    H168021   2.276   2.224  38.264  1.0086 -0.3999  0.7307
15510TIP3    H268022   2.172   2.306  38.338  0.7396 -1.0043  1.0291
15511TIP3   OH268023   1.342   2.511   9.443 -0.2262 -0.0368  0.1605
15511TIP3    H168024   1.276   2.443   9.455  1.3513 -1.3309  2.0187
15511TIP3    H268025   1.384   2.489   9.361 -0.3002 -0.8106  0.3227
15512TIP3   OH268026   3.166   2.858  12.295  0.0911  0.6114  0.1558
15512TIP3    H168027   3.188   2.807  12.373 -1.1063  2.2592  1.6292
15512TIP3    H268028   3.071   2.860  12.294 -0.0084 -0.8144 -2.3800
15513TIP3   OH268029   2.653   1.278  32.888  0.2449  0.0680  0.6741
15513TIP3    H168030   2.722   1.235  32.838  0.3545 -1.2279  1.8837
15513TIP3    H268031   2.574   1.267  32.834  0.9396  1.5637 -0.7141
15514TIP3   OH268032   0.995   0.103  29.399 -0.2871 -0.4949 -0.0821
15514TIP3    H168033   1.038   0.187  29.383  2.0697 -1.3577  1.1674
15514TIP3    H268034   0.972   0.070  29.312  1.8997 -0.0874 -0.8689
15515TIP3   OH268035   2.308   1.500   8.378  0.3171 -0.0798  0.2828
15515TIP3    H168036   2.255   1.578   8.395  2.3879  1.0519  1.9765
15515TIP3    H268037   2.340   1.473   8.464 -0.2007 -2.7636 -0.2794
15516TIP3   OH268038   3.336   3.880  30.482  0.0558 -0.2186 -0.0823
15516TIP3    H168039   3.308   3.971  30.467  1.4637  0.1344 -0.7349
15516TIP3    H268040   3.282   3.828  30.423 -0.2744  0.2664 -0.2124
15517TIP3   OH268041   1.589   0.471   8.930 -0.1495 -0.1384  0.4010
15517TIP3    H168042   1.666   0.414   8.923  0.9047  0.9254  2.3724
15517TIP3    H268043   1.599   0.534   8.859  0.2074 -0.6910 -0.0412
15518TIP3   OH268044   1.290   2.866  29.295 -0.0145  0.5857  0.0973
15518TIP3    H168045   1.315   2.898  29.382 -1.2201  0.6677  0.4321
15518TIP3    H268046   1.322   2.932  29.234  2.6148 -0.4229  0.2672
15519TIP3   OH268047   0.622   2.247  37.412 -0.0124 -0.4309 -0.3927
15519TIP3    H168048   0.692   2.269  37.474  0.2590  1.3652 -1.2540
15519TIP3    H268049   0.544   2.288  37.449  0.2303  0.9973 -1.3754
15520TIP3   OH268050   2.389   2.736   7.982 -0.0002  0.2880 -0.2584
15520TIP3    H168051   2.430   2.680   7.916  0.5012 -0.4327  0.6598
15520TIP3    H268052   2.386   2.683   8.061  1.0936  1.7476  0.8262
15521TIP3   OH268053   3.701   2.669  11.560  0.1764  0.0919 -0.0168
15521TIP3    H168054   3.632   2.699  11.620  0.6040  1.6021 -0.2450
15521TIP3    H268055   3.660   2.667  11.474  0.0701 -0.2846  0.0398
15522TIP3   OH268056   1.344   0.391  38.142 -0.5562  0.0604 -0.4025
15522TIP3    H168057   1.350   0.306  38.186 -3.7061  0.1914  0.4853
15522TIP3    H268058   1.385   0.376  38.057  1.4884 -1.4998  0.7338
15523TIP3   OH268059   0.610   2.464  13.107  0.0606  0.4314 -0.0178
15523TIP3    H168060   0.571   2.379  13.129 -3.1614  1.7951  0.1292
15523TIP3    H268061   0.648   2.451  13.020 -0.5987 -1.1020 -0.1124
15524TIP3   OH268062   1.583   2.063   7.346  0.6016 -0.7710  0.2441
15524TIP3    H168063   1.518   2.124   7.380  1.2098  0.7437 -1.1715
15524TIP3    H268064   1.573   2.068   7.251  0.1227 -3.5410  0.0755
15525TIP3   OH268065   0.425   0.280  23.312  0.5987 -0.4503  1.0360
15525TIP3    H168066   0.363   0.296  23.383  2.9003  0.1752  3.0598
15525TIP3    H268067   0.430   0.364  23.266  1.3738  0.1304  2.1274
15526TIP3   OH268068   3.225   1.393  27.587  0.3893  0.0925  0.0031
15526TIP3    H168069   3.212   1.461  27.652 -1.1801 -0.4503  0.2917
15526TIP3    H268070   3.229   1.311  27.637 -0.1558 -0.2608 -0.5099
15527TIP3   OH268071   4.240   1.568  22.299  1.3014  0.1629 -0.5452
15527TIP3    H168072   4.251   1.595  22.390 -0.2616 -0.9442  0.0152
15527TIP3    H268073   4.161   1.614  22.269 -1.1531 -3.1149  0.2863
15528TIP3   OH268074   4.164   1.125   8.630 -0.1585  0.0180 -0.2544
15528TIP3    H168075   4.246   1.161   8.595  0.0090  0.1556  0.2711
15528TIP3    H268076   4.105   1.200   8.635  0.6853  0.6011  2.3306
15529TIP3   OH268077   1.196   0.242  40.686 -0.1880  0.4647 -0.4350
15529TIP3    H168078   1.262   0.180  40.657 -0.9609  0.6050 -2.7339
15529TIP3    H268079   1.131   0.190  40.733  1.2626  0.2614  1.4367
15530TIP3   OH268080   0.210   0.631  28.431 -0.2485  0.3464  0.8849
15530TIP3    H168081   0.140   0.652  28.492 -0.2018 -1.7100  1.7103
15530TIP3    H268082   0.253   0.554  28.469  0.5826 -0.2254 -1.0998
15531TIP3   OH268083   0.026   2.064  11.429 -0.4451  0.4101  0.1428
15531TIP3    H168084  -0.011   2.092  11.513 -0.4522 -0.2204  0.3542
15531TIP3    H268085   0.105   2.016  11.452  1.0986  2.5754 -0.3522
15532TIP3   OH268086   0.348   3.771  40.675 -0.2073  0.4642  0.4048
15532TIP3    H168087   0.401   3.843  40.642 -0.2716  0.7133  0.8399
15532TIP3    H268088   0.285   3.753  40.605 -0.1525  0.7899  0.2702
15533TIP3   OH268089   0.404   1.465  10.834  0.1710  0.1860 -0.1197
15533TIP3    H168090   0.397   1.541  10.777 -0.8666  0.7274  0.7046
15533TIP3    H268091   0.496   1.463  10.861  0.6303  0.0303 -1.6300
15534TIP3   OH268092   2.603   0.961  36.013 -0.2415 -0.0770 -0.3086
15534TIP3    H168093   2.526   0.933  35.964 -0.2866  0.1902 -0.3922
15534TIP3    H268094   2.580   0.948  36.105 -0.2757 -0.2743 -0.3432
15535TIP3   OH268095   0.527   1.291  41.656  0.1417  0.9108 -0.4231
15535TIP3    H168096   0.593   1.226  41.635  0.2988  0.4727  1.2711
15535TIP3    H268097   0.453   1.271  41.598  0.5539 -0.1680 -0.5877
15536TIP3   OH268098   2.639   3.573  13.595 -0.1370  0.6058  0.0039
15536TIP3    H168099   2.634   3.649  13.653  0.4242  0.7070 -0.0790
15536TIP3    H268100   2.727   3.539  13.607  0.1041  0.8265 -1.0378
15537TIP3   OH268101   3.842   1.942  37.595 -0.4133 -0.3398  0.1956
15537TIP3    H168102   3.858   1.871  37.534 -0.3624 -0.5438  0.4472
15537TIP3    H268103   3.759   1.920  37.637 -0.0947 -0.5736  0.7213
15538TIP3   OH268104   4.257   1.049  26.213  0.2508 -0.4161  0.2102
15538TIP3    H168105   4.234   0.962  26.245 -0.3701 -0.5531 -0.5657
15538TIP3    H268106   4.176   1.100  26.221 -0.5982 -1.0310 -2.9704
15539TIP3   OH268107   2.634   1.736  18.003  0.6384 -0.3814  0.7292
15539TIP3    H168108   2.622   1.771  18.091  0.7906  2.6410 -0.3233
15539TIP3    H268109   2.627   1.812  17.946 -0.5802 -2.3775 -2.0130
15540TIP3   OH268110   3.130   4.371  39.809  0.0350 -0.0615  0.2496
15540TIP3    H168111   3.098   4.307  39.745  0.4576  0.4195 -0.4726
15540TIP3    H268112   3.051   4.413  39.842 -0.2354 -0.8552  0.6237
15541TIP3   OH268113   1.641   0.081  32.455  0.3194 -0.1835 -0.1954
15541TIP3    H168114   1.682   0.168  32.459 -1.2961  0.7836 -2.3336
15541TIP3    H268115   1.655   0.052  32.365 -1.9386 -0.6424 -0.4736
15542TIP3   OH268116   1.460   2.300  35.363 -0.0345  0.3344  0.2449
15542TIP3    H168117   1.370   2.284  35.336 -0.5074 -1.0855  2.4210
15542TIP3    H268118   1.484   2.382  35.319 -2.2020  0.5118 -0.7406
15543TIP3   OH268119   0.198   3.051  33.452 -0.0756  1.4765  0.1599
15543TIP3    H168120   0.208   2.986  33.383 -3.1097  0.7831  0.2117
15543TIP3    H268121   0.193   3.000  33.533  1.8164  2.1655  0.7707
15544TIP3   OH268122   2.731   1.851   8.737  0.0743  0.9203  0.3790
15544TIP3    H168123   2.809   1.881   8.784 -1.6937  3.4161  2.0125
15544TIP3    H268124   2.747   1.874   8.646  2.5287 -1.6610  0.0400
15545TIP3   OH268125   0.426   2.530   7.532 -0.7057  0.5656 -0.3208
15545TIP3    H168126   0.411   2.496   7.444  0.0633 -0.3946 -0.0869
15545TIP3    H268127   0.467   2.616   7.518  1.1174 -0.3533 -0.9234
15546TIP3   OH268128   1.553   1.215  39.207  0.3067 -0.3741  0.0637
15546TIP3    H168129   1.495   1.281  39.168  0.2860 -0.8640 -0.7534
15546TIP3    H268130   1.634   1.263  39.225  1.1458 -0.5988 -2.7207
15547TIP3   OH268131   2.777   0.665  36.886 -0.4979  0.3409  0.3904
15547TIP3    H168132   2.772   0.594  36.949 -0.9508 -0.4832 -0.5598
15547TIP3    H268133   2.867   0.661  36.852  0.0147  1.3010  1.5285
15548TIP3   OH268134   1.597   3.689  40.084 -0.3283  0.2252  0.4565
15548TIP3    H168135   1.553   3.766  40.121  0.6009  1.8143 -1.5317
15548TIP3    H268136   1.558   3.678  39.998  1.2970  0.0717 -0.3030
15549TIP3   OH268137   2.641   2.468  37.846  0.0308 -0.4708  0.2476
15549TIP3    H168138   2.689   2.385  37.851  3.1007  1.2516  1.0487
15549TIP3    H268139   2.698   2.527  37.798 -2.5273  1.0117 -1.2358
15550TIP3   OH268140   2.402   3.294  38.365  0.2745 -0.0305  0.0327
15550TIP3    H168141   2.315   3.262  38.343 -0.1569  1.9487 -1.4062
15550TIP3    H268142   2.397   3.312  38.459 -1.6342  2.0579 -0.3807
15551TIP3   OH268143   3.002   2.640  33.495 -0.0909  0.1617 -0.2548
15551TIP3    H168144   2.920   2.598  33.524 -0.8784  0.6389 -1.7003
15551TIP3    H268145   3.034   2.584  33.424  2.5127 -1.7326  2.1910
15552TIP3   OH268146   0.370   1.042   6.826 -0.0272 -0.0347  0.2500
15552TIP3    H168147   0.461   1.071   6.815  0.1412  0.1631  1.8015
15552TIP3    H268148   0.318   1.119   6.806  0.3377  0.8936  2.5299
15553TIP3   OH268149   2.543   0.768  17.854  0.2569  0.1255 -0.3760
15553TIP3    H168150   2.485   0.833  17.816 -0.9882  0.7201  2.3194
15553TIP3    H268151   2.618   0.818  17.885  0.9637 -0.2708 -1.3715
15554TIP3   OH268152   0.236   4.166  12.759 -0.3384  0.1073  0.3267
15554TIP3    H168153   0.213   4.185  12.850  0.2373  0.7144  0.3485
15554TIP3    H268154   0.165   4.206  12.708  0.4405  1.6657  0.4129
15555TIP3   OH268155   2.166   0.246  33.231  0.1086 -0.6913  0.6467
15555TIP3    H168156   2.117   0.326  33.216 -1.4147 -1.8772 -1.1054
15555TIP3    H268157   2.250   0.260  33.186  0.6664  0.5830  1.9764
15556TIP3   OH268158   2.976   2.908   6.929  0.1451 -0.0805  0.2211
15556TIP3    H168159   2.885   2.929   6.947  0.3910  0.3877  0.9749
15556TIP3    H268160   2.980   2.898   6.834 -0.5384  0.6419  0.1098
15557TIP3   OH268161   1.251   3.470   3.063  0.0509  0.3567  0.0165
15557TIP3    H168162   1.213   3.553   3.093 -1.1673  0.0301 -0.5493
15557TIP3    H268163   1.265   3.420   3.144 -1.3186  0.2616  0.2262
15558TIP3   OH268164   3.256   2.962  11.315  0.2952  0.4058 -0.0022
15558TIP3    H168165   3.195   2.971  11.242  0.7204  0.9829 -0.3007
15558TIP3    H268166   3.228   3.029  11.377  0.7864  0.8662 -0.2665
15559TIP3   OH268167   3.633   0.529  35.649  0.3450 -0.1212  0.2942
15559TIP3    H168168   3.616   0.441  35.685  0.9705 -0.5229 -0.3664
15559TIP3    H268169   3.706   0.516  35.589  0.8558  0.9779  0.6630
15560TIP3   OH268170   2.396   0.133  12.398  0.1304 -0.5251 -0.7929
15560TIP3    H168171   2.446   0.201  12.443  1.0799 -1.6431 -0.1139
15560TIP3    H268172   2.394   0.161  12.306  1.4149 -0.1196 -0.7062
15561TIP3   OH268173   3.720   0.942  35.057  0.5195  0.1394  0.1854
15561TIP3    H168174   3.745   0.941  35.150  1.8978 -2.2345 -0.1312
15561TIP3    H268175   3.768   1.017  35.021 -1.9023  2.6275  1.7459
15562TIP3   OH268176   1.772   1.742   0.629 -0.1070  0.0052  0.0597
15562TIP3    H168177   1.863   1.754   0.655 -0.0932  0.3052 -0.1306
15562TIP3    H268178   1.770   1.764   0.536  0.1701 -2.5973 -0.6392
15563TIP3   OH268179   1.741   0.097   4.492  0.3405 -0.4031 -0.1434
15563TIP3    H168180   1.725   0.010   4.530 -1.2098  0.5474  1.5788
15563TIP3    H268181   1.666   0.149   4.522  1.4030  1.6149 -0.8554
15564TIP3   OH268182   1.008   2.961  27.467 -0.0398 -0.0732 -0.9299
15564TIP3    H168183   0.994   3.042  27.516 -0.0217  0.2650 -1.4859
15564TIP3    H268184   0.963   2.974  27.384 -0.2164 -0.7164 -0.9391
15565TIP3   OH268185   0.275   3.907  34.208  0.4178  0.0330  0.6355
15565TIP3    H168186   0.327   3.869  34.138  0.7475 -0.4168  1.1219
15565TIP3    H268187   0.184   3.889  34.183  0.5340 -0.1638  0.3509
15566TIP3   OH268188   2.516   3.688   1.793  0.0021 -0.0480  0.1052
15566TIP3    H168189   2.569   3.634   1.734 -1.4592 -0.8379 -0.5649
15566TIP3    H268190   2.504   3.634   1.871  1.1435  0.6162  0.7696
15567TIP3   OH268191   3.310   0.408   8.393 -0.3107  0.3323  0.0376
15567TIP3    H168192   3.297   0.327   8.343 -1.4487  0.8728 -0.6041
15567TIP3    H268193   3.404   0.420   8.397 -0.1569  0.4216 -2.3074
15568TIP3   OH268194   1.842   0.052   3.486 -0.4921  0.5148 -0.0361
15568TIP3    H168195   1.894  -0.023   3.458  1.5181  2.1214 -0.8582
15568TIP3    H268196   1.768   0.053   3.425 -0.8432 -1.0668  0.3212
15569TIP3   OH268197   0.946   2.537  10.623 -0.1770  0.1187  0.2557
15569TIP3    H168198   0.944   2.595  10.699  1.0857  2.8543 -1.6335
15569TIP3    H268199   1.037   2.509  10.616  0.2205  1.6244 -1.3493
15570TIP3   OH268200   0.741   1.587   8.769  0.4442  0.2117  0.0130
15570TIP3    H168201   0.678   1.521   8.798  0.5970  0.1692  0.2466
15570TIP3    H268202   0.827   1.549   8.786  0.5332  0.4572  0.1269
15571TIP3   OH268203   1.669   0.934  35.557  0.4809 -0.2638 -0.5381
15571TIP3    H168204   1.656   0.916  35.651 -0.6951 -0.6455 -0.7592
15571TIP3    H268205   1.602   0.999  35.536  1.3645  0.5336 -0.9113
15572TIP3   OH268206   3.029   3.261   2.343 -0.3998 -0.4887  0.3486
15572TIP3    H168207   3.034   3.173   2.306 -0.6808  0.1612 -1.3430
15572TIP3    H268208   3.120   3.292   2.342 -0.3920 -0.5123  0.2856
15573TIP3   OH268209   3.600   4.095  39.504 -0.1215  0.5429 -0.3553
15573TIP3    H168210   3.669   4.129  39.446  1.0182  0.7653  1.0767
15573TIP3    H268211   3.519   4.126  39.464  0.5978  0.5141 -1.9445
15574TIP3   OH268212   1.367   1.462  17.236  0.0648 -0.1893  0.4744
15574TIP3    H168213   1.343   1.399  17.168  0.5843 -0.5346  0.6061
15574TIP3    H268214   1.461   1.449  17.248  0.0899  0.3007  0.8226
15575TIP3   OH268215   4.368   2.626  32.204 -0.4832  0.0355 -0.2210
15575TIP3    H168216   4.423   2.654  32.130 -0.9176  0.7624 -0.2780
15575TIP3    H268217   4.394   2.683  32.276 -0.4223 -0.3318  0.0514
15576TIP3   OH268218   1.081   2.398  14.347  0.1145 -0.1012  0.3588
15576TIP3    H168219   1.030   2.427  14.422 -1.7008 -1.0667 -0.4378
15576TIP3    H268220   1.079   2.302  14.352  0.9250 -0.1681 -0.3163
15577TIP3   OH268221   3.444   0.004  12.868 -0.2303 -0.1300 -0.9020
15577TIP3    H168222   3.357  -0.036  12.865 -0.1655 -0.2227 -3.2342
15577TIP3    H268223   3.502  -0.066  12.897 -0.8188 -0.2798 -0.0682
15578TIP3   OH268224   2.970   0.524   2.894  0.4603  0.0102  0.1207
15578TIP3    H168225   2.978   0.613   2.859 -0.6220 -0.2516 -0.8491
15578TIP3    H268226   2.893   0.488   2.851  1.0636 -1.5189  0.2619
15579TIP3   OH268227   2.495   0.100  28.515 -0.3173 -0.4637 -0.5546
15579TIP3    H168228   2.575   0.070  28.472 -0.3477 -0.3094 -0.7180
15579TIP3    H268229   2.465   0.174  28.462 -1.0741 -1.1000 -1.0194
15580TIP3   OH268230   2.327   2.082  40.759  0.5132 -0.1496 -0.0829
15580TIP3    H168231   2.333   2.008  40.819  0.5126 -1.0543 -1.1665
15580TIP3    H268232   2.415   2.090  40.722  0.4084  0.1084 -0.2840
15581TIP3   OH268233   0.922   1.714   6.842 -0.2348 -0.0779  0.1857
15581TIP3    H168234   0.961   1.741   6.926  2.4161 -1.5779 -0.4670
15581TIP3    H268235   0.829   1.708   6.861  0.3295 -1.2373  3.3302
15582TIP3   OH268236   1.102   2.951  39.108  0.0883 -0.3409  0.1601
15582TIP3    H168237   1.012   2.955  39.140  1.3223  0.6714  4.1450
15582TIP3    H268238   1.144   2.886  39.164  1.9700 -0.4383 -1.2663
15583TIP3   OH268239   2.543   0.948   9.993  0.2864 -0.0075 -0.3285
15583TIP3    H168240   2.535   0.979  10.083 -0.3579 -0.8909 -0.0710
15583TIP3    H268241   2.636   0.960   9.972 -0.0052  2.5492 -0.4420
15584TIP3   OH268242   2.090   1.761  35.927  0.3248  0.1196 -0.2366
15584TIP3    H168243   2.168   1.795  35.972  0.5865 -0.3908 -0.2976
15584TIP3    H268244   2.094   1.801  35.840  1.6391 -1.4679 -0.9537
15585TIP3   OH268245   0.957   3.810   3.298  0.2398  0.1988 -0.2551
15585TIP3    H168246   0.958   3.778   3.389 -3.9494  1.9587  0.6641
15585TIP3    H268247   0.898   3.750   3.253 -0.4845  1.3539 -0.8745
15586TIP3   OH268248   0.891   4.183  13.646  0.3522  0.5098  0.0227
15586TIP3    H168249   0.849   4.115  13.698 -1.7536 -0.2578 -2.4895
15586TIP3    H268250   0.984   4.161  13.648 -0.0624 -1.3802  0.7480
15587TIP3   OH268251   2.952   4.271  32.390 -0.2266 -0.2657  0.1105
15587TIP3    H168252   2.978   4.199  32.332  0.1273 -0.6540  0.7367
15587TIP3    H268253   2.977   4.241  32.478 -3.4252 -0.9959  0.8957
15588TIP3   OH268254   2.958   2.257  27.083  0.6284  0.0471 -0.4231
15588TIP3    H168255   2.867   2.244  27.057 -0.1810 -1.4917  2.6693
15588TIP3    H268256   2.959   2.342  27.126  0.5337 -0.1245 -0.0767
15589TIP3   OH268257   2.547   4.145  31.678 -0.0470 -0.2007 -0.4812
15589TIP3    H168258   2.567   4.194  31.758 -1.1365 -2.2430  1.1748
15589TIP3    H268259   2.461   4.178  31.650  0.0477  0.0955 -0.4164
15590TIP3   OH268260   3.942   4.066  33.842  0.5830  0.8981 -0.2507
15590TIP3    H168261   3.972   4.044  33.754  1.6383  0.8961  0.0912
15590TIP3    H268262   3.873   4.131  33.829  0.0538  0.1799 -1.1150
15591TIP3   OH268263   0.752   3.052  11.037  0.0374  0.7339  0.5270
15591TIP3    H168264   0.826   3.051  10.977 -0.5777 -2.7395 -0.3521
15591TIP3    H268265   0.772   2.986  11.103 -1.5563  0.8898  1.2220
15592TIP3   OH268266   2.329   3.912  11.914 -0.0775  0.1452 -0.2058
15592TIP3    H168267   2.359   3.987  11.965  1.1164 -2.0534  2.6127
15592TIP3    H268268   2.395   3.901  11.846  0.6617  0.6460  0.4175
15593TIP3   OH268269   2.822   3.383  31.986  0.0546  0.1451 -0.7372
15593TIP3    H168270   2.780   3.329  31.919 -0.7480 -1.1386  0.7442
15593TIP3    H268271   2.905   3.409  31.946  2.0312 -4.7473 -0.5709
15594TIP3   OH268272   3.595   1.934   2.116 -0.3913  0.1848  0.1022
15594TIP3    H168273   3.543   1.957   2.193 -1.4216  0.5384 -0.6710
15594TIP3    H268274   3.608   1.840   2.122  0.7830  0.4116  1.4481
15595TIP3   OH268275   4.307   3.670   1.115  0.3788  0.2390 -0.1873
15595TIP3    H168276   4.345   3.599   1.063  1.0500  0.1366  0.4297
15595TIP3    H268277   4.217   3.679   1.082 -0.0419 -1.5535  0.4019
15596TIP3   OH268278   1.605   2.992  39.542 -0.0223  0.0525  0.2232
15596TIP3    H168279   1.533   2.948  39.498 -0.5420  1.5524 -0.4495
15596TIP3    H268280   1.655   3.033  39.472  0.5621  0.3870  0.8257
15597TIP3   OH268281   3.111   3.042  29.305  0.0338  0.0256  0.7234
15597TIP3    H168282   3.082   3.088  29.383  0.9998  0.2761  0.9440
15597TIP3    H268283   3.195   3.081  29.283 -0.1726 -0.1160 -0.3862
15598TIP3   OH268284   1.745   1.040  31.470  0.2942  0.6445 -0.4083
15598TIP3    H168285   1.797   1.112  31.505  0.8105  0.0246  0.1223
15598TIP3    H268286   1.808   0.987  31.421  0.0802  0.1141 -0.1155
15599TIP3   OH268287   0.858   0.386  33.014 -0.0359 -0.0205  0.7220
15599TIP3    H168288   0.900   0.305  32.985 -0.6529 -0.6552  1.5764
15599TIP3    H268289   0.798   0.359  33.083 -2.4101  0.7217 -0.8936
15600TIP3   OH268290   1.142   1.453   8.016  0.3130 -0.1321  0.2630
15600TIP3    H168291   1.085   1.419   8.086  0.6715  0.8077  1.0429
15600TIP3    H268292   1.145   1.547   8.033  1.0371  0.0018 -0.5754
15601TIP3   OH268293   3.540   2.392   8.139  0.6981  0.3435  0.4564
15601TIP3    H168294   3.532   2.299   8.158 -1.2022  0.1071 -1.1149
15601TIP3    H268295   3.634   2.408   8.134  1.0501 -1.6407  0.0767
15602TIP3   OH268296   4.045   3.844  12.180 -0.3540 -0.0565 -0.2165
15602TIP3    H168297   4.019   3.928  12.218  0.3331  0.3104 -0.5487
15602TIP3    H268298   4.128   3.823  12.223  1.0296  0.9101 -2.2542
15603TIP3   OH268299   3.721   0.878   9.530  0.0067  0.0410  0.3008
15603TIP3    H168300   3.629   0.865   9.552 -0.0391 -0.6644 -0.2962
15603TIP3    H268301   3.749   0.949   9.588 -1.3000  1.3079 -0.5365
15604TIP3   OH268302   0.069   0.231  27.112 -0.5064  0.7728  0.8629
15604TIP3    H168303   0.113   0.314  27.096  0.8577 -0.2955 -1.4382
15604TIP3    H268304   0.111   0.196  27.191 -1.2625  2.2871  2.0019
15605TIP3   OH268305   3.209   4.309  28.552  0.1550 -0.8233  0.4891
15605TIP3    H168306   3.238   4.399  28.537 -1.2988 -0.5671 -1.1292
15605TIP3    H268307   3.261   4.279  28.626  2.2316  0.6213 -0.2894
15606TIP3   OH268308   1.400   1.517   2.904  0.1370  0.2700 -0.0377
15606TIP3    H168309   1.332   1.484   2.963 -1.1469  1.3883 -0.8580
15606TIP3    H268310   1.476   1.531   2.962 -1.1951  1.6977  1.4588
15607TIP3   OH268311   0.573   0.681  37.221 -0.3023  0.1370  0.0836
15607TIP3    H168312   0.630   0.649  37.291 -0.3205  1.2841  0.6361
15607TIP3    H268313   0.528   0.756  37.259 -1.8992 -0.4901 -0.4666
15608TIP3   OH268314   2.764   2.953   1.768  0.3902 -0.5861  0.2580
15608TIP3    H168315   2.674   2.979   1.788 -0.2356 -0.8430 -1.9342
15608TIP3    H268316   2.778   2.875   1.821 -0.1270  0.2909  1.7531
15609TIP3   OH268317   1.579   3.882  38.813  0.3819  0.0519  0.0911
15609TIP3    H168318   1.536   3.963  38.784  1.0393  0.1384 -0.6820
15609TIP3    H268319   1.540   3.863  38.898  0.8844  1.7104  0.7293
15610TIP3   OH268320   0.974   2.447  11.663  0.1171 -0.1091 -0.2888
15610TIP3    H168321   1.066   2.471  11.652  0.5337 -0.8704  1.2105
15610TIP3    H268322   0.931   2.530  11.685  0.5311  0.1768 -0.5427
15611TIP3   OH268323   4.306   3.821  26.490 -0.3128  0.1240  0.1776
15611TIP3    H168324   4.280   3.899  26.441 -1.4223  1.1566  2.2764
15611TIP3    H268325   4.223   3.778  26.512  0.0805  0.1906  1.8796
15612TIP3   OH268326   2.215   1.106  32.715 -0.1116  0.0840  0.0429
15612TIP3    H168327   2.184   1.103  32.805  0.2736 -1.7549  0.1499
15612TIP3    H268328   2.140   1.079  32.663 -0.4677  1.5680 -0.2636
15613TIP3   OH268329   0.366   1.781  36.997 -0.5069  0.7611  0.3912
15613TIP3    H168330   0.440   1.810  37.051 -0.0608  0.7209 -0.1905
15613TIP3    H268331   0.345   1.694  37.030 -0.7800  1.0750  1.0511
15614TIP3   OH268332   2.885   2.305  33.162  0.2340  0.2647  0.0626
15614TIP3    H168333   2.949   2.235  33.177 -1.0050 -0.9409 -0.1745
15614TIP3    H268334   2.803   2.271  33.198 -0.7894  0.8894 -1.5746
15615TIP3   OH268335   2.578   1.323  40.813  0.3038  0.3341 -0.2104
15615TIP3    H168336   2.589   1.234  40.846 -1.3354 -0.7090 -2.2198
15615TIP3    H268337   2.487   1.326  40.783  0.5704  2.4170 -0.9693
15616TIP3   OH268338   0.437   2.134   2.076 -0.1349  0.5746  0.4568
15616TIP3    H168339   0.420   2.182   1.995 -0.3933  0.1226  0.2420
15616TIP3    H268340   0.530   2.110   2.071 -1.0606 -3.2732 -1.8127
15617TIP3   OH268341   1.249   3.978   6.736 -0.3502  0.6984  0.1255
15617TIP3    H168342   1.264   4.056   6.682 -0.8216 -0.3836 -1.6571
15617TIP3    H268343   1.238   4.012   6.825 -0.9338  2.7092 -0.6609
15618TIP3   OH268344   2.163   4.120  36.616 -0.1633 -0.0196 -0.1409
15618TIP3    H168345   2.231   4.175  36.577  1.5891 -1.7449  0.2846
15618TIP3    H268346   2.134   4.169  36.693 -0.9538  1.6973 -1.4703
15619TIP3   OH268347   2.369   3.396  36.855  0.7643  0.6494  0.2230
15619TIP3    H168348   2.327   3.477  36.828  0.8923  0.1887 -1.5307
15619TIP3    H268349   2.299   3.343  36.893 -0.0347  0.4182 -1.4443
15620TIP3   OH268350   0.416   2.235  26.396 -0.3366 -0.1690 -0.0749
15620TIP3    H168351   0.398   2.142  26.381 -0.7707 -0.0039 -0.6211
15620TIP3    H268352   0.402   2.247  26.490  0.1848 -0.7513  0.0841
15621TIP3   OH268353   2.205   2.701  13.760  0.7907  0.2877  0.4788
15621TIP3    H168354   2.225   2.630  13.822  2.4122  0.6522  0.4331
15621TIP3    H268355   2.291   2.732  13.731  0.0722  0.1737 -1.9368
15622TIP3   OH268356   0.136   3.664  39.929 -0.1249 -0.0185 -0.0648
15622TIP3    H168357   0.109   3.755  39.921 -0.9588  0.1905  3.4664
15622TIP3    H268358   0.223   3.668  39.969  0.2393 -0.7909 -0.7522
15623TIP3   OH268359   2.152   2.824   6.318 -0.3201 -0.4734  0.0618
15623TIP3    H168360   2.209   2.780   6.381 -0.0448  0.0507  0.1853
15623TIP3    H268361   2.132   2.908   6.359 -0.0861 -0.1030 -0.5803
15624TIP3   OH268362   0.450   0.285   9.500  0.1760  0.2428 -0.1337
15624TIP3    H168363   0.535   0.247   9.522  0.6468  0.3459 -1.6466
15624TIP3    H268364   0.425   0.334   9.578  2.8813  2.5904 -0.5330
15625TIP3   OH268365   2.579   4.041  10.461  0.4527  0.3797 -0.4116
15625TIP3    H168366   2.649   4.080  10.409 -0.1797  1.1413 -0.7075
15625TIP3    H268367   2.526   3.993  10.397  0.9483 -0.5771 -0.1211
15626TIP3   OH268368   1.810   4.377  36.075 -0.5799  0.2963 -0.4781
15626TIP3    H168369   1.881   4.356  36.136 -1.4914  3.3736  1.9166
15626TIP3    H268370   1.843   4.350  35.990  0.5269 -4.9545  1.2287
15627TIP3   OH268371   0.319   1.312  39.217 -0.1235  0.4851 -0.5641
15627TIP3    H168372   0.249   1.247  39.214  0.4299 -0.3090  1.5885
15627TIP3    H268373   0.378   1.287  39.147  0.9517 -2.5074  1.2332
15628TIP3   OH268374   0.233   0.723  33.344 -0.4851  0.2868  0.3198
15628TIP3    H168375   0.210   0.686  33.429  0.2150 -0.9530 -0.0166
15628TIP3    H268376   0.177   0.800  33.336  0.4844  1.3311  2.5622
15629TIP3   OH268377   4.285   3.093   5.172 -0.8714  0.6967 -0.6117
15629TIP3    H168378   4.231   3.018   5.149 -0.3949  0.4646 -0.9697
15629TIP3    H268379   4.242   3.168   5.130 -1.0733  0.5553 -0.6560
15630TIP3   OH268380   1.996   2.005  37.134 -0.0467  0.2555  0.1294
15630TIP3    H168381   1.918   1.986  37.082  1.3588  0.8300 -2.3277
15630TIP3    H268382   2.032   1.919  37.157  0.2037 -0.0465 -1.3259
15631TIP3   OH268383   1.193   3.623  33.277 -0.0780 -0.3871 -0.3397
15631TIP3    H168384   1.245   3.625  33.197 -0.9889  0.3180 -0.9358
15631TIP3    H268385   1.105   3.597  33.247 -1.2357  2.7970 -0.0969
15632TIP3   OH268386   3.653   1.412  28.848 -0.5344 -0.5723  0.2103
15632TIP3    H168387   3.741   1.393  28.817  0.0687  2.3257 -0.1223
15632TIP3    H268388   3.598   1.410  28.770 -0.4981 -0.8683  0.1890
15633TIP3   OH268389   0.912   0.533  27.726 -0.7834 -0.4418  0.8732
15633TIP3    H168390   0.916   0.445  27.689  1.0168 -0.2081  0.4472
15633TIP3    H268391   0.911   0.591  27.650  1.4180 -0.0105  1.1202
15634TIP3   OH268392   1.698   0.535  37.081 -0.6377  0.0434 -0.9973
15634TIP3    H168393   1.789   0.522  37.105 -1.0940 -0.4984  0.5875
15634TIP3    H268394   1.695   0.622  37.042  0.6215 -0.1250 -1.5145
15635TIP3   OH268395   1.587   1.936  31.406  0.0995 -0.3070 -0.2414
15635TIP3    H168396   1.664   1.879  31.410  0.4361  0.1713  0.3234
15635TIP3    H268397   1.617   2.019  31.443 -0.1246  0.5584 -1.9256
15636TIP3   OH268398   3.865   0.995   8.643 -0.1819 -0.5119  0.0778
15636TIP3    H168399   3.796   0.937   8.612 -0.4820 -0.0690 -0.0882
15636TIP3    H268400   3.916   1.017   8.565  0.8499 -1.7383  0.3661
15637TIP3   OH268401   4.251   3.778  36.582  0.4116  0.2997 -0.3790
15637TIP3    H168402   4.261   3.688  36.613  1.4341  0.7497  0.6646
15637TIP3    H268403   4.315   3.828  36.631  0.4430  1.4764 -1.5476
15638TIP3   OH268404   0.696   0.981   7.011  0.4494  0.4069  0.3025
15638TIP3    H168405   0.753   0.921   7.059  1.5523  1.8394  0.8751
15638TIP3    H268406   0.711   0.961   6.919 -0.1033 -0.9645  0.4909
15639TIP3   OH268407   4.332   0.980  30.368 -0.3004 -0.6000 -0.1947
15639TIP3    H168408   4.364   1.036  30.298 -0.3109 -0.9856 -0.5146
15639TIP3    H268409   4.240   1.002  30.378 -0.0690  0.1571  0.3836
15640TIP3   OH268410   4.370   2.261  21.811  0.1622  0.1545  0.1996
15640TIP3    H168411   4.395   2.223  21.896  0.2813 -1.0929 -0.3630
15640TIP3    H268412   4.442   2.319  21.789  0.6380 -0.3122  0.4888
15641TIP3   OH268413   1.860   2.184  30.017  0.1591  0.4954 -0.0926
15641TIP3    H168414   1.855   2.137  30.100 -1.7107  1.2184  0.2424
15641TIP3    H268415   1.887   2.117  29.954  0.7126 -0.2623  0.9117
15642TIP3   OH268416   0.891   1.358   8.146 -0.2879 -0.1703 -0.0403
15642TIP3    H168417   0.920   1.323   8.230  2.7559  0.0711 -0.8693
15642TIP3    H268418   0.863   1.281   8.096  0.6411 -0.6838  0.2136
15643TIP3   OH268419   1.962   3.877   7.474 -0.1699  0.3958  0.6301
15643TIP3    H168420   1.983   3.798   7.424  0.3687 -0.2863  1.8766
15643TIP3    H268421   1.927   3.938   7.409 -1.2352 -1.0932 -0.2541
15644TIP3   OH268422   4.353   1.750  31.914 -0.3447 -0.1241  0.4027
15644TIP3    H168423   4.349   1.774  31.821  0.3061 -0.9234  0.1567
15644TIP3    H268424   4.441   1.776  31.941 -0.5220  0.0775  0.7917
15645TIP3   OH268425   1.107   2.856   6.814  0.9408  0.2710 -0.2114
15645TIP3    H168426   1.172   2.786   6.819  0.6179 -0.1840 -1.8222
15645TIP3    H268427   1.033   2.823   6.866  0.6858 -0.7265 -1.1674
15646TIP3   OH268428   1.761   1.931  35.765 -0.7695 -0.0149  0.4206
15646TIP3    H168429   1.739   1.879  35.842 -1.5738 -0.6134 -0.2009
15646TIP3    H268430   1.795   1.868  35.702 -0.7020  0.3779  0.0591
15647TIP3   OH268431   2.748   3.043  11.701  0.3122 -0.1490 -0.2599
15647TIP3    H168432   2.757   3.064  11.608 -0.1496  0.4296 -0.1815
15647TIP3    H268433   2.707   3.121  11.739  0.7085 -0.2895  0.4688
15648TIP3   OH268434   3.082   2.600  11.604 -0.2645 -0.1302 -0.5239
15648TIP3    H168435   3.133   2.677  11.577  2.2097 -1.4099  0.1193
15648TIP3    H268436   3.074   2.609  11.699 -0.9243 -0.1309 -0.5766
15649TIP3   OH268437   1.548   3.125   8.605 -0.3315 -0.4025 -0.1785
15649TIP3    H168438   1.474   3.155   8.658 -0.2841 -0.4486 -0.0870
15649TIP3    H268439   1.616   3.103   8.668 -1.0273 -2.5777 -0.0981
15650TIP3   OH268440   2.749   2.522   5.715 -0.0975  0.2862  0.5657
15650TIP3    H168441   2.732   2.452   5.651  0.3248 -1.2485  2.0534
15650TIP3    H268442   2.825   2.568   5.679  0.5534 -0.9697  0.2618
15651TIP3   OH268443   1.491   3.489  18.633 -0.3072 -0.1422 -0.4414
15651TIP3    H168444   1.432   3.564  18.635 -0.5401 -0.2037 -2.4782
15651TIP3    H268445   1.433   3.413  18.643 -0.2543 -0.1063  0.1400
15652TIP3   OH268446   1.560   3.600  38.243 -0.0292  0.5743 -0.3552
15652TIP3    H168447   1.601   3.579  38.327 -0.6107  2.6760  0.5393
15652TIP3    H268448   1.491   3.534  38.233  1.6281 -1.2412 -0.4793
15653TIP3   OH268449   1.587   2.986  12.382 -0.1646  0.0857 -0.4167
15653TIP3    H168450   1.554   3.046  12.448 -0.2939 -0.0095 -0.3948
15653TIP3    H268451   1.680   2.977  12.403 -0.3202 -0.3768  0.0950
15654TIP3   OH268452   1.581   0.654  31.520  0.5144 -0.2948 -0.2496
15654TIP3    H168453   1.528   0.590  31.569  0.5845 -0.3555 -0.2533
15654TIP3    H268454   1.641   0.690  31.586 -0.6208  0.9732  0.1508
15655TIP3   OH268455   3.298   0.967  40.702  0.3029 -0.1180 -0.0342
15655TIP3    H168456   3.218   0.989  40.653  0.9898 -0.5303 -1.3977
15655TIP3    H268457   3.270   0.899  40.764 -0.3440 -0.4671 -0.6909
15656TIP3   OH268458   3.565   0.416  27.111  0.4934 -0.2444 -0.0592
15656TIP3    H168459   3.641   0.456  27.071  0.0546 -1.5696 -2.3639
15656TIP3    H268460   3.563   0.327  27.078 -0.6110 -1.0798  2.0256
15657TIP3   OH268461   1.919   2.150  27.508  0.3544  0.1940 -0.0613
15657TIP3    H168462   1.936   2.097  27.586 -1.2853 -1.9177 -1.0486
15657TIP3    H268463   1.990   2.128  27.448  0.3641  0.0775 -0.0081
15658TIP3   OH268464   1.277   0.089  15.602 -0.2794  0.2395  0.3132
15658TIP3    H168465   1.268   0.072  15.508 -0.1115  2.5673 -0.2008
15658TIP3    H268466   1.278   0.003  15.642 -0.7270 -0.8178 -1.7885
15659TIP3   OH268467   0.536   3.076   8.155  0.4089 -0.1088  0.0459
15659TIP3    H168468   0.469   3.083   8.087 -1.4930 -0.2796  1.8194
15659TIP3    H268469   0.544   2.982   8.171  0.3264 -0.0346  0.5420
15660TIP3   OH268470   2.587   1.550  11.901 -0.9334 -0.3358 -0.2712
15660TIP3    H168471   2.582   1.645  11.904 -1.1664 -0.3629  1.2435
15660TIP3    H268472   2.678   1.531  11.878 -0.2632  0.2828  1.6692
15661TIP3   OH268473   1.742   3.966   4.466 -0.0620 -0.1340  0.0934
15661TIP3    H168474   1.804   3.940   4.397  1.0500  1.4160  0.4576
15661TIP3    H268475   1.669   4.006   4.418  0.2239 -0.0054 -0.2461
15662TIP3   OH268476   0.840   2.885   4.930 -0.1393 -0.1537  0.0577
15662TIP3    H168477   0.750   2.854   4.937 -0.8633  2.0832  2.1928
15662TIP3    H268478   0.884   2.847   5.006  0.3085  0.0011 -0.1227
15663TIP3   OH268479   2.554   2.270  29.092  0.4682 -0.8311 -0.2622
15663TIP3    H168480   2.497   2.223  29.153  1.8640 -0.5917  1.3308
15663TIP3    H268481   2.606   2.201  29.050  1.0494 -0.8952  0.5187
15664TIP3   OH268482   2.259   2.271   6.611  0.7127  0.5633  0.3002
15664TIP3    H168483   2.308   2.352   6.629  1.1182  0.7531 -1.4778
15664TIP3    H268484   2.277   2.252   6.519 -0.8517 -0.5583  0.1850
15665TIP3   OH268485   3.262   0.741   6.635 -0.4285  0.4480  0.5722
15665TIP3    H168486   3.187   0.738   6.576 -0.6100  0.5058  0.8002
15665TIP3    H268487   3.268   0.652   6.671  0.8609 -0.1706 -0.9891
15666TIP3   OH268488   4.381   3.902   0.346 -0.1338 -0.3645  0.1678
15666TIP3    H168489   4.436   3.969   0.306 -0.7839  0.3051  0.3623
15666TIP3    H268490   4.323   3.874   0.275 -0.4006 -0.1293  0.2887
15667TIP3   OH268491   1.826   3.603  39.438 -0.4104 -0.2455 -0.1295
15667TIP3    H168492   1.746   3.654  39.424  0.0612  0.7203  0.6332
15667TIP3    H268493   1.850   3.573  39.350 -0.4812  1.1874 -0.6721
15668TIP3   OH268494   1.443   3.597  36.553 -0.2865  0.3245  0.5102
15668TIP3    H168495   1.505   3.570  36.620  0.0317  0.2339  0.1819
15668TIP3    H268496   1.380   3.525  36.548 -0.3079  0.3306  0.7079
15669TIP3   OH268497   3.862   3.965   2.497 -0.7268 -0.3190  0.1419
15669TIP3    H168498   3.834   3.922   2.416 -0.9287 -0.2946  0.1985
15669TIP3    H268499   3.956   3.948   2.502 -0.4412  0.8206 -0.7977
15670TIP3   OH268500   3.050   1.850   1.648 -0.2102  0.0248  0.6249
15670TIP3    H168501   3.054   1.937   1.689 -0.0836  0.4874 -0.3573
15670TIP3    H268502   3.140   1.819   1.649 -0.4296 -0.7031  2.2013
15671TIP3   OH268503   2.079   2.927   0.748 -0.2128  0.1588  0.0213
15671TIP3    H168504   2.105   2.862   0.813 -0.0732  0.9627  0.7867
15671TIP3    H268505   1.998   2.966   0.783  1.1842  2.3766  1.0558
15672TIP3   OH268506   0.835   1.188  27.359 -0.0769  0.4613 -0.1350
15672TIP3    H168507   0.918   1.168  27.403 -0.2636 -0.8526 -0.3611
15672TIP3    H268508   0.795   1.254  27.415  0.3752 -0.0930  0.8793
15673TIP3   OH268509   4.336   3.939   5.166 -0.2097 -0.1044  0.4641
15673TIP3    H168510   4.305   4.029   5.155 -1.7029 -0.5783  0.5182
15673TIP3    H268511   4.264   3.894   5.212  0.1936 -1.4799 -0.1691
15674TIP3   OH268512   3.497   0.300  11.964 -0.2830 -0.1065 -0.3844
15674TIP3    H168513   3.498   0.392  11.936 -1.4352  0.0146 -0.0631
15674TIP3    H268514   3.510   0.251  11.883 -1.1286  0.3079 -0.7865
15675TIP3   OH268515   0.312   3.897   0.610  0.3168  0.6220  0.1650
15675TIP3    H168516   0.262   3.940   0.541  0.3352  0.9160  0.3358
15675TIP3    H268517   0.375   3.842   0.563 -0.1448  0.2707 -0.0519
15676TIP3   OH268518   1.179   1.310  35.250 -0.3536  0.1129 -0.2342
15676TIP3    H168519   1.169   1.278  35.161 -0.0978 -0.8818  0.0822
15676TIP3    H268520   1.224   1.240  35.296 -1.5224  0.1117  0.9630
15677TIP3   OH268521   0.686   0.863  21.210 -0.3091  0.0802 -0.1201
15677TIP3    H168522   0.730   0.781  21.189 -2.2158 -0.7386 -1.2060
15677TIP3    H268523   0.714   0.924  21.142  0.0515 -0.0700 -0.1099
15678TIP3   OH268524   2.303   3.111  34.125 -0.3528 -0.1030 -0.4544
15678TIP3    H168525   2.294   3.131  34.032 -1.3450 -2.6217 -0.9726
15678TIP3    H268526   2.394   3.134  34.145  0.6964 -1.8116 -2.7216
15679TIP3   OH268527   0.725   3.848  12.610  0.3240  0.0598 -0.1778
15679TIP3    H168528   0.717   3.943  12.622 -1.6826 -0.1811  0.9067
15679TIP3    H268529   0.809   3.826  12.649 -0.3321  1.0973  2.0469
15680TIP3   OH268530   4.238   1.239   3.671 -0.0424  0.2758  0.7114
15680TIP3    H168531   4.147   1.225   3.646 -0.1350 -0.9839  1.6611
15680TIP3    H268532   4.288   1.184   3.611  0.1383  1.1883  0.0003
15681TIP3   OH268533   2.930   2.236  10.797  0.0716 -0.5442  0.2089
15681TIP3    H168534   2.896   2.324  10.779  2.0045  0.5058  1.2769
15681TIP3    H268535   2.856   2.189  10.836 -0.8711  0.7681  0.0679
15682TIP3   OH268536   0.768   0.827  37.822 -0.3666  0.4936  0.2776
15682TIP3    H168537   0.762   0.760  37.890 -0.7899  0.2968  0.0475
15682TIP3    H268538   0.677   0.842  37.795 -0.1503  0.1481 -0.6606
15683TIP3   OH268539   2.698   0.106  12.595 -0.1932  0.0458  0.2759
15683TIP3    H168540   2.652   0.184  12.564  1.4943  0.8935 -0.2100
15683TIP3    H268541   2.682   0.104  12.689  0.4399  1.4866  0.4342
15684TIP3   OH268542   0.010   0.796   9.127  0.2835 -0.3056  0.0257
15684TIP3    H168543   0.067   0.854   9.078 -0.7801 -0.7832 -1.8757
15684TIP3    H268544  -0.060   0.773   9.066  0.4778 -3.3284  0.7442
15685TIP3   OH268545   3.175   2.606   1.040  0.3289 -0.3039 -0.1008
15685TIP3    H168546   3.166   2.668   0.969 -1.2047  0.1195  0.4189
15685TIP3    H268547   3.246   2.641   1.094  1.1727 -0.3734 -1.1367
15686TIP3   OH268548   2.692   3.639  39.579  0.6549  0.1344 -0.0726
15686TIP3    H168549   2.656   3.676  39.660 -1.7092 -0.7502 -0.6131
15686TIP3    H268550   2.637   3.562  39.562  0.6372  0.6393 -2.8224
15687TIP3   OH268551   0.796   3.259   5.553 -0.4522 -0.2213 -0.1867
15687TIP3    H168552   0.739   3.246   5.629  1.2794  0.5343  1.3124
15687TIP3    H268553   0.884   3.267   5.590  0.3904  0.6294 -2.2372
15688TIP3   OH268554   2.319   0.819  30.419 -0.4665  0.3606  0.2922
15688TIP3    H168555   2.276   0.904  30.418 -1.7005 -0.2292 -1.0811
15688TIP3    H268556   2.292   0.777  30.337  1.9733 -0.4611 -0.1737
15689TIP3   OH268557   0.299   1.610  20.813  0.5636  0.0724  0.1576
15689TIP3    H168558   0.342   1.636  20.732  0.4976  1.6966  0.6195
15689TIP3    H268559   0.371   1.586  20.872  0.6933  0.2766  0.0820
15690TIP3   OH268560   2.115   0.067  36.335  0.2876  0.8209 -0.7901
15690TIP3    H168561   2.208   0.077  36.313  0.7652  1.2512  1.2137
15690TIP3    H268562   2.079   0.014  36.264  1.2949  3.3427 -3.3798
15691TIP3   OH268563   3.956   3.644  10.542 -0.5367 -0.4970  0.5864
15691TIP3    H168564   3.895   3.687  10.481 -0.8545 -0.7426  0.7268
15691TIP3    H268565   3.904   3.630  10.621 -0.3701 -0.9366  0.6196
15692TIP3   OH268566   3.950   3.256  38.557  0.2105  0.2463  0.1426
15692TIP3    H168567   3.875   3.244  38.499 -0.8331 -0.7762  1.6459
15692TIP3    H268568   4.026   3.229  38.504 -0.5909  0.2516 -1.0399
15693TIP3   OH268569   3.255   0.348   3.444 -0.9773 -0.3989 -0.2965
15693TIP3    H168570   3.255   0.276   3.507  0.4667 -1.0650 -1.0009
15693TIP3    H268571   3.329   0.403   3.471 -1.6829  0.5115 -0.1397
15694TIP3   OH268572   0.650   0.612  29.543 -0.4837  0.7395  0.3961
15694TIP3    H168573   0.707   0.577  29.474  1.9278  0.7818  2.2284
15694TIP3    H268574   0.671   0.705  29.548 -3.0057  1.4855 -0.8596
15695TIP3   OH268575   2.732   3.153   9.147 -0.1596  0.2395 -0.4323
15695TIP3    H168576   2.705   3.226   9.204 -2.2849 -0.2800 -0.6741
15695TIP3    H268577   2.794   3.103   9.200  1.2048  2.0802 -0.1885
15696TIP3   OH268578   3.457   1.501  33.183 -0.0512  0.2574  0.2719
15696TIP3    H168579   3.515   1.434  33.147 -0.6283 -1.1058  1.7540
15696TIP3    H268580   3.512   1.551  33.243  0.1204  0.4475 -0.0378
15697TIP3   OH268581   4.050   0.742  11.042 -0.6281  0.1720 -0.2272
15697TIP3    H168582   4.069   0.775  11.130 -0.9492  0.8966 -0.4240
15697TIP3    H268583   4.051   0.647  11.052  0.1434  0.2312  0.3917
15698TIP3   OH268584   1.665   0.039  39.126 -0.0070 -0.0380  0.0520
15698TIP3    H168585   1.738  -0.019  39.148  0.4635 -0.3966 -2.1740
15698TIP3    H268586   1.677   0.115  39.182  1.8584 -0.2730  0.0466
15699TIP3   OH268587   2.780   2.419   0.079  0.2431  0.0567 -0.1405
15699TIP3    H168588   2.728   2.374   0.146 -1.1525  0.1131 -1.1474
15699TIP3    H268589   2.871   2.396   0.101 -0.3279 -2.4077  0.0205
15700TIP3   OH268590   0.264   1.956  41.288  0.0415  0.1812 -0.1381
15700TIP3    H168591   0.183   2.004  41.304 -0.4526 -0.3977 -0.8156
15700TIP3    H268592   0.317   1.970  41.366 -0.2375  1.5289 -0.1764
15701TIP3   OH268593   0.062   0.562  12.777 -0.3241  0.0322 -0.3031
15701TIP3    H168594  -0.016   0.611  12.804 -1.1235 -0.8844 -0.8945
15701TIP3    H268595   0.072   0.582  12.684  0.8295  1.0378  0.0149
15702TIP3   OH268596   3.433   0.419  12.387 -0.0831  0.5391 -0.3451
15702TIP3    H168597   3.354   0.374  12.418 -0.8083  2.0132  0.0652
15702TIP3    H268598   3.437   0.499  12.440  0.4462  1.5592 -1.8613
15703TIP3   OH268599   3.572   3.543  12.500 -0.3542  0.2645  0.3428
15703TIP3    H168600   3.512   3.480  12.541 -0.1718  1.0430  1.8930
15703TIP3    H268601   3.659   3.512  12.524 -0.2289  0.4384  0.1057
15704TIP3   OH268602   1.266   4.336   5.222  0.1049 -0.5825  0.3555
15704TIP3    H168603   1.193   4.276   5.208 -1.0931  0.9550 -0.2567
15704TIP3    H268604   1.293   4.363   5.134  1.2257 -0.8757  0.5854
15705TIP3   OH268605   1.074   2.937  40.471  0.4579  0.3205  0.1410
15705TIP3    H168606   1.081   2.978  40.557  1.5105 -0.0905  0.2649
15705TIP3    H268607   0.982   2.912  40.463  0.3874  0.2099  1.2101
15706TIP3   OH268608   4.227   4.321   1.848  0.6188  0.2433  0.0611
15706TIP3    H168609   4.185   4.235   1.846  1.1989 -0.0938  1.3025
15706TIP3    H268610   4.321   4.301   1.852  0.7476  0.9315  0.4997
15707TIP3   OH268611   0.971   2.374  16.377 -0.0816 -0.7485 -0.1808
15707TIP3    H168612   1.021   2.407  16.452 -2.5685  0.4950  1.0616
15707TIP3    H268613   0.937   2.289  16.406 -0.0216 -0.8488 -0.4017
15708TIP3   OH268614   3.690   2.594  33.533 -0.0258 -0.2726 -0.1129
15708TIP3    H168615   3.734   2.675  33.508 -0.1929 -0.5284 -1.3286
15708TIP3    H268616   3.610   2.623  33.577  1.4845  0.1944  2.5071
15709TIP3   OH268617   1.805   0.056   9.554 -0.4665 -0.3172 -0.1763
15709TIP3    H168618   1.866   0.075   9.483 -0.4388 -0.2805 -0.1428
15709TIP3    H268619   1.831  -0.030   9.586  1.1526  0.7100  1.4701
15710TIP3   OH268620   2.375   2.476  27.254  0.3424  0.2303  0.0453
15710TIP3    H168621   2.435   2.406  27.280  0.4084  0.7013  1.1814
15710TIP3    H268622   2.328   2.499  27.333  1.2463  2.3827  0.0370
15711TIP3   OH268623   0.401   2.420   2.837 -0.1321  0.3247  0.3388
15711TIP3    H168624   0.343   2.444   2.765 -0.2541  0.3146  0.4330
15711TIP3    H268625   0.486   2.406   2.796 -0.2982 -0.1146  0.1350
15712TIP3   OH268626   4.234   1.873  32.937  0.0490  0.2477  0.0633
15712TIP3    H168627   4.217   1.801  32.877 -2.4541  1.3376 -0.6707
15712TIP3    H268628   4.267   1.831  33.017 -0.1695 -1.5772 -0.7524
15713TIP3   OH268629   1.512   0.206  35.779 -0.0328  0.2452  0.1853
15713TIP3    H168630   1.433   0.216  35.832 -0.1750  1.0143 -0.1609
15713TIP3    H268631   1.497   0.126  35.729 -0.4142  0.1621  0.4276
15714TIP3   OH268632   1.021   4.084   4.924 -0.1769  0.4481  1.0159
15714TIP3    H168633   0.975   4.134   4.856  1.4502  0.3116 -0.2426
15714TIP3    H268634   0.956   4.019   4.953 -1.1973  1.0738  0.2301
15715TIP3   OH268635   2.732   0.812   0.214 -0.0998  0.2257 -0.4093
15715TIP3    H168636   2.771   0.822   0.301  1.0772 -0.8832 -0.7749
15715TIP3    H268637   2.641   0.842   0.225 -0.2247 -0.6737  1.4166
15716TIP3   OH268638   3.038   1.709  40.739  0.6201  0.5237 -0.4624
15716TIP3    H168639   2.984   1.748  40.808 -0.3342  0.5763 -1.2198
15716TIP3    H268640   2.985   1.638  40.704  1.7185 -0.4869 -0.1499
15717TIP3   OH268641   4.012   1.401  12.521 -0.1669 -0.5493 -0.2396
15717TIP3    H168642   3.971   1.323  12.557 -0.6380  0.3872  1.3308
15717TIP3    H268643   3.981   1.404  12.430 -1.3506 -1.3774  0.1074
15718TIP3   OH268644   1.988   0.565  34.355  0.2500  0.1228  0.1218
15718TIP3    H168645   2.072   0.539  34.317 -0.1591  0.6713 -1.2118
15718TIP3    H268646   1.930   0.574  34.280 -1.1004 -0.5479  1.0406
15719TIP3   OH268647   4.281   2.424  12.320  0.0088  0.6270  0.1430
15719TIP3    H168648   4.328   2.500  12.286  0.0832 -0.1887 -1.6836
15719TIP3    H268649   4.252   2.451  12.408  2.1373  1.8472  0.5352
15720TIP3   OH268650   1.693   3.178   7.616 -0.4065 -0.4261 -0.3807
15720TIP3    H168651   1.641   3.245   7.571  0.6648 -0.1690 -1.2566
15720TIP3    H268652   1.780   3.217   7.624 -0.1933 -1.0708  0.5914
15721TIP3   OH268653   4.090   0.601  40.741  0.1258 -0.4190  0.2724
15721TIP3    H168654   4.128   0.596  40.828 -1.2348 -1.7028  0.8403
15721TIP3    H268655   3.997   0.582  40.754 -0.2104 -0.1090 -1.3945
15722TIP3   OH268656   3.335   0.223  39.513 -0.0920  0.3258  0.2473
15722TIP3    H168657   3.318   0.317  39.514 -3.2777 -0.1026 -1.2640
15722TIP3    H268658   3.337   0.198  39.605  0.9037  1.8593  0.6728
15723TIP3   OH268659   1.385   4.077  32.490  0.2440 -0.2078  0.0450
15723TIP3    H168660   1.433   4.113  32.415  3.1217 -0.4689  1.6170
15723TIP3    H268661   1.443   4.092  32.565 -1.6686 -1.6563  1.9351
15724TIP3   OH268662   2.261   4.255  12.245 -0.4060  0.7087 -0.7307
15724TIP3    H168663   2.271   4.171  12.200 -0.3266  0.9466 -1.1639
15724TIP3    H268664   2.304   4.242  12.329 -3.4535 -0.8580  0.7753
15725TIP3   OH268665   1.567   3.795  38.544 -0.1342  0.3189 -0.2555
15725TIP3    H168666   1.645   3.821  38.495 -1.5904  1.7442 -1.9860
15725TIP3    H268667   1.583   3.824  38.634  1.4112  0.3154 -0.5131
15726TIP3   OH268668   3.271   2.301  40.389  0.3491  0.0977  0.5685
15726TIP3    H168669   3.340   2.236  40.382  1.3395  1.2558 -1.0857
15726TIP3    H268670   3.240   2.315  40.300 -0.7552  0.9473  1.0479
15727TIP3   OH268671   2.606   3.175   0.379 -0.4347  0.0478  0.0103
15727TIP3    H168672   2.636   3.220   0.458 -1.3691  0.3516  0.2099
15727TIP3    H268673   2.543   3.110   0.411  0.5733 -1.1186 -0.3186
15728TIP3   OH268674   2.341   0.275  31.902  0.1239 -0.0853 -0.1832
15728TIP3    H168675   2.339   0.270  31.806  1.2136  1.7751 -0.3585
15728TIP3    H268676   2.434   0.288  31.923 -0.0495 -0.9096  1.1655
15729TIP3   OH268677   2.701   3.863   1.384  0.3741 -0.3924  0.1378
15729TIP3    H168678   2.759   3.930   1.419  2.4337 -0.8653 -2.1473
15729TIP3    H268679   2.737   3.780   1.415  0.2499 -0.6347 -0.3482
15730TIP3   OH268680   0.973   0.638  30.500 -0.4157 -0.6727 -0.1842
15730TIP3    H168681   0.935   0.659  30.415 -0.8013  0.2582  0.2019
15730TIP3    H268682   1.017   0.554  30.487 -1.3199 -1.0364 -1.0371
15731TIP3   OH268683   2.091   3.770  33.047  0.0869 -0.8488 -0.8958
15731TIP3    H168684   2.031   3.702  33.080 -0.0172 -0.9345 -1.2629
15731TIP3    H268685   2.175   3.747  33.086  0.0391 -1.1526 -0.9616
15732TIP3   OH268686   0.112   0.855  27.066  0.1768 -0.3745 -0.4297
15732TIP3    H168687   0.177   0.913  27.107  1.7343 -2.5063  0.2809
15732TIP3    H268688   0.046   0.843  27.134  0.6527 -0.6661 -0.0134
15733TIP3   OH268689   4.333   4.115   9.314 -0.7836 -0.3242  0.4463
15733TIP3    H168690   4.311   4.165   9.392  0.5763  2.5295 -0.8662
15733TIP3    H268691   4.273   4.147   9.246  1.5148  1.2858 -0.9698
15734TIP3   OH268692   2.149   2.045  36.572  0.4991  0.1968  0.6749
15734TIP3    H168693   2.196   2.022  36.492 -0.6835 -0.8222  0.2434
15734TIP3    H268694   2.089   2.115  36.545  1.1301  0.8800  1.0197
15735TIP3   OH268695   1.382   1.145  31.049  0.2481  0.5963  0.1948
15735TIP3    H168696   1.375   1.060  31.006  0.0438 -0.4282  2.1361
15735TIP3    H268697   1.477   1.159  31.057  0.3462  1.7462 -2.2625
15736TIP3   OH268698   1.218   2.167   1.912 -0.2052  0.3537  0.0515
15736TIP3    H168699   1.287   2.103   1.928  0.1079  0.4259 -0.9136
15736TIP3    H268700   1.231   2.235   1.979  0.7506  0.4344 -0.2033
15737TIP3   OH268701   2.076   1.102   1.868 -0.6980  0.9127  0.0452
15737TIP3    H168702   2.079   1.186   1.821  1.1041  1.3873  0.8956
15737TIP3    H268703   2.027   1.121   1.948 -0.5890  1.0872  0.0729
15738TIP3   OH268704   3.870   2.376  37.865  0.0662 -0.4337 -0.5385
15738TIP3    H168705   3.889   2.365  37.959  0.1156 -0.2731 -0.5291
15738TIP3    H268706   3.786   2.332  37.852  0.0280 -0.4011 -0.4046
15739TIP3   OH268707   4.288   3.570   9.388  0.0457  0.4855 -0.1219
15739TIP3    H168708   4.203   3.527   9.385  0.2532 -0.3958  3.0978
15739TIP3    H268709   4.268   3.664   9.389 -0.9962  0.2831  1.3997
15740TIP3   OH268710   3.656   4.012   7.369 -0.4506 -0.4206  0.7588
15740TIP3    H168711   3.581   4.055   7.411 -1.2022 -0.7733 -0.2097
15740TIP3    H268712   3.650   3.921   7.396 -0.5695 -0.5208  0.3924
15741TIP3   OH268713   3.323   3.116  34.327 -0.1352 -0.7077 -0.1692
15741TIP3    H168714   3.359   3.193  34.371  0.8705 -0.6828 -0.9903
15741TIP3    H268715   3.297   3.058  34.398  0.3950 -0.1933  0.4618
15742TIP3   OH268716   0.566   1.289   4.166  0.4082 -0.0374 -0.4360
15742TIP3    H168717   0.507   1.317   4.236 -0.0175  0.0304 -0.8164
15742TIP3    H268718   0.510   1.239   4.107  0.7030  0.1467 -0.8757
15743TIP3   OH268719   1.703   4.161  41.242  0.2764 -0.6054 -0.0316
15743TIP3    H168720   1.636   4.117  41.294  1.2078 -0.6552  1.1863
15743TIP3    H268721   1.759   4.090  41.211  2.2593 -0.3550  2.6150
15744TIP3   OH268722   3.338   2.875   4.382  0.0164 -0.3103  0.1008
15744TIP3    H168723   3.389   2.802   4.348  0.2405  0.3488 -1.0290
15744TIP3    H268724   3.400   2.925   4.435 -0.1538 -0.9410  0.9315
15745TIP3   OH268725   3.517   2.615   5.993  0.0684  0.1224  0.3669
15745TIP3    H168726   3.540   2.647   5.906 -2.1224  0.1016 -0.2855
15745TIP3    H268727   3.503   2.694   6.045  1.6336  0.1360  0.8206
15746TIP3   OH268728   0.615   4.023  12.884  0.2880 -0.4244  0.1726
15746TIP3    H168729   0.689   4.084  12.880 -0.4056  0.3709 -0.5763
15746TIP3    H268730   0.657   3.937  12.896  1.2952  0.1062  0.6263
15747TIP3   OH268731   3.966   2.494  24.105 -0.2207 -0.4156 -0.6889
15747TIP3    H168732   4.050   2.449  24.114  0.2562  0.6111  0.2879
15747TIP3    H268733   3.947   2.492  24.012  1.6823  0.7269 -1.1465
15748TIP3   OH268734   1.098   0.313  37.824  0.3935 -0.3110  0.2883
15748TIP3    H168735   1.165   0.253  37.791  0.1819  0.5687 -1.8694
15748TIP3    H268736   1.055   0.347  37.746 -1.8004  0.0742  1.5786
15749TIP3   OH268737   3.637   2.309  36.586 -0.4583  0.5056 -0.0616
15749TIP3    H168738   3.650   2.392  36.541 -0.5456 -0.0662 -1.1776
15749TIP3    H268739   3.665   2.243  36.523  1.3979 -0.2543  1.4660
15750TIP3   OH268740   2.029   1.675  14.095  0.1272 -0.1929 -0.0297
15750TIP3    H168741   2.000   1.765  14.076  0.3586  0.2509  1.5992
15750TIP3    H268742   2.037   1.672  14.190 -0.7978 -2.2432  0.0359
15751TIP3   OH268743   2.440   3.124  36.211 -0.1883  0.9109  0.0786
15751TIP3    H168744   2.404   3.038  36.189 -0.4742  0.8513  0.7495
15751TIP3    H268745   2.477   3.156  36.129  0.4566 -0.1020 -0.0420
15752TIP3   OH268746   2.369   2.408   9.752  0.0799 -0.4941 -0.1572
15752TIP3    H168747   2.322   2.460   9.687  1.4135 -0.4346 -1.1292
15752TIP3    H268748   2.406   2.472   9.812  0.7644 -0.3671 -0.6944
15753TIP3   OH268749   3.451   1.421   3.853 -0.0393 -0.1372 -0.2848
15753TIP3    H168750   3.424   1.377   3.934  0.0943 -1.5444 -0.9706
15753TIP3    H268751   3.371   1.461   3.819 -0.0468  0.6657  0.6512
15754TIP3   OH268752   3.540   3.944  34.293  0.4047 -0.1558  0.3039
15754TIP3    H168753   3.616   3.887  34.283  0.4827  0.0565 -0.3497
15754TIP3    H268754   3.571   4.016  34.347  0.6107 -0.1804  0.2198
15755TIP3   OH268755   3.714   0.070  12.709 -0.4095 -0.3387 -0.1988
15755TIP3    H168756   3.652  -0.001  12.696 -1.8081  0.8980 -0.5589
15755TIP3    H268757   3.703   0.096  12.800  2.0430 -2.2683  0.7762
15756TIP3   OH268758   0.356   2.760  41.068  0.3264 -0.3267  0.1994
15756TIP3    H168759   0.278   2.816  41.059  1.2367  1.2953  1.8297
15756TIP3    H268760   0.426   2.810  41.025  0.5738 -1.6283 -0.9800
15757TIP3   OH268761   1.145   2.090  30.370  0.3945  0.7175  0.0852
15757TIP3    H168762   1.063   2.140  30.369 -0.4358 -0.4874 -2.2324
15757TIP3    H268763   1.123   2.010  30.417 -0.0452  0.0827 -1.1355
15758TIP3   OH268764   0.826   2.712   2.273  0.0535  0.5285 -0.6901
15758TIP3    H168765   0.852   2.657   2.347  0.4519 -0.8941 -1.8390
15758TIP3    H268766   0.899   2.704   2.211 -1.3804 -0.4172 -2.3430
15759TIP3   OH268767   0.408   1.572  29.211  0.3312 -0.0889  0.2699
15759TIP3    H168768   0.316   1.570  29.238  1.2379  0.8429  4.1413
15759TIP3    H268769   0.430   1.482  29.190 -0.7182 -0.9778  2.6569
15760TIP3   OH268770   0.570   2.005  27.463 -0.2277  0.2406  0.2010
15760TIP3    H168771   0.574   1.985  27.370 -4.4043  0.5408 -0.2401
15760TIP3    H268772   0.581   2.099  27.468 -0.1319  0.2399  0.0117
15761TIP3   OH268773   2.468   2.355   1.228  0.3663 -0.1564 -0.1526
15761TIP3    H168774   2.488   2.445   1.250  0.9013 -0.5304  0.9413
15761TIP3    H268775   2.492   2.305   1.306 -1.3603 -1.0661 -0.1567
15762TIP3   OH268776   1.970   0.406   5.208 -0.3573 -0.2054 -0.2590
15762TIP3    H168777   1.939   0.320   5.181  2.4074 -0.8362 -1.8057
15762TIP3    H268778   1.985   0.453   5.126 -1.5418  1.6951  0.5523
15763TIP3   OH268779   4.289   0.724  10.393 -0.2238 -0.4339 -0.0320
15763TIP3    H168780   4.360   0.665  10.421 -0.2426  0.4122  2.0133
15763TIP3    H268781   4.209   0.675  10.413 -0.2235 -0.2323  0.4911
15764TIP3   OH268782   2.551   2.663  12.331  0.5238 -0.5835 -0.1198
15764TIP3    H168783   2.643   2.654  12.306  0.7075  1.6723 -0.4570
15764TIP3    H268784   2.524   2.574  12.353  3.0091 -1.2161  0.7969
15765TIP3   OH268785   1.195   3.852  28.568 -0.3730 -0.1206 -0.0577
15765TIP3    H168786   1.153   3.826  28.649 -2.3242  0.6317 -0.7717
15765TIP3    H268787   1.134   3.913  28.527  1.7406  1.6348 -0.8393
15766TIP3   OH268788   0.884   3.246  28.501  0.1865 -0.3217 -0.3347
15766TIP3    H168789   0.918   3.279  28.584  1.2920 -1.9453 -0.0825
15766TIP3    H268790   0.829   3.317  28.468  0.7317  0.8734  1.1590
15767TIP3   OH268791   2.617   1.380  30.439 -0.5659  0.3614  0.1180
15767TIP3    H168792   2.696   1.430  30.460 -0.1225 -0.1116 -0.3789
15767TIP3    H268793   2.640   1.290  30.462 -1.0395  0.2503  0.1605
15768TIP3   OH268794   1.469   1.934  36.877  0.6673 -0.1968 -0.7014
15768TIP3    H168795   1.523   1.982  36.814  0.6439 -0.8338 -1.2254
15768TIP3    H268796   1.439   1.857  36.828  0.3872 -0.5379 -0.0020
15769TIP3   OH268797   0.063   4.323  27.414 -0.2278  0.2120  0.1150
15769TIP3    H168798   0.057   4.301  27.507 -0.9543  3.8772  1.0834
15769TIP3    H268799   0.157   4.338  27.399 -0.0075 -1.1524 -0.0101
15770TIP3   OH268800   2.105   2.281   1.439  0.2839  0.0739 -0.5678
15770TIP3    H168801   2.192   2.298   1.473  0.2878  0.2154 -0.6435
15770TIP3    H268802   2.048   2.280   1.516  0.7011 -2.5979 -0.2049
15771TIP3   OH268803   0.134   3.602  41.479 -0.1536  0.4578 -0.7734
15771TIP3    H168804   0.211   3.590  41.422  0.8865  0.4351  0.5872
15771TIP3    H268805   0.132   3.696  41.495  0.0744  0.3607 -0.1647
15772TIP3   OH268806   3.843   2.765  12.873  0.3837 -0.4833  0.2334
15772TIP3    H168807   3.762   2.804  12.905 -0.4422 -0.4439 -1.7352
15772TIP3    H268808   3.870   2.704  12.942 -0.4948  0.5875  1.5640
15773TIP3   OH268809   1.023   2.211  17.286 -0.2868  0.1397  0.9462
15773TIP3    H168810   1.074   2.281  17.327 -0.2631  1.0045 -0.4656
15773TIP3    H268811   1.089   2.156  17.244 -0.3869  0.1185  0.8157
15774TIP3   OH268812   1.736   4.095  34.080  0.7181  0.4664 -0.2477
15774TIP3    H168813   1.746   4.085  34.174  0.3672 -0.3026 -0.2844
15774TIP3    H268814   1.685   4.175  34.069  0.3482  0.3008  0.2370
15775TIP3   OH268815   1.989   2.436   2.243 -0.6189 -0.6982  0.6078
15775TIP3    H168816   1.951   2.451   2.156 -1.3978 -1.7441  0.7556
15775TIP3    H268817   1.927   2.378   2.287  0.0987 -0.7150  1.6330
15776TIP3   OH268818   2.952   3.803  34.040 -0.5801 -0.0537  0.0353
15776TIP3    H168819   2.917   3.755  34.114 -2.4406 -1.4321 -1.6378
15776TIP3    H268820   3.007   3.740  33.994  0.9655  0.9338  0.4609
15777TIP3   OH268821   0.553   1.021   3.129  0.0515 -0.0633  0.1596
15777TIP3    H168822   0.607   1.064   3.063  0.2274 -1.5070 -0.6921
15777TIP3    H268823   0.473   0.995   3.082  0.5083 -1.8121  0.2595
15778TIP3   OH268824   0.102   2.031  27.456 -0.3723  0.0678  0.0165
15778TIP3    H168825   0.103   1.935  27.452 -0.7807 -0.0115  1.2457
15778TIP3    H268826   0.034   2.052  27.520 -0.7307  1.2161 -0.7019
15779TIP3   OH268827   2.721   2.146  10.950  0.1037 -0.2065  0.4826
15779TIP3    H168828   2.748   2.085  11.018 -0.2464 -0.0690  0.7490
15779TIP3    H268829   2.637   2.181  10.980 -0.6471 -1.0210 -0.5775
15780TIP3   OH268830   0.593   0.584  35.427  0.2432 -0.2880 -0.2555
15780TIP3    H168831   0.653   0.549  35.361 -0.5315 -2.3485  0.0558
15780TIP3    H268832   0.554   0.661  35.386 -0.6754 -1.8429 -2.5163
15781TIP3   OH268833   4.217   1.760   0.287 -0.1457 -0.6846  0.5269
15781TIP3    H168834   4.264   1.832   0.245  0.7206 -0.9323  1.0497
15781TIP3    H268835   4.125   1.784   0.279 -0.0086 -0.6091 -1.2934
15782TIP3   OH268836   4.184   3.063   3.575  0.2119 -0.2705 -0.2616
15782TIP3    H168837   4.262   3.118   3.569 -0.1424  0.3950  1.0543
15782TIP3    H268838   4.184   3.030   3.665  0.2540 -2.2182 -0.9162
15783TIP3   OH268839   2.768   3.046   5.219 -0.1144  0.3174 -0.4697
15783TIP3    H168840   2.777   3.005   5.132 -0.9532  1.5122 -1.1385
15783TIP3    H268841   2.685   3.093   5.215  1.4226  3.2966 -0.2742
15784TIP3   OH268842   1.581   2.056  16.782 -0.1954  0.4018 -0.1328
15784TIP3    H168843   1.538   2.087  16.862  0.7874  0.4676  0.3900
15784TIP3    H268844   1.583   1.960  16.791  0.8759  0.4623  0.4557
15785TIP3   OH268845   1.335   2.821  40.572 -0.1737  0.0407 -0.5745
15785TIP3    H168846   1.322   2.734  40.609 -0.9625  0.2848 -0.2503
15785TIP3    H268847   1.247   2.859  40.569 -0.0337  0.3324 -1.9512
15786TIP3   OH268848   3.074   4.241  27.165 -0.2864  0.0838 -0.3527
15786TIP3    H168849   2.987   4.201  27.173 -0.2550  0.3052  1.9760
15786TIP3    H268850   3.134   4.167  27.160 -0.5110 -0.1064 -0.2578
15787TIP3   OH268851   2.780   1.000  33.436  0.2436 -0.0505 -0.0483
15787TIP3    H168852   2.734   1.084  33.437 -0.8841 -0.6206 -1.3086
15787TIP3    H268853   2.766   0.966  33.347  1.0795 -1.3625  0.2985
15788TIP3   OH268854   0.166   4.251   9.256  0.1064  0.3448 -0.1041
15788TIP3    H168855   0.091   4.198   9.284  0.8088  0.9135  3.3049
15788TIP3    H268856   0.138   4.341   9.269  1.7816  0.5776  3.0377
15789TIP3   OH268857   2.851   1.621  32.974 -0.5950  0.4671 -0.4120
15789TIP3    H168858   2.886   1.666  32.898 -0.4592  0.9030 -0.0914
15789TIP3    H268859   2.928   1.587  33.020 -0.5987  1.1607  0.1263
15790TIP3   OH268860   0.192   1.423  41.595 -0.0828  0.3194 -0.1957
15790TIP3    H168861   0.255   1.495  41.594  0.0787  0.1989  0.4725
15790TIP3    H268862   0.227   1.361  41.531  0.9450 -0.1099  0.7302
15791TIP3   OH268863   2.039   1.385  14.387 -0.0150 -0.7932  0.0063
15791TIP3    H168864   1.944   1.394  14.393  0.1529  1.5300  0.1294
15791TIP3    H268865   2.059   1.303  14.432 -1.8371 -0.6188  1.1980
15792TIP3   OH268866   3.872   2.217   7.857  0.1029 -0.3146  0.0949
15792TIP3    H168867   3.945   2.228   7.796 -0.4085 -0.6997 -0.6172
15792TIP3    H268868   3.853   2.305   7.889 -0.6955  0.1773 -1.6130
15793TIP3   OH268869   2.612   2.236  31.150 -0.2036  0.6336 -0.4039
15793TIP3    H168870   2.596   2.307  31.089 -1.1930 -0.1420 -1.0864
15793TIP3    H268871   2.654   2.168  31.097  2.1111  1.1993  0.5454
15794TIP3   OH268872   0.503   0.205   0.427 -0.1383  0.5521 -0.2758
15794TIP3    H168873   0.514   0.299   0.438  0.9744  0.5962 -1.4874
15794TIP3    H268874   0.568   0.181   0.360 -0.1044 -1.1398  0.3129
15795TIP3   OH268875   1.785   0.796  32.250  0.2933 -0.3752 -0.9109
15795TIP3    H168876   1.860   0.786  32.308  0.2400  0.4337 -0.6888
15795TIP3    H268877   1.709   0.787  32.306  0.2364 -0.0846 -0.9380
15796TIP3   OH268878   1.327   4.284   5.918  0.2682 -0.5974 -0.7760
15796TIP3    H168879   1.341   4.230   5.840 -0.1769 -0.7348 -0.7639
15796TIP3    H268880   1.415   4.294   5.955  0.3332 -1.5285 -0.6411
15797TIP3   OH268881   2.196   3.790  31.821 -0.0460 -0.0720  0.9242
15797TIP3    H168882   2.148   3.707  31.814  0.7230 -0.5898  1.5222
15797TIP3    H268883   2.152   3.837  31.891 -0.5100  0.0394  0.5568
15798TIP3   OH268884   3.899   0.707  11.780  0.8289 -0.4028  0.6583
15798TIP3    H168885   3.910   0.679  11.871 -1.5170 -0.0751  1.1067
15798TIP3    H268886   3.817   0.666  11.752 -0.2052  2.0622 -0.2227
15799TIP3   OH268887   4.284   2.308   1.667  0.2301 -0.1235 -0.4949
15799TIP3    H168888   4.329   2.334   1.586  1.5882  3.6699  1.2313
15799TIP3    H268889   4.234   2.386   1.692 -1.8642 -1.9178  1.2601
15800TIP3   OH268890   4.401   3.742  27.976  0.4008 -0.2508 -1.1687
15800TIP3    H168891   4.336   3.728  27.907 -0.1115  0.0987 -0.7620
15800TIP3    H268892   4.477   3.691  27.948 -0.8599 -2.6679 -0.4716
15801TIP3   OH268893   0.274   3.180  23.198 -0.1574 -0.2574  0.8397
15801TIP3    H168894   0.184   3.208  23.183 -0.3693 -1.3129  0.0519
15801TIP3    H268895   0.305   3.150  23.113  0.7924 -0.3264  1.1950
15802TIP3   OH268896   0.567   3.037  23.878  0.3291 -0.8331  0.4557
15802TIP3    H168897   0.563   3.132  23.864  1.0103 -0.9323 -0.5701
15802TIP3    H268898   0.584   3.001  23.790  0.3118 -1.8840  0.8709
15803TIP3   OH268899   2.602   2.771  40.601  0.3752  0.2339  0.4374
15803TIP3    H168900   2.676   2.731  40.556 -1.5205 -0.6551 -2.1546
15803TIP3    H268901   2.538   2.700  40.610 -0.7926  1.3235  1.1033
15804TIP3   OH268902   2.207   1.764  38.237 -0.3588 -0.8716  0.2894
15804TIP3    H168903   2.209   1.849  38.194  0.9233 -1.0044  0.0494
15804TIP3    H268904   2.127   1.723  38.205  0.1279 -0.6224 -1.3252
15805TIP3   OH268905   4.362   0.209  31.431  0.0308  0.2338  0.3531
15805TIP3    H168906   4.440   0.213  31.486  0.0494  0.9153  0.2743
15805TIP3    H268907   4.394   0.220  31.342 -0.1748  0.6937  0.3341
15806TIP3   OH268908   1.364   2.827  27.856  0.0022 -0.0071  0.0805
15806TIP3    H168909   1.376   2.823  27.951 -2.6284 -2.2165  0.4641
15806TIP3    H268910   1.435   2.774  27.821 -1.1394 -2.4710  1.2140
15807TIP3   OH268911   0.496   0.448   3.640 -0.0681 -0.1262  0.2123
15807TIP3    H168912   0.556   0.400   3.696 -1.1861 -0.6835  0.9740
15807TIP3    H268913   0.529   0.434   3.551 -1.1300 -3.6395  0.2041
15808TIP3   OH268914   0.227   1.435   5.701  0.5731  0.5547 -0.0145
15808TIP3    H168915   0.305   1.478   5.736  1.3869 -0.4973 -0.4780
15808TIP3    H268916   0.162   1.444   5.770  1.3408  0.7617  0.7061
15809TIP3   OH268917   2.385   0.659  11.320 -0.3806  0.2919  0.1912
15809TIP3    H168918   2.296   0.626  11.320 -0.9752  1.7541 -0.8132
15809TIP3    H268919   2.375   0.754  11.312  1.2660  0.3424 -2.6126
15810TIP3   OH268920   4.180   0.529   9.380 -0.1355 -0.0080  0.2200
15810TIP3    H168921   4.225   0.610   9.403 -0.9924  1.5920 -3.1222
15810TIP3    H268922   4.248   0.462   9.382  1.4237  1.5004 -0.3791
15811TIP3   OH268923   2.194   2.493  33.335  0.3943  0.1678  0.2020
15811TIP3    H168924   2.148   2.422  33.290  0.2650  0.1760  0.3213
15811TIP3    H268925   2.272   2.453  33.371  0.0481 -0.0373  0.7367
15812TIP3   OH268926   2.149   2.014  11.917  0.1006 -0.3828  0.3765
15812TIP3    H168927   2.152   1.998  11.823  0.5337  0.3302  0.2586
15812TIP3    H268928   2.177   2.105  11.927 -1.2009 -0.0314  1.0918
15813TIP3   OH268929   3.620   1.604  22.371  0.1499  0.1463  0.5394
15813TIP3    H168930   3.623   1.663  22.295 -0.6099  1.5095  1.5120
15813TIP3    H268931   3.703   1.557  22.368  0.3974  0.6116 -0.7880
15814TIP3   OH268932   1.691   2.454  38.235 -0.7027  0.9245  0.4922
15814TIP3    H168933   1.678   2.547  38.220 -1.1141  0.7399 -0.3384
15814TIP3    H268934   1.702   2.446  38.330 -2.7510  1.5879  0.8279
15815TIP3   OH268935   4.086   0.853  21.941  0.3859 -0.2146  0.5451
15815TIP3    H168936   4.161   0.855  21.881  0.5601 -1.0447  0.7207
15815TIP3    H268937   4.017   0.807  21.892  1.1776 -2.7579  1.6597
15816TIP3   OH268938   1.046   2.533  28.598  0.2107  0.1487 -0.3635
15816TIP3    H168939   0.997   2.547  28.679 -0.8096 -0.6341 -0.8262
15816TIP3    H268940   1.123   2.483  28.625 -0.3020 -0.4127  0.0736
15817TIP3   OH268941   2.862   1.428  36.175 -0.2302  0.3346 -0.1211
15817TIP3    H168942   2.923   1.358  36.199 -0.7600 -1.7474 -4.0137
15817TIP3    H268943   2.775   1.389  36.185 -0.5832  0.7570 -1.3658
15818TIP3   OH268944   3.041   2.019   0.570 -0.3874 -0.1610  0.3453
15818TIP3    H168945   3.109   1.959   0.539 -0.4907  0.9104 -2.1793
15818TIP3    H268946   3.090   2.094   0.604 -0.2260  0.7761 -1.8209
15819TIP3   OH268947   1.261   0.630  35.447 -0.2070 -0.0814 -0.2178
15819TIP3    H168948   1.322   0.584  35.505  1.0107 -0.0147 -1.3919
15819TIP3    H268949   1.195   0.565  35.424 -0.5967 -0.1556  1.0798
15820TIP3   OH268950   3.317   4.372  11.026 -0.0488 -0.3395 -0.3027
15820TIP3    H168951   3.412   4.375  11.039  0.0466 -0.4201 -0.9664
15820TIP3    H268952   3.287   4.459  11.053 -0.3552 -1.5502  4.0395
15821TIP3   OH268953   2.216   3.234  12.274 -0.1618  0.2463  0.6058
15821TIP3    H168954   2.165   3.271  12.202  1.3405 -0.8113 -1.0870
15821TIP3    H268955   2.307   3.259  12.254  0.5008 -1.6343  1.0842
15822TIP3   OH268956   2.659   0.218   2.483 -0.0955 -0.2187  0.6537
15822TIP3    H168957   2.575   0.232   2.438 -1.2157 -1.5151  2.2263
15822TIP3    H268958   2.664   0.123   2.495  2.4185 -0.3533 -0.8406
15823TIP3   OH268959   1.643   3.014  38.445 -0.5191  0.0197 -0.6836
15823TIP3    H168960   1.613   2.923  38.442 -0.3132 -0.1020  0.6392
15823TIP3    H268961   1.691   3.025  38.363  2.1492 -2.0345  0.4638
15824TIP3   OH268962   0.159   0.039   6.018 -0.3131 -0.0902 -0.4104
15824TIP3    H168963   0.069   0.051   5.988 -0.4604  0.4995  0.2584
15824TIP3    H268964   0.203   0.122   5.997  0.1393 -0.4493 -0.9277
15825TIP3   OH268965   1.748   1.696  29.383  0.3761 -0.5236  0.5472
15825TIP3    H168966   1.784   1.769  29.333  0.6377 -0.4689  0.8129
15825TIP3    H268967   1.656   1.718  29.395  0.6897  0.3153  1.5970
15826TIP3   OH268968   2.708   0.236  32.096 -0.3945  0.4296  0.2535
15826TIP3    H168969   2.691   0.229  32.002  1.1892 -1.2194  0.0335
15826TIP3    H268970   2.785   0.182  32.110 -0.7235  0.4733  2.5532
15827TIP3   OH268971   1.701   0.453  29.158  0.3136  0.5388  0.7623
15827TIP3    H168972   1.735   0.452  29.247  0.8974  0.9660  0.5563
15827TIP3    H268973   1.776   0.427  29.104  0.1699  0.9674  0.3448
15828TIP3   OH268974   1.242   1.914  41.553  0.0091 -0.1499 -0.1533
15828TIP3    H168975   1.221   1.874  41.469  0.4353 -1.0366  0.1554
15828TIP3    H268976   1.241   2.008  41.536  0.2014 -0.3311 -1.1733
15829TIP3   OH268977   0.139   3.304  40.884 -0.3507  0.0968 -0.3484
15829TIP3    H168978   0.162   3.330  40.794  2.0109  1.4657  0.5593
15829TIP3    H268979   0.102   3.383  40.923  0.6394  0.1715  0.4812
15830TIP3   OH268980   2.377   1.004   8.310 -0.4530  0.0225  0.1039
15830TIP3    H168981   2.433   1.071   8.348  0.2295  0.1952 -1.1613
15830TIP3    H268982   2.403   0.999   8.218 -1.2514 -1.1973 -0.0889
15831TIP3   OH268983   1.581   3.831   4.686  0.0719 -0.3283  0.1139
15831TIP3    H168984   1.645   3.853   4.619  1.3780 -1.7148  0.8385
15831TIP3    H268985   1.535   3.913   4.704  0.7778  0.4118 -1.3229
15832TIP3   OH268986   3.567   2.866   7.585  0.1179  0.1700  0.4557
15832TIP3    H168987   3.473   2.879   7.600 -0.0176 -0.3918  0.1627
15832TIP3    H268988   3.585   2.912   7.503  0.2633  0.9045  0.8924
15833TIP3   OH268989   0.018   0.129  25.436 -1.0075 -0.3733 -0.9505
15833TIP3    H168990  -0.035   0.066  25.386 -1.9197  0.1028 -0.6006
15833TIP3    H268991  -0.036   0.152  25.511  0.2950 -0.9691  0.2081
15834TIP3   OH268992   2.660   4.100   4.241 -0.1227 -0.2425 -0.0348
15834TIP3    H168993   2.583   4.148   4.209 -0.1656  0.8703  1.6318
15834TIP3    H268994   2.674   4.031   4.176 -1.0743  1.0104 -1.6362
15835TIP3   OH268995   4.002   4.021   0.184  0.3375  0.3606  0.0189
15835TIP3    H168996   3.973   4.091   0.243  1.4075  0.6954  0.1562
15835TIP3    H268997   3.966   4.046   0.099 -0.3735  0.3972  0.3219
15836TIP3   OH268998   3.428   1.270   7.137 -0.2540  0.4666 -0.1125
15836TIP3    H168999   3.443   1.223   7.219  0.2365  0.4723 -0.1958
15836TIP3    H269000   3.513   1.269   7.093 -0.2998  1.2286 -0.2208
15837TIP3   OH269001   3.880   0.501   7.775 -0.7470  0.2187 -0.0056
15837TIP3    H169002   3.856   0.519   7.866  0.2019 -0.1122  0.3212
15837TIP3    H269003   3.972   0.526   7.769 -0.3983 -1.0838 -0.4846
15838TIP3   OH269004   2.630   2.743  29.689 -0.2323  0.2016  0.1198
15838TIP3    H169005   2.631   2.699  29.604 -1.1241 -0.6664  0.5277
15838TIP3    H269006   2.672   2.680  29.748 -1.0072  0.1187  0.6037
15839TIP3   OH269007   3.250   3.168  10.692 -0.5538  0.2280 -0.6310
15839TIP3    H169008   3.241   3.166  10.787 -0.0287 -0.6477 -0.5825
15839TIP3    H269009   3.247   3.260  10.668 -0.3681  0.4668  0.2649
15840TIP3   OH269010   0.051   1.659  30.447 -0.0966  0.0215  0.2278
15840TIP3    H169011  -0.019   1.601  30.418  0.1199  0.1780 -0.6392
15840TIP3    H269012   0.006   1.736  30.483 -0.3887  0.4581 -1.0270
15841TIP3   OH269013   1.324   2.430  11.121 -0.5219 -1.1871  0.5909
15841TIP3    H169014   1.271   2.485  11.063 -0.8801  0.2589  2.1944
15841TIP3    H269015   1.413   2.440  11.089 -0.6707 -0.1562  0.4704
15842TIP3   OH269016   0.579   3.781  36.423 -0.6342  0.0273  0.4907
15842TIP3    H169017   0.588   3.731  36.341 -1.6223 -1.8914  1.4879
15842TIP3    H269018   0.501   3.835  36.410 -1.7779 -1.5021  0.7080
15843TIP3   OH269019   2.593   2.393  39.994 -0.2614 -0.3762  0.1662
15843TIP3    H169020   2.576   2.302  40.018 -1.6814 -0.0978  0.3524
15843TIP3    H269021   2.581   2.442  40.076  0.4261 -0.0060  0.0540
15844TIP3   OH269022   1.717   3.852   5.412 -0.0283  0.0852  0.4037
15844TIP3    H169023   1.753   3.938   5.437 -3.3847  1.7041  0.1219
15844TIP3    H269024   1.711   3.855   5.317 -1.1854 -0.0017  0.4675
15845TIP3   OH269025   2.618   4.336   2.757 -0.3110 -0.2626 -0.0257
15845TIP3    H169026   2.618   4.266   2.822  1.1190 -0.1610  0.1230
15845TIP3    H269027   2.602   4.291   2.674 -0.8445 -0.5630  0.2322
15846TIP3   OH269028   2.796   0.556  40.409  0.2128 -0.0682 -0.3125
15846TIP3    H169029   2.807   0.648  40.383 -0.6318 -0.1353 -0.9678
15846TIP3    H269030   2.758   0.514  40.332 -0.4109 -0.7310  0.3407
15847TIP3   OH269031   2.326   1.965  34.845 -0.2825 -0.4320  0.1305
15847TIP3    H169032   2.241   1.926  34.821 -0.6942  0.8711 -0.6078
15847TIP3    H269033   2.304   2.055  34.870  0.9297  0.0215 -0.3978
15848TIP3   OH269034   2.593   1.844  17.549  0.1579  0.0361  0.4093
15848TIP3    H169035   2.502   1.874  17.543  0.1739  0.3194  1.4168
15848TIP3    H269036   2.616   1.854  17.641  2.4052  3.6156 -0.3041
15849TIP3   OH269037   2.122   0.378  19.282 -0.6178  0.6208 -0.7565
15849TIP3    H169038   2.207   0.423  19.290 -1.3173  1.8604  0.0778
15849TIP3    H269039   2.075   0.427  19.215 -0.5538 -0.3088 -1.5047
15850TIP3   OH269040   2.941   3.267   7.036  0.1157  0.5070  0.0164
15850TIP3    H169041   3.023   3.277   7.084 -0.7407  1.7418  1.3002
15850TIP3    H269042   2.895   3.198   7.084 -0.8657  1.9444  1.2124
15851TIP3   OH269043   0.252   0.093  34.990 -0.2583  0.0688 -0.4767
15851TIP3    H169044   0.208   0.135  34.916 -0.1379 -0.3291 -0.7811
15851TIP3    H269045   0.190   0.100  35.062 -1.7833 -2.3345 -1.4000
15852TIP3   OH269046   3.492   4.180  36.050  0.4661 -0.7441 -0.4252
15852TIP3    H169047   3.463   4.267  36.078 -1.1389 -0.8742 -1.5282
15852TIP3    H269048   3.515   4.135  36.132 -2.5473 -0.6044  0.6328
15853TIP3   OH269049   1.226   4.120  37.766 -0.4159  0.2079 -0.0389
15853TIP3    H169050   1.313   4.126  37.727 -0.3814  0.1177  0.0237
15853TIP3    H269051   1.196   4.032  37.745 -0.4828  0.2317 -0.0438
15854TIP3   OH269052   0.975   1.426   2.464 -0.0359  0.0005  0.3696
15854TIP3    H169053   0.946   1.389   2.547 -1.1547 -0.0285 -0.0215
15854TIP3    H269054   0.912   1.495   2.444  0.4809  0.3144 -0.2371
15855TIP3   OH269055   2.298   4.402   1.490 -0.2989 -0.1629  0.4648
15855TIP3    H169056   2.383   4.435   1.463 -0.3955  0.3473  0.7603
15855TIP3    H269057   2.312   4.309   1.507  0.5370  0.1904  1.8440
15856TIP3   OH269058   0.918   1.128  28.015  0.6904  0.3581 -0.0010
15856TIP3    H169059   0.947   1.220  28.011 -0.1989  0.6449  0.0675
15856TIP3    H269060   0.833   1.128  27.972  0.5396 -0.3846  0.2940
15857TIP3   OH269061   3.263   1.052   1.928 -0.2845  0.5185 -0.7034
15857TIP3    H169062   3.295   0.972   1.969  0.0861  1.5326  1.1174
15857TIP3    H269063   3.188   1.078   1.981 -0.3294  1.4272 -1.1869
15858TIP3   OH269064   4.141   0.029  28.458 -0.6158 -0.4179  0.3826
15858TIP3    H169065   4.116   0.069  28.375 -0.5511 -2.6297 -0.7551
15858TIP3    H269066   4.235   0.046  28.464 -0.5598 -0.5270 -0.1452
15859TIP3   OH269067   1.237   0.307   9.877 -0.4730  0.3889  0.2411
15859TIP3    H169068   1.146   0.284   9.854 -0.6808  1.2367  0.1953
15859TIP3    H269069   1.290   0.246   9.826 -1.0061  0.2525 -0.1674
15860TIP3   OH269070   3.674   1.984  12.362 -0.2293 -0.0264 -0.0838
15860TIP3    H169071   3.673   1.940  12.277  1.5581  0.4189 -0.3835
15860TIP3    H269072   3.582   1.985  12.390 -0.8667 -0.1415 -2.0207
15861TIP3   OH269073   2.144   3.080   7.581 -0.0181 -0.0263  0.1583
15861TIP3    H169074   2.161   3.041   7.667 -0.5712  1.0862  0.7871
15861TIP3    H269075   2.057   3.050   7.558 -0.0244 -0.0129  0.1652
15862TIP3   OH269076   2.583   3.569  10.725 -0.7082 -0.1655  0.2257
15862TIP3    H169077   2.597   3.664  10.731  2.4291 -0.3955 -1.1484
15862TIP3    H269078   2.602   3.536  10.812 -0.1563  0.3413  0.3034
15863TIP3   OH269079   2.275   4.236   7.611  0.0884  0.6302  0.0931
15863TIP3    H169080   2.191   4.197   7.586 -0.2911 -0.1738  2.2985
15863TIP3    H269081   2.259   4.270   7.700  1.5118  2.4223 -0.2834
15864TIP3   OH269082   2.429   3.676  19.172 -0.1370 -0.0808 -0.2692
15864TIP3    H169083   2.343   3.720  19.173 -0.9885 -1.6735  0.8125
15864TIP3    H269084   2.488   3.739  19.214 -0.8537  0.8825 -0.6536
15865TIP3   OH269085   0.666   1.215  36.823  0.8519 -0.1312 -0.3106
15865TIP3    H169086   0.741   1.187  36.771 -0.5036 -0.3169 -2.2879
15865TIP3    H269087   0.691   1.300  36.858  2.1703 -0.4337 -0.4815
15866TIP3   OH269088   0.535   3.557  33.414 -0.1317 -0.4318  0.0610
15866TIP3    H169089   0.507   3.614  33.486  0.4270  0.6218 -0.5327
15866TIP3    H269090   0.475   3.578  33.343  0.9169  0.4375 -0.6005
15867TIP3   OH269091   1.070   0.103  32.457  0.1471 -0.0503  0.1611
15867TIP3    H169092   1.142   0.158  32.487 -1.6322  1.1583  2.5619
15867TIP3    H269093   0.991   0.154  32.478 -1.4669 -2.0295 -0.7916
15868TIP3   OH269094   0.672   1.060  40.693 -0.0273  0.2572  0.3958
15868TIP3    H169095   0.690   0.993  40.627  0.8880  0.6250  0.2658
15868TIP3    H269096   0.699   1.142  40.652 -0.2684  0.5983  0.9115
15869TIP3   OH269097   2.524   0.166  10.488  0.8711 -0.1614  0.3407
15869TIP3    H169098   2.513   0.176  10.393 -0.5096  0.2390  0.5185
15869TIP3    H269099   2.586   0.234  10.512  0.6022  0.2785 -0.1785
15870TIP3   OH269100   2.138   4.107  13.403  0.0154 -0.0025 -0.2421
15870TIP3    H169101   2.157   4.161  13.326  0.0336 -0.1675 -0.3555
15870TIP3    H269102   2.136   4.169  13.476 -0.7630  0.2694 -0.4798
15871TIP3   OH269103   2.234   0.309   8.992 -0.7315 -0.1206  0.3282
15871TIP3    H169104   2.288   0.243   9.035  0.2626 -0.0952 -0.8470
15871TIP3    H269105   2.153   0.310   9.043 -0.2543 -1.3041  1.1533
15872TIP3   OH269106   1.550   3.545  33.391 -0.3448  0.1657 -0.6123
15872TIP3    H169107   1.638   3.575  33.415 -0.3458 -0.3846  0.1483
15872TIP3    H269108   1.516   3.613  33.333  0.5313  0.4502 -0.8033
15873TIP3   OH269109   4.298   0.621  28.862 -0.6685  0.0536 -0.6660
15873TIP3    H169110   4.214   0.580  28.841 -0.3575 -0.8952 -0.1243
15873TIP3    H269111   4.324   0.581  28.945 -0.8453  2.1226  0.4588
15874TIP3   OH269112   3.895   2.786  30.122  0.0891  0.1033  0.3197
15874TIP3    H169113   3.910   2.864  30.174  0.0160  0.6238 -0.4173
15874TIP3    H269114   3.967   2.727  30.144  1.7346  1.4761 -1.1502
15875TIP3   OH269115   0.456   0.627  38.736 -0.3062  0.2025 -0.1262
15875TIP3    H169116   0.392   0.566  38.699  0.4921 -0.5826 -0.2563
15875TIP3    H269117   0.506   0.574  38.799 -0.1211  0.9279  0.3468
15876TIP3   OH269118   0.162   1.819   6.355  0.4274  0.2447 -0.4968
15876TIP3    H169119   0.110   1.869   6.292 -0.2968  0.6446  0.3847
15876TIP3    H269120   0.249   1.858   6.351  0.3910  0.2625 -1.2385
15877TIP3   OH269121   2.012   0.750  31.506  0.2570  0.5407  0.0453
15877TIP3    H169122   2.015   0.820  31.441  0.7781  0.1563 -0.3482
15877TIP3    H269123   1.934   0.699  31.483 -0.2089  1.0697  0.4256
15878TIP3   OH269124   2.534   1.145  34.558 -0.3858  0.1176 -0.4426
15878TIP3    H169125   2.494   1.203  34.493 -1.4150  0.1464  0.1978
15878TIP3    H269126   2.510   1.183  34.642  2.1627  0.9036 -0.0111
15879TIP3   OH269127   3.538   3.642   1.224 -0.7294 -0.1079 -0.1634
15879TIP3    H169128   3.458   3.614   1.269  0.3089 -1.0909  1.1545
15879TIP3    H269129   3.585   3.560   1.207  0.6341  0.5580  0.3451
15880TIP3   OH269130   3.939   0.963   0.612  0.0431  0.3880  0.1818
15880TIP3    H169131   3.925   0.965   0.518 -1.0187 -1.9276  0.2227
15880TIP3    H269132   3.881   1.031   0.647 -0.7879  0.1590 -0.7185
15881TIP3   OH269133   0.522   2.943   3.055 -0.0410  0.1261 -0.0091
15881TIP3    H169134   0.540   2.858   3.014 -0.6756 -0.1112  0.2054
15881TIP3    H269135   0.593   2.955   3.117  0.7274  0.3126 -0.8937
15882TIP3   OH269136   3.441   1.103  34.842 -0.7865 -0.0630 -0.4009
15882TIP3    H169137   3.513   1.155  34.878 -0.2914 -0.1550 -1.2231
15882TIP3    H269138   3.445   1.119  34.748 -0.8967 -1.2417 -0.6232
15883TIP3   OH269139   1.842   1.579  38.749  0.4349 -1.0163 -0.3815
15883TIP3    H169140   1.904   1.626  38.693  0.1918 -0.1678  0.0558
15883TIP3    H269141   1.862   1.608  38.838  1.1655 -2.7542  0.0591
15884TIP3   OH269142   3.828   4.248   0.215  0.1295  0.4883  0.3486
15884TIP3    H169143   3.776   4.304   0.274 -1.0101 -0.9902  0.8064
15884TIP3    H269144   3.913   4.291   0.210 -1.0913  3.0183 -0.4041
15885TIP3   OH269145   3.008   2.190   3.460  0.1024 -0.1827  0.0806
15885TIP3    H169146   3.054   2.109   3.479  0.4392  0.0202  0.1318
15885TIP3    H269147   2.945   2.199   3.531  0.3308 -0.2008  0.2860
15886TIP3   OH269148   3.165   4.245  33.864  0.6009 -0.0360 -0.3220
15886TIP3    H169149   3.214   4.182  33.917 -1.0318 -0.6985  0.4849
15886TIP3    H269150   3.082   4.201  33.846 -0.0628  1.3865 -0.8588
15887TIP3   OH269151   1.733   2.290   9.790 -0.5777  0.4397 -0.3208
15887TIP3    H169152   1.666   2.349   9.824  0.8473  0.8142  2.0812
15887TIP3    H269153   1.798   2.347   9.750 -1.2154  0.1260 -1.9088
15888TIP3   OH269154   3.705   1.949  27.858  0.0795  0.0253 -0.3119
15888TIP3    H169155   3.757   1.869  27.845 -0.4026 -0.5007  0.8981
15888TIP3    H269156   3.681   1.948  27.951  0.2896  1.7229 -0.2018
15889TIP3   OH269157   0.263   0.540   7.041  0.0403 -0.3532 -0.1560
15889TIP3    H169158   0.283   0.617   7.095  0.5786 -0.2419 -0.5133
15889TIP3    H269159   0.242   0.576   6.955 -0.8568 -0.5287 -0.0276
15890TIP3   OH269160   1.245   4.267  31.771  0.0473  0.1563 -0.0835
15890TIP3    H169161   1.319   4.288  31.715  0.9808 -0.6695  0.8098
15890TIP3    H269162   1.268   4.304  31.856 -1.2501  1.1985 -0.1490
15891TIP3   OH269163   3.698   0.009   0.391 -0.0800 -0.0846  0.5056
15891TIP3    H169164   3.726   0.091   0.432  0.3780  0.0678 -0.1094
15891TIP3    H269165   3.708  -0.057   0.460 -0.8344  0.4335  1.1344
15892TIP3   OH269166   1.852   3.310  33.466 -0.2777  0.4167  0.1532
15892TIP3    H169167   1.827   3.230  33.513  1.9930 -0.0551  0.6874
15892TIP3    H269168   1.844   3.380  33.531 -0.7577  0.3868  0.1344
15893TIP3   OH269169   1.798   3.415  29.121  0.5171 -0.3027 -0.0888
15893TIP3    H169170   1.726   3.476  29.135  1.4744  0.9253 -0.3737
15893TIP3    H269171   1.876   3.465  29.142  1.2646 -1.8140  0.8500
15894TIP3   OH269172   1.788   3.371   0.268  0.1036  0.4332 -0.2592
15894TIP3    H169173   1.786   3.467   0.261 -0.7227  0.3709 -1.1074
15894TIP3    H269174   1.713   3.349   0.323  0.4290  0.2831  0.1270
15895TIP3   OH269175   0.382   1.699   9.393 -0.4661  0.1282 -0.7037
15895TIP3    H169176   0.374   1.618   9.342  0.4692 -0.9323  0.7191
15895TIP3    H269177   0.321   1.687   9.466  2.1100 -0.9461  1.4428
15896TIP3   OH269178   2.092   1.719  34.059  0.1477  0.5096 -0.5108
15896TIP3    H169179   2.160   1.665  34.099 -1.3442 -0.9711  0.1500
15896TIP3    H269180   2.080   1.681  33.972 -1.0193 -0.3922  0.0155
15897TIP3   OH269181   3.022   0.919  29.018 -0.5721 -0.4092 -0.2332
15897TIP3    H169182   3.071   0.978  29.075 -1.9020  1.4698 -0.9472
15897TIP3    H269183   3.032   0.832  29.058  2.3791  0.0386  0.2362
15898TIP3   OH269184   3.972   2.186  39.746  0.0728 -0.4903 -0.4649
15898TIP3    H169185   3.986   2.133  39.825  3.7219 -0.3767 -0.8793
15898TIP3    H269186   4.019   2.268  39.764  0.8371 -0.3916 -2.6386
15899TIP3   OH269187   0.844   4.198   6.726  0.1662 -0.4147  0.0423
15899TIP3    H169188   0.784   4.261   6.686 -0.7189  0.1120  2.0439
15899TIP3    H269189   0.927   4.211   6.679 -0.3096  1.4130 -0.3963
15900TIP3   OH269190   2.428   1.753  31.840  0.4552  0.1706  0.0178
15900TIP3    H169191   2.349   1.743  31.893 -1.2018  0.6394 -2.1714
15900TIP3    H269192   2.497   1.711  31.891 -1.7539 -2.8230  0.8478
15901TIP3   OH269193   4.104   2.548  30.144  0.1098  0.2600 -0.0119
15901TIP3    H169194   4.143   2.618  30.092 -0.4608 -0.7236 -1.8295
15901TIP3    H269195   4.155   2.548  30.226  1.0239  1.8443 -0.5359
15902TIP3   OH269196   0.816   4.078  38.490  0.6310 -0.3944 -0.2936
15902TIP3    H169197   0.880   4.080  38.419 -1.6686  0.2808 -2.5078
15902TIP3    H269198   0.776   4.165  38.490 -2.4637 -1.6556 -1.2563
15903TIP3   OH269199   2.077   0.074   7.466 -0.2757  0.1681 -0.0510
15903TIP3    H169200   2.150   0.118   7.509  1.9570 -2.7515 -0.4985
15903TIP3    H269201   2.024   0.039   7.539 -0.0468  0.5389  0.2964
15904TIP3   OH269202   3.191   0.093   4.856  0.0846 -0.5248 -0.1594
15904TIP3    H169203   3.130   0.053   4.794  1.2800 -1.0077 -1.0370
15904TIP3    H269204   3.168   0.186   4.855  0.1592 -0.5104 -1.3949
15905TIP3   OH269205   0.944   1.287  34.819 -0.0049  0.7240 -0.4917
15905TIP3    H169206   0.850   1.289  34.836 -0.1680 -0.1450 -1.2348
15905TIP3    H269207   0.980   1.357  34.875 -0.8092 -0.2940  1.3784
15906TIP3   OH269208   2.489   3.204  12.147  0.6625  0.3066  0.1882
15906TIP3    H169209   2.461   3.295  12.140 -1.9434  0.0795  4.2281
15906TIP3    H269210   2.459   3.163  12.066 -1.1823  2.3569 -0.2499
15907TIP3   OH269211   1.749   3.064  41.472  0.1790  0.1672 -0.1702
15907TIP3    H169212   1.844   3.058  41.464 -0.0140 -2.0302 -1.7621
15907TIP3    H269213   1.732   3.158  41.484  2.3975  0.9577 -2.2769
15908TIP3   OH269214   4.014   2.089  26.461 -0.4580  0.3109  0.1703
15908TIP3    H169215   4.034   2.178  26.489  1.4346  0.3645 -1.2106
15908TIP3    H269216   4.040   2.085  26.370  0.8469 -2.0456  0.5621
15909TIP3   OH269217   1.538   2.584  11.746 -0.0729 -0.2459  0.1236
15909TIP3    H169218   1.549   2.561  11.654 -1.9034 -2.4102  0.3726
15909TIP3    H269219   1.549   2.679  11.748 -0.2113 -0.1085 -2.3627
15910TIP3   OH269220   0.231   2.807  25.779 -1.0289  0.3990  0.2227
15910TIP3    H169221   0.215   2.837  25.869 -2.9543 -0.6091  0.2634
15910TIP3    H269222   0.285   2.728  25.790 -2.2647 -0.4286  0.6243
15911TIP3   OH269223   0.606   2.347  29.131 -0.3356 -0.8652 -0.3027
15911TIP3    H169224   0.622   2.254  29.145 -0.0161 -0.5733  1.4656
15911TIP3    H269225   0.575   2.380  29.215  0.8553  0.8868 -0.4819
15912TIP3   OH269226   3.830   3.997  10.747 -0.3170  0.1794  0.0931
15912TIP3    H169227   3.913   4.023  10.787  0.6796 -1.0126 -1.0661
15912TIP3    H269228   3.781   3.955  10.818 -0.3994  1.8216  1.0433
15913TIP3   OH269229   0.222   3.020  24.906 -0.4524  0.6849 -0.5078
15913TIP3    H169230   0.196   3.060  24.989  2.0564  0.6290  0.3827
15913TIP3    H269231   0.249   3.094  24.851  2.1195  0.5206  0.3801
15914TIP3   OH269232   2.575   0.453   5.700  0.3957  0.4750 -0.5305
15914TIP3    H169233   2.608   0.519   5.761  1.1029 -0.2521 -0.1051
15914TIP3    H269234   2.647   0.390   5.692 -0.1042 -0.0166 -1.2667
15915TIP3   OH269235   1.405   3.890  13.156  0.0833  0.4443 -0.3910
15915TIP3    H169236   1.391   3.970  13.105 -0.5520  0.1170 -0.7382
15915TIP3    H269237   1.345   3.899  13.230  0.9447  0.8816  0.2801
15916TIP3   OH269238   0.587   4.178  40.146 -0.6258  0.8879  0.0684
15916TIP3    H169239   0.521   4.246  40.151 -0.5785  1.0452 -1.0514
15916TIP3    H269240   0.655   4.204  40.208 -1.7874  0.4966  1.5593
15917TIP3   OH269241   4.229   4.346   2.372  0.1793  0.2687 -0.2801
15917TIP3    H169242   4.143   4.309   2.388  0.5767  0.6534  3.8098
15917TIP3    H269243   4.284   4.271   2.348 -0.3620 -0.8624  1.7651
15918TIP3   OH269244   2.423   0.807  29.330  0.6769  0.7110  0.5519
15918TIP3    H169245   2.418   0.794  29.425 -0.8321 -1.2697  0.2795
15918TIP3    H269246   2.362   0.877  29.312  0.7811  0.9273  1.0103
15919TIP3   OH269247   3.969   1.599  30.982  0.5924 -0.2082 -0.2817
15919TIP3    H169248   3.921   1.617  31.063  0.0285 -1.9767 -0.1815
15919TIP3    H269249   4.057   1.633  30.997 -0.4298  2.6981 -0.2927
15920TIP3   OH269250   1.576   0.521  33.323 -0.1457 -0.7830  0.3215
15920TIP3    H169251   1.592   0.429  33.300  0.2016 -0.4064 -1.0683
15920TIP3    H269252   1.511   0.550  33.260  1.3183  0.4927 -0.6803
15921TIP3   OH269253   4.016   1.388   9.398  0.5220 -0.3067 -0.0621
15921TIP3    H169254   3.966   1.466   9.374 -1.7069 -0.9810  1.9644
15921TIP3    H269255   4.063   1.413   9.477  0.6898 -0.6622 -0.0457
15922TIP3   OH269256   3.173   0.211  40.428  0.1803 -0.3252 -0.2140
15922TIP3    H169257   3.140   0.168  40.349  2.4407 -0.7841 -0.9712
15922TIP3    H269258   3.218   0.142  40.476  3.0770  0.8534 -1.0051
15923TIP3   OH269259   2.355   4.244  38.639 -0.2238  0.7100 -0.2135
15923TIP3    H169260   2.261   4.234  38.650  0.0098  0.0313  1.4735
15923TIP3    H269261   2.391   4.230  38.726  1.5947 -0.7480 -1.1305
15924TIP3   OH269262   4.400   0.987  32.496 -0.4659 -0.0906 -0.0493
15924TIP3    H169263   4.475   1.020  32.546  0.0548  0.6650 -1.2835
15924TIP3    H269264   4.436   0.965  32.410 -1.3902 -1.1216 -0.1871
15925TIP3   OH269265   3.563   1.397  10.457 -0.3176 -0.0057  0.0036
15925TIP3    H169266   3.602   1.419  10.373  0.7452 -0.6189  0.3250
15925TIP3    H269267   3.498   1.466  10.472 -2.7718 -1.4975 -2.7222
15926TIP3   OH269268   0.160   3.990  20.807  0.1908  0.4865  0.2337
15926TIP3    H169269   0.115   3.907  20.800  0.7250 -0.3205  4.2382
15926TIP3    H269270   0.099   4.054  20.772 -1.1360 -1.3021 -0.8593
15927TIP3   OH269271   4.234   1.121   0.725  0.2837 -0.3836 -0.5730
15927TIP3    H169272   4.273   1.037   0.748 -1.9792 -1.9534 -2.0305
15927TIP3    H269273   4.144   1.116   0.757 -0.4160  0.7534 -2.2003
15928TIP3   OH269274   1.045   1.729   7.506  0.4810 -0.3261  0.9249
15928TIP3    H169275   1.099   1.699   7.579 -0.3825 -1.1098  1.2613
15928TIP3    H269276   0.972   1.775   7.547 -0.4275 -1.4463  0.6196
15929TIP3   OH269277   1.054   2.026  11.476  0.3119 -0.1035 -0.1112
15929TIP3    H169278   1.010   2.084  11.538 -1.2473  0.7292 -1.9122
15929TIP3    H269279   1.025   1.938  11.500  2.7798 -0.3105  2.7157
15930TIP3   OH269280   3.927   0.149  39.719  0.7559 -0.3458 -0.1826
15930TIP3    H169281   3.922   0.238  39.686  0.8243 -1.4019 -3.3778
15930TIP3    H269282   4.021   0.132  39.730  0.7194  0.1001  0.9344
15931TIP3   OH269283   2.996   0.391   1.265  0.1011 -0.1229  0.2484
15931TIP3    H169284   2.943   0.316   1.239 -1.1064  1.5069 -2.3647
15931TIP3    H269285   3.077   0.381   1.215 -0.5081  0.8195 -0.9811
15932TIP3   OH269286   0.513   0.713   4.750 -0.4052  0.2741  0.0018
15932TIP3    H169287   0.555   0.739   4.832  1.1492 -1.2100 -0.2676
15932TIP3    H269288   0.428   0.758   4.751 -0.9111 -0.5303  2.9149
15933TIP3   OH269289   4.165   0.248  29.619 -0.6505 -0.1873  0.1289
15933TIP3    H169290   4.261   0.250  29.620 -0.6619  0.7300  0.2560
15933TIP3    H269291   4.141   0.219  29.707 -0.4913 -1.5053 -0.2348
15934TIP3   OH269292   2.068   1.252  38.336 -0.3211  0.1275 -0.4213
15934TIP3    H169293   2.091   1.345  38.337  2.4001 -0.4666 -1.0215
15934TIP3    H269294   2.133   1.209  38.390 -1.7842 -1.4352  0.2104
15935TIP3   OH269295   2.371   4.225   6.835  0.3753  0.2267  0.5554
15935TIP3    H169296   2.334   4.167   6.902 -2.7604  1.5152  0.1549
15935TIP3    H269297   2.385   4.307   6.881  0.1430  0.5226  0.1023
15936TIP3   OH269298   3.865   1.257  41.422  0.0120 -0.6789  0.1301
15936TIP3    H169299   3.855   1.183  41.362 -1.8061 -0.2860 -0.1157
15936TIP3    H269300   3.806   1.237  41.494 -2.5587  1.6061 -1.1182
15937TIP3   OH269301   2.644   2.605   8.012  0.6196 -0.0451  0.3214
15937TIP3    H169302   2.697   2.531   8.043 -0.3753 -0.3629  1.3373
15937TIP3    H269303   2.573   2.612   8.076  0.5986  1.6995  0.1576
15938TIP3   OH269304   3.221   2.659   6.344 -0.5370  0.2419  0.5371
15938TIP3    H169305   3.212   2.565   6.330  0.5540  0.1542  0.2667
15938TIP3    H269306   3.233   2.669   6.438 -0.5442  0.0910  0.5534
15939TIP3   OH269307   1.076   3.021  41.499  0.4161 -0.2544 -0.0241
15939TIP3    H169308   1.063   2.944  41.443 -0.3957 -1.4626  1.7471
15939TIP3    H269309   1.074   3.094  41.438 -0.2716 -1.5145 -1.6155
15940TIP3   OH269310   1.416   1.948   1.927  0.1757  0.1619 -0.0306
15940TIP3    H169311   1.463   1.962   1.845 -0.9025  1.1384 -0.5225
15940TIP3    H269312   1.462   2.003   1.991  0.8489 -0.3839 -0.0371
15941TIP3   OH269313   4.085   0.121  31.036  0.1947  0.2150  0.2101
15941TIP3    H169314   4.012   0.107  31.097  0.4949 -0.9745  0.3191
15941TIP3    H269315   4.049   0.180  30.970 -0.1470  1.5330  1.4987
15942TIP3   OH269316   2.924   2.038  11.380 -0.2134  0.1409 -0.3251
15942TIP3    H169317   2.874   1.956  11.383 -0.8516  0.5395 -0.0705
15942TIP3    H269318   2.966   2.043  11.466 -0.8459  0.5015 -0.0367
15943TIP3   OH269319   1.893   2.788  10.041  0.1611 -0.5152 -0.8930
15943TIP3    H169320   1.813   2.789   9.987  0.8152  0.4244 -1.9043
15943TIP3    H269321   1.963   2.811   9.979  1.0506 -0.1669  0.2202
15944TIP3   OH269322   2.873   2.576  38.902 -0.5220  0.0391  0.1661
15944TIP3    H169323   2.886   2.670  38.887 -1.7382  0.1150 -0.5323
15944TIP3    H269324   2.861   2.540  38.814 -0.3753 -0.7291  0.4546
15945TIP3   OH269325   4.057   4.069   6.901  0.2909 -0.5464 -0.2177
15945TIP3    H169326   4.086   3.987   6.862  0.4466  0.0527 -1.4254
15945TIP3    H269327   4.100   4.137   6.848 -1.5067  0.3424 -0.6209
15946TIP3   OH269328   2.408   1.120   8.955 -0.4200  0.2091 -0.1944
15946TIP3    H169329   2.320   1.088   8.973 -0.6340  1.7962  1.9391
15946TIP3    H269330   2.444   1.141   9.041  1.0625  2.1007 -1.1964
15947TIP3   OH269331   3.138   1.472  35.732  0.3034  0.9306  0.4013
15947TIP3    H169332   3.202   1.503  35.668 -0.4715  0.7684 -0.4747
15947TIP3    H269333   3.178   1.392  35.768 -0.7602 -1.1028 -2.5504
15948TIP3   OH269334   3.016   3.623   4.362  0.1090  0.5686 -0.1574
15948TIP3    H169335   3.076   3.687   4.324 -0.5321 -0.0178 -2.2999
15948TIP3    H269336   2.932   3.639   4.318  0.1415 -2.2645 -1.4665
15949TIP3   OH269337   3.826   1.155  29.348  0.8394 -0.0836 -0.4201
15949TIP3    H169338   3.886   1.116  29.285 -0.4272 -1.2784 -0.9279
15949TIP3    H269339   3.801   1.083  29.406  0.8551  0.6802  0.5767
15950TIP3   OH269340   3.512   0.804  28.639 -0.6818 -0.0200 -0.1099
15950TIP3    H169341   3.574   0.876  28.628 -0.8126  0.0271 -0.5632
15950TIP3    H269342   3.507   0.791  28.734 -0.7572  0.6557 -0.0138
15951TIP3   OH269343   0.467   3.378  22.279 -0.0239  0.5724  0.8437
15951TIP3    H169344   0.511   3.357  22.361 -1.4963 -0.2994  1.4471
15951TIP3    H269345   0.408   3.450  22.301 -1.3366 -0.4850  0.8725
15952TIP3   OH269346   1.564   1.653  33.169  0.1971  0.1109  0.2720
15952TIP3    H169347   1.494   1.617  33.114  0.9795  0.6818 -1.1447
15952TIP3    H269348   1.642   1.651  33.114  1.3747 -0.6782  1.8862
15953TIP3   OH269349   4.068   3.307   3.164 -0.3104 -0.3895  0.6987
15953TIP3    H169350   4.020   3.382   3.199 -0.9418 -0.4395 -0.0283
15953TIP3    H269351   4.159   3.337   3.160 -0.5653  0.3742  0.3335
15954TIP3   OH269352   1.427   1.804  34.043 -0.0345 -0.0644 -0.0545
15954TIP3    H169353   1.401   1.877  34.098 -1.0906 -0.2311 -0.2924
15954TIP3    H269354   1.396   1.726  34.090  4.9769 -0.8827  2.4935
15955TIP3   OH269355   0.224   3.295  30.527  0.7587  0.7462 -0.6651
15955TIP3    H169356   0.296   3.231  30.527  1.3866  1.4003  1.2148
15955TIP3    H269357   0.263   3.375  30.494  0.6038  0.8039 -0.7079
15956TIP3   OH269358   1.710   3.287   3.528  0.3936  0.3375  0.0759
15956TIP3    H169359   1.712   3.379   3.557 -0.5363 -0.3829  2.6901
15956TIP3    H269360   1.676   3.239   3.603 -1.7724 -1.8504 -2.1153
15957TIP3   OH269361   0.008   2.056  39.863  0.0632 -0.0621 -0.9522
15957TIP3    H169362  -0.007   2.024  39.774  0.4965  2.0148 -1.8148
15957TIP3    H269363  -0.008   2.150  39.858  0.4357  0.1471  1.0962
15958TIP3   OH269364   1.024   3.770  35.753 -0.0046 -0.1977 -0.3371
15958TIP3    H169365   1.082   3.823  35.699 -1.0456  1.0214 -0.3103
15958TIP3    H269366   1.039   3.801  35.842 -0.4374 -0.1117 -0.2918
15959TIP3   OH269367   3.505   3.734   7.424 -0.2723 -0.1151 -0.3788
15959TIP3    H169368   3.428   3.723   7.369 -0.9170 -2.2195  0.8161
15959TIP3    H269369   3.574   3.683   7.379 -0.4837 -0.8830  0.1509
15960TIP3   OH269370   4.227   1.828  36.570 -0.1621 -0.2713 -0.2147
15960TIP3    H169371   4.307   1.776  36.555  1.0240  1.2331  0.6551
15960TIP3    H269372   4.157   1.763  36.576  1.0315 -1.6542 -0.7132
15961TIP3   OH269373   2.121   0.046  13.638  0.4578  0.0491  0.3419
15961TIP3    H169374   2.076   0.044  13.553  1.5170 -2.1534 -0.2390
15961TIP3    H269375   2.084  -0.028  13.686  0.2915  0.9251  1.6095
15962TIP3   OH269376   1.152   0.366  41.434  0.6982  0.1936  0.2855
15962TIP3    H169377   1.141   0.461  41.428  1.6463  0.3397  0.6337
15962TIP3    H269378   1.245   0.355  41.457  0.0426 -0.7083  2.7918
15963TIP3   OH269379   1.903   1.129  15.979 -0.5332 -0.0365  0.2973
15963TIP3    H169380   1.826   1.169  16.020 -0.4541  0.8703 -0.4091
15963TIP3    H269381   1.977   1.162  16.029 -0.5943 -1.1225  1.1487
15964TIP3   OH269382   0.661   0.547  41.388  0.1849  0.4025  0.1169
15964TIP3    H169383   0.648   0.481  41.456 -0.8042 -0.3330 -0.7454
15964TIP3    H269384   0.747   0.527  41.351  0.5948  0.6171  0.9092
15965TIP3   OH269385   0.318   3.844  35.244  0.2291  0.2778 -0.1726
15965TIP3    H169386   0.334   3.867  35.336  0.8082 -0.5366 -0.0597
15965TIP3    H269387   0.355   3.756  35.234 -1.7135 -0.5237 -0.6557
15966TIP3   OH269388   3.928   3.997  35.919 -0.5982 -0.6969 -0.4712
15966TIP3    H169389   3.978   4.069  35.957 -1.2921 -0.4773  0.0628
15966TIP3    H269390   3.955   3.994  35.827 -0.1129 -0.1536 -0.3480
15967TIP3   OH269391   2.955   4.013  27.764  0.4689 -0.4758  0.1457
15967TIP3    H169392   3.024   4.060  27.717  1.7654 -3.0389 -0.6707
15967TIP3    H269393   2.992   3.927  27.783 -1.7744 -1.2298  1.5807
15968TIP3   OH269394   2.380   1.173  39.889 -0.1027  0.0632 -0.1275
15968TIP3    H169395   2.421   1.260  39.885  0.6618 -0.1882  1.5147
15968TIP3    H269396   2.295   1.188  39.931 -0.2774  0.1043 -0.4893
15969TIP3   OH269397   0.534   4.290  38.150  0.3113 -0.0277  0.1619
15969TIP3    H169398   0.447   4.250  38.162 -0.2949  0.5513 -1.7966
15969TIP3    H269399   0.592   4.216  38.131 -0.1516 -0.2676 -0.3464
15970TIP3   OH269400   1.803   0.936  40.410  0.3650 -0.8419  0.1160
15970TIP3    H169401   1.847   0.852  40.396  1.2026 -0.2476 -1.0169
15970TIP3    H269402   1.723   0.930  40.358 -0.9830 -1.9248  2.1759
15971TIP3   OH269403   2.083   0.933  35.132 -0.1271  0.1763 -0.4921
15971TIP3    H169404   1.990   0.921  35.150 -0.4566 -1.1122 -2.6203
15971TIP3    H269405   2.091   1.022  35.100 -0.0407  1.3762  2.5803
15972TIP3   OH269406   3.348   2.656   8.196 -0.1566  0.1783  0.3715
15972TIP3    H169407   3.383   2.709   8.124  0.5803 -0.5938  0.1423
15972TIP3    H269408   3.425   2.623   8.241 -0.5693 -1.3028  0.0435
15973TIP3   OH269409   2.916   4.263  33.094 -0.6897  0.4640 -0.0679
15973TIP3    H169410   2.941   4.287  33.005  0.9716  0.0241  0.2595
15973TIP3    H269411   2.904   4.168  33.091 -0.7718  0.4659  0.1547
15974TIP3   OH269412   4.335   4.103  34.369 -0.0426 -0.3471 -0.2145
15974TIP3    H169413   4.278   4.027  34.379 -2.0645  0.9115 -1.3343
15974TIP3    H269414   4.387   4.084  34.291  1.9103 -1.9374  1.3781
15975TIP3   OH269415   2.642   1.631   4.237 -0.0528  0.2160 -0.4107
15975TIP3    H169416   2.561   1.673   4.267  0.8842 -0.6342  4.0198
15975TIP3    H269417   2.711   1.692   4.261  0.9430 -1.5308  1.4306
15976TIP3   OH269418   3.288   2.495  12.272 -0.7329  0.2508  0.8266
15976TIP3    H169419   3.329   2.581  12.281  3.3726 -1.2670 -0.9590
15976TIP3    H269420   3.292   2.477  12.178 -1.1477 -1.9981  1.1993
15977TIP3   OH269421   3.377   2.761  11.466 -0.8560  0.2786  1.0015
15977TIP3    H169422   3.363   2.684  11.411  1.0400 -0.6634  1.7570
15977TIP3    H269423   3.358   2.835  11.408 -0.0323 -0.7030 -0.6125
15978TIP3   OH269424   1.193   3.039  11.294 -0.0587  0.1872  0.4524
15978TIP3    H169425   1.183   2.944  11.293 -0.9171  0.2585  1.0779
15978TIP3    H269426   1.287   3.053  11.286  0.1254 -0.7283  0.8351
15979TIP3   OH269427   1.130   0.960  16.476 -0.2332 -0.0939  0.1601
15979TIP3    H169428   1.164   1.049  16.475 -0.0924 -0.1470 -0.2023
15979TIP3    H269429   1.047   0.965  16.523 -0.3179  0.2633 -0.0287
15980TIP3   OH269430   2.585   0.354  12.488 -0.2977 -0.0187 -0.0521
15980TIP3    H169431   2.660   0.399  12.448 -0.7911 -0.0541 -1.0510
15980TIP3    H269432   2.524   0.425  12.509  0.1302  0.0435  1.0619
15981TIP3   OH269433   4.337   1.138  23.132  0.0909 -0.7447  0.0608
15981TIP3    H169434   4.390   1.102  23.202 -0.5614 -1.0285  0.4195
15981TIP3    H269435   4.361   1.231  23.129  0.4436 -0.8234  0.3621
15982TIP3   OH269436   2.068   0.921  12.408  0.0875 -0.0470 -0.3553
15982TIP3    H169437   2.082   0.923  12.313 -0.3141  2.4325 -0.4245
15982TIP3    H269438   2.001   0.987  12.424  0.9938  0.4387  1.7883
15983TIP3   OH269439   4.370   1.260  30.212  0.0717  0.4722  0.7736
15983TIP3    H169440   4.461   1.284  30.229  0.4045  0.6428 -1.0742
15983TIP3    H269441   4.319   1.314  30.273  1.0979  1.9049  0.4121
15984TIP3   OH269442   1.627   0.532   7.599 -0.2890 -0.4437  0.2428
15984TIP3    H169443   1.603   0.464   7.662 -0.5113  0.1834  0.8445
15984TIP3    H269444   1.550   0.543   7.544  0.3887 -2.0361 -1.1342
15985TIP3   OH269445   4.106   2.077   8.311  0.6375 -0.0011  0.1637
15985TIP3    H169446   4.124   2.078   8.405  1.7400 -1.7366  0.0193
15985TIP3    H269447   4.183   2.036   8.272  0.4452  1.1792 -1.5892
15986TIP3   OH269448   3.607   4.000   1.963 -0.0457  0.0105  0.3343
15986TIP3    H169449   3.551   4.076   1.981 -0.5793 -0.5128  0.9269
15986TIP3    H269450   3.552   3.942   1.911  0.0023 -0.4267  0.7655
15987TIP3   OH269451   1.759   2.719   3.585  0.5408 -0.9776 -0.0634
15987TIP3    H169452   1.698   2.666   3.535 -0.2916 -0.3584  0.2757
15987TIP3    H269453   1.787   2.788   3.525  0.0756 -0.6404  0.0993
15988TIP3   OH269454   2.221   4.349  30.856 -0.2723  0.1375 -0.1639
15988TIP3    H169455   2.244   4.271  30.907  2.9680  1.2881  0.3072
15988TIP3    H269456   2.283   4.350  30.784  0.0560  2.4943  0.0801
15989TIP3   OH269457   2.038   3.795  30.392 -0.2168  0.5544 -0.4290
15989TIP3    H169458   1.985   3.867  30.359  0.2729  1.0762 -0.1016
15989TIP3    H269459   1.978   3.721  30.396 -1.2470  1.4065  1.0002
15990TIP3   OH269460   2.361   3.088  28.723 -0.4464  0.2595  0.0812
15990TIP3    H169461   2.392   2.999  28.740  0.8260  0.6406 -0.1551
15990TIP3    H269462   2.327   3.085  28.634  0.3019  0.1797 -0.2105
15991TIP3   OH269463   2.457   0.707  28.611  0.0074 -0.5922 -0.7586
15991TIP3    H169464   2.519   0.634  28.606  0.6841 -0.0374 -0.4087
15991TIP3    H269465   2.498   0.771  28.668 -1.2023 -0.5213  0.0671
15992TIP3   OH269466   0.058   2.491  39.313 -0.2686 -0.0385 -0.1946
15992TIP3    H169467  -0.025   2.521  39.350 -1.0828 -0.6707 -1.4463
15992TIP3    H269468   0.043   2.488  39.219  1.5996  1.0517 -0.5598
15993TIP3   OH269469   2.993   2.956  40.439 -0.8791  0.0605  0.0375
15993TIP3    H169470   3.036   2.897  40.501 -2.1460 -1.4903 -0.4941
15993TIP3    H269471   3.021   3.043  40.466  1.5028 -0.7759  0.5240
15994TIP3   OH269472   1.120   3.937   0.701 -0.6206  0.5305  0.4462
15994TIP3    H169473   1.032   3.899   0.709 -0.5381  0.4688  1.1221
15994TIP3    H269474   1.105   4.022   0.660 -1.1385  1.0289  1.6158
15995TIP3   OH269475   0.741   4.405  39.910 -0.6604 -0.0964  0.2263
15995TIP3    H169476   0.707   4.337  39.853 -3.0994  0.0369  1.4091
15995TIP3    H269477   0.749   4.362  39.996 -2.2264  1.0496  0.9849
15996TIP3   OH269478   3.581   3.928  32.609  0.0323  0.0896  0.1671
15996TIP3    H169479   3.652   3.876  32.570 -1.4544 -0.8914 -1.3464
15996TIP3    H269480   3.501   3.888  32.576 -1.3431 -0.0174  3.2836
15997TIP3   OH269481   0.106   0.891   6.782  0.7606  0.4769  0.0865
15997TIP3    H169482   0.082   0.971   6.734 -0.8092 -0.3586 -0.6047
15997TIP3    H269483   0.201   0.893   6.785  0.8019  1.7900 -0.9513
15998TIP3   OH269484   0.297   4.114   2.756 -0.0352 -0.0958  0.5954
15998TIP3    H169485   0.317   4.104   2.663  0.0108 -0.0579  0.6014
15998TIP3    H269486   0.283   4.208   2.768  0.5360 -0.0298  0.7458
15999TIP3   OH269487   0.824   1.760  38.865 -0.3158 -0.0712 -0.2257
15999TIP3    H169488   0.768   1.831  38.897 -0.0795 -0.0591  0.1633
15999TIP3    H269489   0.770   1.681  38.875 -0.2883 -0.0506  0.0841
16000TIP3   OH269490   0.330   4.385  12.374  1.3149 -0.2662  0.3310
16000TIP3    H169491   0.329   4.418  12.464  1.2128  0.5346  0.0416
16000TIP3    H269492   0.260   4.433  12.330  1.4025 -0.6111 -0.1966
16001TIP3   OH269493   3.003   0.619   5.417  0.6945  0.0501  0.2167
16001TIP3    H169494   3.009   0.525   5.405  0.5293  0.2231 -1.4415
16001TIP3    H269495   2.954   0.630   5.499  0.7347 -1.2849  0.4335
16002TIP3   OH269496   0.671   1.307  32.695  1.1196 -0.2794  0.6212
16002TIP3    H169497   0.710   1.240  32.753  1.1205 -0.4934  0.3745
16002TIP3    H269498   0.684   1.272  32.607  0.4553 -0.3050  0.5303
16003TIP3   OH269499   3.820   0.331  29.053  0.0688  0.4723 -0.4240
16003TIP3    H169500   3.761   0.406  29.042  0.5991  0.6795 -2.0821
16003TIP3    H269501   3.881   0.337  28.979  3.5980  1.5166  2.2733
16004TIP3   OH269502   2.383   1.193   5.252 -0.3875  0.2178  0.5433
16004TIP3    H169503   2.304   1.156   5.291 -0.7028  1.2051  0.8868
16004TIP3    H269504   2.354   1.276   5.214 -0.2035 -0.8443 -2.2028
16005TIP3   OH269505   0.490   2.306  30.274 -0.1867 -0.1978  0.3156
16005TIP3    H169506   0.505   2.258  30.355  1.9571 -2.2540 -1.1822
16005TIP3    H269507   0.475   2.238  30.208  0.3854  1.2802 -1.4202
16006TIP3   OH269508   3.357   1.780   3.755  0.0980  0.0870  0.0364
16006TIP3    H169509   3.308   1.769   3.837  0.9140 -0.5968  0.4565
16006TIP3    H269510   3.417   1.853   3.773  1.0605 -0.7771  0.4687
16007TIP3   OH269511   3.050   1.567  13.172  0.6941 -0.3811 -0.0259
16007TIP3    H169512   2.983   1.635  13.179  0.2406 -0.9893  2.1823
16007TIP3    H269513   3.117   1.593  13.235  0.9601 -1.4973  0.1663
16008TIP3   OH269514   2.746   3.386  38.936  0.1838  0.5370 -0.1763
16008TIP3    H169515   2.656   3.362  38.957 -0.7990  2.8812 -1.3502
16008TIP3    H269516   2.776   3.434  39.013  1.7474 -2.9885  1.6709
16009TIP3   OH269517   4.212   3.401  28.705 -0.0071 -0.0293 -0.4928
16009TIP3    H169518   4.277   3.470  28.709  0.3261 -0.3564 -0.1570
16009TIP3    H269519   4.227   3.358  28.620  2.6735 -2.4339  1.0069
16010TIP3   OH269520   3.129   2.126  30.863  0.1351  0.0976 -0.3903
16010TIP3    H169521   3.144   2.151  30.771  0.8112 -0.1636 -0.3545
16010TIP3    H269522   3.073   2.195  30.897  0.3981  0.5411 -0.8308
16011TIP3   OH269523   3.666   2.634   7.734 -0.4870  0.5671  0.1302
16011TIP3    H169524   3.748   2.671   7.767  0.3278  0.9561 -2.1462
16011TIP3    H269525   3.630   2.703   7.679 -2.8930  0.7660  1.8202
16012TIP3   OH269526   3.633   2.942  26.808 -0.7190  0.0789  0.4180
16012TIP3    H169527   3.647   3.036  26.818 -0.2037  0.1309 -0.6126
16012TIP3    H269528   3.602   2.912  26.893  0.5213  0.9323  1.1946
16013TIP3   OH269529   2.759   3.258  28.308  0.5666 -0.1693 -0.9003
16013TIP3    H169530   2.800   3.228  28.389  2.3065  0.1388 -1.6198
16013TIP3    H269531   2.761   3.181  28.250  1.3037  0.1810 -1.3573
16014TIP3   OH269532   1.484   1.514  32.878  0.3797  0.5828 -0.4489
16014TIP3    H169533   1.538   1.438  32.856  1.2639  1.2401 -0.6108
16014TIP3    H269534   1.398   1.494  32.841  0.9485  0.2252 -1.6349
16015TIP3   OH269535   0.212   0.066   0.399 -0.1635 -0.1070  0.0907
16015TIP3    H169536   0.298   0.053   0.359  0.5388 -2.5217  2.1320
16015TIP3    H269537   0.152   0.022   0.339  0.2685 -0.0321 -0.4123
16016TIP3   OH269538   2.163   0.372   7.290  0.0325 -0.5471  0.1268
16016TIP3    H169539   2.175   0.434   7.218  0.4192 -0.0251  0.6436
16016TIP3    H269540   2.090   0.316   7.261 -2.7303  2.2897  1.0885
16017TIP3   OH269541   3.397   0.235  35.535  0.6716  0.2388  0.3095
16017TIP3    H169542   3.409   0.216  35.442  0.3072 -0.1283  0.3331
16017TIP3    H269543   3.446   0.166  35.580  1.1990  0.6630  0.3937
16018TIP3   OH269544   3.046   1.447   4.011  0.4582  0.1210 -0.1754
16018TIP3    H169545   3.120   1.386   4.017 -0.0542 -0.4553  0.6851
16018TIP3    H269546   2.983   1.402   3.954  0.6189  0.4510 -0.6185
16019TIP3   OH269547   3.000   0.499  33.465  1.1561  0.6977 -0.2986
16019TIP3    H169548   3.041   0.434  33.408 -1.3268 -2.6452  1.3842
16019TIP3    H269549   2.925   0.530  33.414 -0.3813 -1.4185  0.5156
16020TIP3   OH269550   0.450   3.742   6.991 -0.1763 -0.8536  0.3597
16020TIP3    H169551   0.530   3.774   7.034 -0.4596 -1.4489  1.3565
16020TIP3    H269552   0.405   3.691   7.058 -1.3363 -0.6472 -0.2337
16021TIP3   OH269553   1.940   2.992  40.873 -0.0900 -0.5395 -0.8456
16021TIP3    H169554   1.868   2.974  40.933  0.0637 -1.4243 -0.9043
16021TIP3    H269555   1.899   3.030  40.796 -0.3174  0.3730 -0.2931
16022TIP3   OH269556   4.384   3.786  33.679  0.3078 -0.5649 -0.0862
16022TIP3    H169557   4.366   3.751  33.592  0.7037 -0.4824 -0.2059
16022TIP3    H269558   4.469   3.830  33.670 -0.1307  0.3432  0.0779
16023TIP3   OH269559   0.307   4.233  37.214  0.2749  0.0188 -0.5762
16023TIP3    H169560   0.245   4.218  37.143  2.4455 -1.3051 -2.3300
16023TIP3    H269561   0.299   4.326  37.234 -1.5788  0.0617 -1.3751
16024TIP3   OH269562   2.383   0.490  37.569  0.2837 -0.0080 -0.2046
16024TIP3    H169563   2.414   0.415  37.619  1.2877  0.5382  0.0386
16024TIP3    H269564   2.315   0.530  37.623 -0.5091 -0.9428 -0.5018
16025TIP3   OH269565   3.083   0.896  38.553  0.3861 -0.3740  0.0262
16025TIP3    H169566   3.062   0.929  38.640 -0.0273  2.3046 -1.0010
16025TIP3    H269567   2.998   0.879  38.512  0.5519 -0.7697 -0.1605
16026TIP3   OH269568   1.275   3.419  40.820  0.1152  0.5505 -0.7998
16026TIP3    H169569   1.235   3.494  40.776 -0.5016  1.9001  1.8319
16026TIP3    H269570   1.235   3.418  40.907  2.1218 -1.1880  0.2078
16027TIP3   OH269571   3.210   2.636   6.879 -0.4036 -0.3233  0.4889
16027TIP3    H169572   3.133   2.578   6.875 -0.4741 -0.1774 -0.8673
16027TIP3    H269573   3.184   2.707   6.937 -1.8637  0.4756 -1.0498
16028TIP3   OH269574   0.377   1.393  32.280 -0.3944  0.3078  0.2418
16028TIP3    H169575   0.376   1.449  32.202 -0.5514  0.1888  0.1579
16028TIP3    H269576   0.427   1.316  32.253 -1.5247 -0.3181 -0.1606
16029TIP3   OH269577   0.158   0.633   8.905  0.4586  0.0649  0.0326
16029TIP3    H169578   0.069   0.598   8.908  0.4657  0.0562  3.1736
16029TIP3    H269579   0.214   0.557   8.921  0.8282  0.4892  0.8374
16030TIP3   OH269580   0.094   2.265  38.279 -0.0950 -0.0033 -0.5151
16030TIP3    H169581   0.134   2.291  38.196  0.8693  0.4338  0.0699
16030TIP3    H269582   0.154   2.298  38.346 -0.2696 -1.3433  0.3380
16031TIP3   OH269583   0.134   0.065  31.056  0.9056  0.0849 -0.0692
16031TIP3    H169584   0.094   0.009  31.123  0.7468 -0.3070 -0.4848
16031TIP3    H269585   0.154   0.147  31.102  1.2044 -0.3350  0.5701
16032TIP3   OH269586   4.363   3.619  35.953  0.4189  0.0279  0.1485
16032TIP3    H169587   4.437   3.672  35.982 -0.2664  1.7233 -1.0204
16032TIP3    H269588   4.391   3.529  35.969  1.7185  0.6850  2.0327
16033TIP3   OH269589   0.536   1.351  28.542  0.1235  0.5475  0.5069
16033TIP3    H169590   0.525   1.260  28.514  0.0145  0.3317  1.2307
16033TIP3    H269591   0.456   1.395  28.512  0.0457  0.3403  0.4063
16034TIP3   OH269592   0.351   3.690   6.136  0.2346  0.4374 -0.5842
16034TIP3    H169593   0.298   3.758   6.176 -0.9564  0.1129 -1.5377
16034TIP3    H269594   0.390   3.643   6.209 -2.1199 -0.3434  0.2742
16035TIP3   OH269595   3.478   1.540  40.852  0.1452  0.4965  0.2579
16035TIP3    H169596   3.497   1.468  40.912  0.2458  0.9993  0.8349
16035TIP3    H269597   3.394   1.517  40.812  1.2889 -1.1615 -1.4120
16036TIP3   OH269598   0.441   4.003  32.552 -0.1449  0.6419  0.3509
16036TIP3    H169599   0.412   3.915  32.576 -0.3166  1.1863  2.2817
16036TIP3    H269600   0.366   4.040  32.504 -0.3482 -0.0048  0.1553
16037TIP3   OH269601   0.329   1.116  26.820 -0.0172 -0.0637 -0.2957
16037TIP3    H169602   0.417   1.151  26.832  0.7228 -1.1691 -2.1015
16037TIP3    H269603   0.283   1.184  26.770  0.3178 -0.1257 -0.6990
16038TIP3   OH269604   4.277   3.948  29.225 -0.6551  0.4548  0.0889
16038TIP3    H169605   4.222   4.016  29.264  0.2229  1.1107  0.2230
16038TIP3    H269606   4.216   3.881  29.195 -1.5031  1.0772  0.4066
16039TIP3   OH269607   2.615   4.089  38.274  0.0118 -0.3033 -0.1169
16039TIP3    H169608   2.687   4.069  38.334 -0.3645  0.8118  0.7469
16039TIP3    H269609   2.543   4.115  38.331 -0.4762  0.4489 -1.0494
16040TIP3   OH269610   4.387   1.788  12.934 -0.4523 -1.0441 -0.1604
16040TIP3    H169611   4.434   1.741  12.865 -0.3549 -0.4268 -0.5177
16040TIP3    H269612   4.296   1.759  12.925 -0.8354  0.5328 -1.8633
16041TIP3   OH269613   1.927   3.183   0.450  0.1236  0.5501  0.0146
16041TIP3    H169614   1.839   3.205   0.419  0.1938  1.8472  0.6538
16041TIP3    H269615   1.961   3.121   0.385 -1.2797 -0.0427 -0.1926
16042TIP3   OH269616   0.248   1.841   4.082 -0.1119 -0.1386 -0.1528
16042TIP3    H169617   0.302   1.769   4.116 -2.9668 -1.4429  2.1878
16042TIP3    H269618   0.213   1.808   3.999 -0.3589 -0.9514  0.2618
16043TIP3   OH269619   3.939   3.533  37.874 -0.0559 -0.0828 -0.3146
16043TIP3    H169620   3.923   3.517  37.967 -2.7899  2.6724 -0.1365
16043TIP3    H269621   3.861   3.498  37.830  0.9206 -0.8096 -1.5491
16044TIP3   OH269622   3.196   1.874   4.713 -0.1440 -0.4801  0.6036
16044TIP3    H169623   3.200   1.908   4.802 -0.6955 -0.9249  0.8028
16044TIP3    H269624   3.102   1.865   4.695 -0.0894  0.7746 -0.4682
16045TIP3   OH269625   4.257   3.052  37.226  0.5745 -0.2632 -0.2697
16045TIP3    H169626   4.289   2.986  37.287 -1.1012  0.1394  1.1139
16045TIP3    H269627   4.308   3.131  37.246 -0.6364  0.1556  1.3770
16046TIP3   OH269628   2.822   0.446   9.271 -0.2338 -0.0729  0.0479
16046TIP3    H169629   2.911   0.462   9.302  0.0231  1.5142 -1.3622
16046TIP3    H269630   2.783   0.533   9.264 -1.9874 -0.7489  0.8212
16047TIP3   OH269631   3.513   0.484   3.847  0.1218 -0.2954 -0.2153
16047TIP3    H169632   3.527   0.539   3.925 -1.0480  1.3082 -1.0702
16047TIP3    H269633   3.601   0.462   3.818  0.6217  0.4683  0.6393
16048TIP3   OH269634   4.098   2.028  37.564  0.7619  0.4666  0.7611
16048TIP3    H169635   4.009   2.007  37.537  1.1221 -2.3205  1.4745
16048TIP3    H269636   4.091   2.047  37.658  1.2915 -3.5337  1.7728
16049TIP3   OH269637   4.404   2.399   6.146 -0.7065 -0.3756  0.3142
16049TIP3    H169638   4.345   2.474   6.144  0.4869  0.5922 -1.3965
16049TIP3    H269639   4.477   2.427   6.201 -1.3415 -1.2255  1.6565
16050TIP3   OH269640   1.856   0.082   0.934  0.1077 -0.5436  0.0395
16050TIP3    H169641   1.892   0.060   0.848 -0.2050 -1.2539  0.0850
16050TIP3    H269642   1.838  -0.002   0.975 -0.1338 -0.2068  0.6409
16051TIP3   OH269643   1.914   2.740   6.927 -0.0458 -0.0504 -0.1301
16051TIP3    H169644   2.009   2.750   6.934 -0.1351  0.3168  0.5827
16051TIP3    H269645   1.902   2.695   6.843  0.6910  0.8978 -0.7776
16052TIP3   OH269646   1.075   4.374   2.009 -0.5126  0.1513 -0.2125
16052TIP3    H169647   1.169   4.389   2.011 -0.7028  1.4412  1.8317
16052TIP3    H269648   1.061   4.298   2.065 -0.7467  0.4135  0.0879
16053TIP3   OH269649   4.066   3.657  40.223  0.0296 -0.2694 -0.3897
16053TIP3    H169650   3.999   3.603  40.263  0.4623  1.4647  3.0066
16053TIP3    H269651   4.028   3.745  40.221  1.3420  0.3226 -0.6261
16054TIP3   OH269652   0.555   0.010   6.166 -0.4460 -0.3500 -0.2976
16054TIP3    H169653   0.496  -0.025   6.099 -1.4683  1.0816 -0.1972
16054TIP3    H269654   0.609  -0.064   6.192 -1.5339 -1.4684 -1.1150
16055TIP3   OH269655   2.480   3.060   2.663 -0.5825 -0.0030 -0.1336
16055TIP3    H169656   2.513   3.138   2.708 -1.9688  0.0222  0.9250
16055TIP3    H269657   2.474   3.086   2.571  0.0024  0.7744  0.0329
16056TIP3   OH269658   3.124   2.507   2.560  0.3247  0.1576 -0.1535
16056TIP3    H169659   3.084   2.524   2.475 -0.1382 -1.3442 -0.2630
16056TIP3    H269660   3.109   2.414   2.575  0.4628  0.3868  1.5539
16057TIP3   OH269661   2.027   3.455   1.534  0.0293  0.0233  0.3074
16057TIP3    H169662   1.939   3.440   1.568  0.3328  1.0276  1.5938
16057TIP3    H269663   2.062   3.367   1.519 -0.3622 -0.4603  2.0272
16058TIP3   OH269664   0.067   2.287   2.146 -0.0381  0.1599  0.1062
16058TIP3    H169665   0.033   2.376   2.142 -0.2769  0.0605 -0.1044
16058TIP3    H269666   0.075   2.260   2.055 -1.9032 -0.7601  0.1513
16059TIP3   OH269667   3.537   3.279  30.996 -0.0728 -0.1661 -0.5289
16059TIP3    H169668   3.454   3.256  30.953  0.4443 -0.1270 -1.5785
16059TIP3    H269669   3.519   3.270  31.089 -1.3150  0.0209 -0.7324
16060TIP3   OH269670   1.526   2.095  33.247  0.1329  0.2076 -0.2242
16060TIP3    H169671   1.475   2.176  33.243  0.4573  0.4150 -0.1879
16060TIP3    H269672   1.461   2.026  33.240 -0.2268  0.4579  0.5941
16061TIP3   OH269673   2.492   0.389  37.813 -0.5526 -0.2630  0.2928
16061TIP3    H169674   2.511   0.331  37.886 -0.0860 -0.8193 -0.2597
16061TIP3    H269675   2.562   0.454  37.815  0.2658 -1.0963 -0.4895
16062TIP3   OH269676   2.627   2.247   3.098  0.0668 -0.2210  0.5293
16062TIP3    H169677   2.633   2.286   3.010  0.7452 -1.9350 -0.2366
16062TIP3    H269678   2.586   2.315   3.151 -2.3196  0.1341 -1.5788
16063TIP3   OH269679   0.803   3.820  13.524  0.8222  0.7250 -0.0242
16063TIP3    H169680   0.778   3.850  13.611  0.5022 -1.3869  0.6715
16063TIP3    H269681   0.875   3.877  13.499  0.5363  1.7509  1.3716
16064TIP3   OH269682   2.323   2.057   2.790 -0.5621 -0.2421 -0.3953
16064TIP3    H169683   2.379   2.003   2.734  0.1117  0.0157  0.0174
16064TIP3    H269684   2.362   2.051   2.877 -1.3690 -0.3149 -0.0320
16065TIP3   OH269685   2.920   1.734   1.370  0.0874 -0.3557 -0.0720
16065TIP3    H169686   2.828   1.711   1.372 -0.3452  1.0347 -1.8455
16065TIP3    H269687   2.934   1.784   1.451 -0.5408 -1.0838  0.4987
16066TIP3   OH269688   2.021   1.270   7.596 -0.1846  0.1938 -0.2452
16066TIP3    H169689   1.939   1.231   7.625 -0.9000  0.3796 -1.8977
16066TIP3    H269690   2.089   1.218   7.639 -1.1540 -1.1146 -0.2317
16067TIP3   OH269691   4.117   1.505  31.665  0.1680 -0.1249  1.0084
16067TIP3    H169692   4.148   1.575  31.608  1.5845  0.4935  2.4789
16067TIP3    H269693   4.073   1.443  31.606 -0.4446  1.5973 -0.4110
16068TIP3   OH269694   1.498   4.251  37.692 -0.2006  0.0186 -0.1385
16068TIP3    H169695   1.530   4.163  37.674  0.9623  0.1906  0.9791
16068TIP3    H269696   1.445   4.273  37.615 -1.0690 -1.8954 -0.1445
16069TIP3   OH269697   3.734   3.346  35.240  0.5835 -0.1254 -0.6481
16069TIP3    H169698   3.728   3.325  35.333  2.2180  2.3662  0.1247
16069TIP3    H269699   3.808   3.296  35.207  3.3169  2.6788  0.7376
16070TIP3   OH269700   1.276   1.652  39.737  0.1799 -0.5957 -0.5356
16070TIP3    H169701   1.259   1.698  39.655 -2.2584 -1.1928 -0.4196
16070TIP3    H269702   1.341   1.586  39.715 -0.4830 -0.7816 -2.0171
16071TIP3   OH269703   4.269   3.049  23.491  0.3359 -0.0142  0.0326
16071TIP3    H169704   4.252   3.079  23.402 -1.3736  0.4493  0.4715
16071TIP3    H269705   4.305   3.126  23.535 -1.4981  0.6717  0.4430
16072TIP3   OH269706   0.877   0.414  35.947 -0.0678  0.4356  0.2793
16072TIP3    H169707   0.829   0.491  35.917  1.3684  1.7467  1.1987
16072TIP3    H269708   0.925   0.444  36.024  1.3445 -1.1091  0.0607
16073TIP3   OH269709   1.125   3.950  38.905  0.7192  0.2160 -0.4250
16073TIP3    H169710   1.068   3.978  38.834 -0.4797  1.3437  0.9105
16073TIP3    H269711   1.213   3.968  38.874  0.2646  0.0104 -1.8909
16074TIP3   OH269712   4.377   2.979  10.256  0.1996 -0.1997 -0.0569
16074TIP3    H169713   4.401   3.042  10.188  2.0718  0.0701  0.7900
16074TIP3    H269714   4.461   2.946  10.290 -0.6837 -1.0193  1.4686
16075TIP3   OH269715   3.056   1.654  28.036 -0.3570 -0.1576  1.1750
16075TIP3    H169716   3.070   1.748  28.049 -1.7131 -0.0365  1.8983
16075TIP3    H269717   3.142   1.615  28.053  0.4527  1.0060  0.0079
16076TIP3   OH269718   2.172   2.715  10.762 -0.3692 -0.2315  0.4164
16076TIP3    H169719   2.266   2.727  10.775 -0.7971  1.0145  2.9646
16076TIP3    H269720   2.165   2.668  10.678  2.4421  0.3690 -0.2511
16077TIP3   OH269721   0.832   0.607  36.616  1.2387  0.0783 -0.6239
16077TIP3    H169722   0.904   0.604  36.679  3.2635  1.6052 -2.7389
16077TIP3    H269723   0.801   0.697  36.620 -0.4955 -0.4913  0.0716
16078TIP3   OH269724   3.929   2.287   7.090  0.1430 -0.1985  0.2009
16078TIP3    H169725   3.838   2.319   7.089 -0.0192 -0.6146  0.6897
16078TIP3    H269726   3.979   2.358   7.128  0.4929  1.1352 -2.5334
16079TIP3   OH269727   2.366   0.249   9.267 -0.1332  0.6706 -0.1025
16079TIP3    H169728   2.430   0.179   9.254 -0.9451 -0.5928  2.0975
16079TIP3    H269729   2.349   0.248   9.361 -2.3677  1.9012 -0.4303
16080TIP3   OH269730   1.090   1.549   9.695  0.5563  0.3764  0.2860
16080TIP3    H169731   1.110   1.508   9.779  3.0778  0.2911 -0.2652
16080TIP3    H269732   0.997   1.533   9.681  0.7645 -2.4910  1.5363
16081TIP3   OH269733   2.960   4.187  40.619 -0.3402 -0.1900 -0.2466
16081TIP3    H169734   2.911   4.202  40.538 -0.1023  0.4921 -0.2718
16081TIP3    H269735   2.947   4.267  40.669  0.2719 -0.2382 -0.0068
16082TIP3   OH269736   3.329   0.962  30.866  0.4104  0.1100  0.5572
16082TIP3    H169737   3.264   1.028  30.886  0.8387  0.2837  1.4283
16082TIP3    H269738   3.306   0.888  30.922  0.4817 -0.1348  0.2664
16083TIP3   OH269739   2.065   0.968  15.037 -0.1494  0.7012  0.6321
16083TIP3    H169740   2.114   0.944  15.116  0.1105 -1.6732 -0.1494
16083TIP3    H269741   1.993   0.906  15.035  0.5318 -0.1038 -1.5879
16084TIP3   OH269742   3.048   0.098   2.885  0.3359 -0.2972  0.2454
16084TIP3    H169743   3.003   0.107   2.802 -0.7190 -0.8343  0.7314
16084TIP3    H269744   3.141   0.096   2.863  0.0251 -2.0029 -1.0852
16085TIP3   OH269745   4.192   3.646  25.107 -0.1264 -0.6357  0.1492
16085TIP3    H169746   4.187   3.657  25.202  2.0083 -2.4537  0.5623
16085TIP3    H269747   4.261   3.705  25.079  0.0713 -0.9740 -0.0832
16086TIP3   OH269748   4.211   1.076  30.815 -0.0160  0.1134  0.3450
16086TIP3    H169749   4.176   1.138  30.751 -0.4168  1.3755  1.7119
16086TIP3    H269750   4.138   1.016  30.833 -0.5389  0.9111  0.9772
16087TIP3   OH269751   3.381   3.164  10.162  0.1926  0.1248 -0.5506
16087TIP3    H169752   3.328   3.241  10.141 -0.4580  0.0184  0.5969
16087TIP3    H269753   3.421   3.138  10.079 -0.7293  0.8378 -1.2347
16088TIP3   OH269754   0.840   0.244  32.484 -0.1113  0.1611  0.2934
16088TIP3    H169755   0.813   0.328  32.447 -0.4591  0.0025  0.1836
16088TIP3    H269756   0.772   0.223  32.548  0.6688  0.6043  1.3003
16089TIP3   OH269757   0.406   1.747  27.547 -0.7747 -0.4072 -0.6023
16089TIP3    H169758   0.354   1.760  27.627  1.9302 -1.1869  1.4402
16089TIP3    H269759   0.451   1.830  27.534 -0.4814 -0.5869 -0.7435
16090TIP3   OH269760   3.130   0.722   1.711 -0.2566 -1.0219  0.4006
16090TIP3    H169761   3.200   0.742   1.648 -1.4148  0.7259 -0.4092
16090TIP3    H269762   3.050   0.753   1.669 -1.1501 -0.2133  2.5418
16091TIP3   OH269763   1.537   3.062  27.805 -0.6278  0.4064  0.3736
16091TIP3    H169764   1.488   3.030  27.881 -2.0859  0.3053 -0.5581
16091TIP3    H269765   1.540   2.988  27.746  0.1078  0.6157  0.1496
16092TIP3   OH269766   1.428   2.920  14.514 -0.4672 -0.4396  0.2176
16092TIP3    H169767   1.404   2.871  14.436  1.1247 -0.7793 -0.0876
16092TIP3    H269768   1.361   2.896  14.579 -0.6934 -1.6703 -0.4504
16093TIP3   OH269769   2.004   1.557  39.729 -0.1100 -0.3483 -0.0475
16093TIP3    H169770   2.048   1.567  39.645 -1.0384  1.6503 -0.3642
16093TIP3    H269771   1.952   1.477  39.719  0.1481 -0.3971 -1.2006
16094TIP3   OH269772   4.098   0.572  10.723 -0.4108  0.3822 -0.1320
16094TIP3    H169773   4.129   0.622  10.648 -0.9854  0.7669 -0.1185
16094TIP3    H269774   4.140   0.613  10.799  1.1200 -0.7571 -0.3276
16095TIP3   OH269775   1.361   4.240   6.592  0.1867  0.0088 -0.2363
16095TIP3    H169776   1.368   4.285   6.677  0.7427  0.9211 -0.7435
16095TIP3    H269777   1.435   4.274   6.542  0.3300 -1.1273 -0.8195
16096TIP3   OH269778   4.061   0.837  12.602  0.0400  0.2582 -0.2415
16096TIP3    H169779   4.053   0.799  12.514 -0.8540  0.8606 -0.4380
16096TIP3    H269780   4.069   0.762  12.660 -0.2666 -0.1825 -0.7585
16097TIP3   OH269781   1.119   2.088  16.189  0.5919  0.1677  0.3794
16097TIP3    H169782   1.200   2.073  16.140  1.2700 -0.4315  1.6394
16097TIP3    H269783   1.130   2.038  16.270 -1.2120 -0.2393  0.4118
16098TIP3   OH269784   1.755   1.700  41.307 -0.5885 -0.2410  0.8545
16098TIP3    H169785   1.822   1.681  41.373  0.1459 -2.3578 -0.3929
16098TIP3    H269786   1.802   1.749  41.239 -0.6530 -0.4906  0.6300
16099TIP3   OH269787   0.819   4.185  29.786  0.6163 -0.3758  0.5074
16099TIP3    H169788   0.852   4.238  29.714  1.5229 -0.5817  0.7658
16099TIP3    H269789   0.888   4.186  29.851  1.1966 -2.7952  0.0563
16100TIP3   OH269790   4.346   3.112  26.661  0.0648 -0.3772  0.8301
16100TIP3    H169791   4.269   3.075  26.706  0.7964 -0.2868  2.2109
16100TIP3    H269792   4.409   3.040  26.660 -0.1992 -0.6242 -0.7959
16101TIP3   OH269793   4.312   0.579   1.816 -0.6646 -0.2493 -0.1297
16101TIP3    H169794   4.372   0.590   1.742 -0.1808 -0.8577  0.1618
16101TIP3    H269795   4.291   0.668   1.844 -0.6521 -0.0184 -0.8391
16102TIP3   OH269796   0.967   3.357  28.222 -0.0088  0.4299 -0.0559
16102TIP3    H169797   0.896   3.351  28.158 -0.1587 -1.5701  0.2462
16102TIP3    H269798   1.005   3.269  28.225  0.2245  0.5398  2.3424
16103TIP3   OH269799   2.188   3.616  32.644  0.1695 -0.3502  0.1443
16103TIP3    H169800   2.098   3.587  32.658  0.3935 -0.8525  0.6201
16103TIP3    H269801   2.230   3.541  32.602  0.1825  0.1588 -0.7741
16104TIP3   OH269802   3.460   2.068  34.893 -0.9879 -0.2344 -0.2574
16104TIP3    H169803   3.384   2.098  34.943 -0.7619 -1.7956  1.1124
16104TIP3    H269804   3.536   2.097  34.944 -0.6040  1.2666 -1.5893
16105TIP3   OH269805   3.247   1.473   0.229 -0.6881 -0.1613  0.0202
16105TIP3    H169806   3.176   1.535   0.209  0.6485  1.5984  0.4282
16105TIP3    H269807   3.327   1.520   0.205  0.4769 -1.1111  1.8265
16106TIP3   OH269808   3.442   2.230  35.549  0.3874  0.1160  0.2938
16106TIP3    H169809   3.362   2.261  35.592 -0.0674 -1.8974  1.0094
16106TIP3    H269810   3.412   2.196  35.465  0.9717  2.0922 -0.7687
16107TIP3   OH269811   0.512   1.213   2.826 -0.0452  0.2485 -0.0778
16107TIP3    H169812   0.482   1.303   2.827  1.1817  0.6802 -0.0812
16107TIP3    H269813   0.581   1.210   2.893  0.3496 -0.5256 -0.5070
16108TIP3   OH269814   3.357   1.374  36.856 -0.2849  0.0211 -0.6069
16108TIP3    H169815   3.407   1.298  36.827  0.1963  0.6194 -1.3880
16108TIP3    H269816   3.423   1.433  36.893 -0.5187  0.4823 -0.9238
16109TIP3   OH269817   3.761   2.486   3.420 -0.1293  0.1962  0.1385
16109TIP3    H169818   3.826   2.557   3.419  0.1860 -0.0757 -1.4367
16109TIP3    H269819   3.802   2.416   3.369 -1.5711 -0.0497 -0.7261
16110TIP3   OH269820   3.945   1.091  31.281 -0.2556  0.1985 -0.2659
16110TIP3    H169821   3.934   1.091  31.376 -1.4800  1.6344 -0.3670
16110TIP3    H269822   3.951   0.999  31.258 -2.1400 -0.3140  0.9905
16111TIP3   OH269823   3.780   3.993  33.301  0.6632  0.1849 -0.1111
16111TIP3    H169824   3.768   4.001  33.395  1.4698  0.6208 -0.0339
16111TIP3    H269825   3.697   3.958  33.269 -0.2379  1.6560  0.5367
16112TIP3   OH269826   0.411   2.692  30.919  0.2003  0.1428  0.1806
16112TIP3    H169827   0.464   2.770  30.899  0.0226  0.4413  0.8590
16112TIP3    H269828   0.469   2.636  30.971  0.4905 -0.4073 -0.7022
16113TIP3   OH269829   3.564   1.348  29.092 -0.1218  0.4784 -0.0424
16113TIP3    H169830   3.652   1.352  29.129  0.3586 -1.6692 -0.8373
16113TIP3    H269831   3.576   1.367  28.999 -0.4705  0.0449 -0.1806
16114TIP3   OH269832   1.453   1.699  27.446 -0.0737 -0.4419  0.3193
16114TIP3    H169833   1.365   1.733  27.463  0.1636 -0.3845  1.5564
16114TIP3    H269834   1.505   1.776  27.425 -0.9023 -0.7348 -3.4947
16115TIP3   OH269835   3.791   1.791  24.475  0.3989  0.3272 -0.0687
16115TIP3    H169836   3.758   1.845  24.547 -3.9327 -1.0709 -0.7369
16115TIP3    H269837   3.781   1.846  24.397 -4.9794 -1.2848 -0.9069
16116TIP3   OH269838   0.179   1.605  31.788  0.1269 -0.1323 -0.0592
16116TIP3    H169839   0.112   1.542  31.760 -0.4263  0.6871 -0.6173
16116TIP3    H269840   0.230   1.558  31.854 -0.9187 -0.8087  0.2818
16117TIP3   OH269841   1.201   1.150   7.341 -0.3862  0.0955 -0.1509
16117TIP3    H169842   1.187   1.185   7.253 -0.1714 -0.1616 -0.2884
16117TIP3    H269843   1.224   1.227   7.394  2.5719 -0.1108 -0.9668
16118TIP3   OH269844   3.668   4.249   8.828 -0.3058 -0.2058 -0.4209
16118TIP3    H169845   3.737   4.247   8.893  1.4001 -1.1408 -2.1570
16118TIP3    H269846   3.597   4.199   8.867  0.5082 -0.3907  0.8695
16119TIP3   OH269847   0.418   1.105  37.420 -0.0851  0.2108  0.3731
16119TIP3    H169848   0.465   1.147  37.349 -1.5665 -1.2633 -1.5925
16119TIP3    H269849   0.353   1.169  37.448  0.3245  0.6941  0.2200
16120TIP3   OH269850   3.088   2.048   1.946  0.4556 -0.2156 -0.0692
16120TIP3    H169851   3.089   2.111   1.874  0.1179  0.7998  0.7811
16120TIP3    H269852   3.166   1.995   1.932  0.1779 -0.3032 -1.4009
16121TIP3   OH269853   1.988   0.422   0.251  0.2009 -0.1027 -0.0563
16121TIP3    H169854   1.937   0.342   0.259 -1.0413  0.6508 -0.0164
16121TIP3    H269855   1.967   0.472   0.330 -1.0980  1.3437 -1.2261
16122TIP3   OH269856   0.306   2.711  35.561 -0.1199 -0.4665  0.8186
16122TIP3    H169857   0.263   2.625  35.563 -0.0690 -0.5747  4.1262
16122TIP3    H269858   0.245   2.768  35.609  0.9674  0.7022  0.8513
16123TIP3   OH269859   1.777   1.493  31.351 -0.0358 -0.2443  0.0616
16123TIP3    H169860   1.759   1.553  31.423  1.5601  0.0270  0.2712
16123TIP3    H269861   1.872   1.495  31.341 -0.0930 -1.4728 -1.0296
16124TIP3   OH269862   3.443   4.145  10.571  0.5405  0.1555 -0.4719
16124TIP3    H169863   3.390   4.083  10.620  0.2385  0.4063 -0.4800
16124TIP3    H269864   3.438   4.226  10.623  2.6315 -0.3784  0.6893
16125TIP3   OH269865   0.439   3.955  13.639 -0.1978  0.3179  0.2120
16125TIP3    H169866   0.354   3.925  13.670 -1.5369  0.7435 -2.6893
16125TIP3    H269867   0.430   4.050  13.633  0.4099  0.3516 -0.2820
16126TIP3   OH269868   0.082   0.956  33.244 -0.0794  0.1662  0.3212
16126TIP3    H169869  -0.010   0.968  33.220 -0.6796 -1.8869  1.3785
16126TIP3    H269870   0.122   1.041  33.227 -2.0549  0.9806 -0.6219
16127TIP3   OH269871   2.117   2.141   2.513 -0.0787  0.3439  0.1415
16127TIP3    H169872   2.168   2.067   2.547 -1.4943 -1.1613 -0.8987
16127TIP3    H269873   2.142   2.146   2.421 -1.9796 -0.6333 -0.4699
16128TIP3   OH269874   0.436   1.772   0.532 -0.2461  0.1521 -0.6020
16128TIP3    H169875   0.505   1.745   0.472  0.2467 -0.3158  0.1451
16128TIP3    H269876   0.368   1.705   0.523 -0.1208  0.0185 -0.5647
16129TIP3   OH269877   0.041   2.555  32.934 -0.0503 -0.6216 -0.0135
16129TIP3    H169878   0.083   2.500  33.000  1.1273 -0.3934 -0.5632
16129TIP3    H269879   0.002   2.493  32.872 -2.9028 -0.9099  1.8598
16130TIP3   OH269880   0.306   0.089   4.646 -0.5279  0.7502  0.2168
16130TIP3    H169881   0.296   0.090   4.741  1.8421  0.6218  0.5109
16130TIP3    H269882   0.354   0.008   4.627  0.1710  1.4120 -0.9498
16131TIP3   OH269883   3.333   1.527   7.179 -0.1824  0.5483 -0.4538
16131TIP3    H169884   3.396   1.543   7.249  0.6013 -0.3849 -0.9309
16131TIP3    H269885   3.360   1.444   7.140 -0.2186  1.3439 -2.2809
16132TIP3   OH269886   3.810   0.601  23.964  0.0368  0.2980 -0.2010
16132TIP3    H169887   3.720   0.572  23.948  0.2919  0.1637 -1.5184
16132TIP3    H269888   3.829   0.572  24.053 -1.2060  0.3101  0.0925
16133TIP3   OH269889   3.157   0.746   0.759  0.0264 -0.1341 -0.2236
16133TIP3    H169890   3.115   0.664   0.785 -1.0664  0.0250 -1.3627
16133TIP3    H269891   3.166   0.739   0.664  1.3728  0.4241 -0.1659
16134TIP3   OH269892   1.211   2.453  32.015  0.8775  0.0024  0.0283
16134TIP3    H169893   1.133   2.439  31.962  0.5097  1.1764  0.2452
16134TIP3    H269894   1.273   2.496  31.956  0.4579  1.3366  0.5360
16135TIP3   OH269895   0.970   2.796  39.419 -0.2109 -0.2962 -0.3040
16135TIP3    H169896   1.038   2.730  39.404 -1.1565 -1.2575 -0.4866
16135TIP3    H269897   0.892   2.745  39.441 -0.5248  0.8341  1.3585
16136TIP3   OH269898   1.859   0.322  39.565  0.1980 -0.7124 -0.7925
16136TIP3    H169899   1.905   0.344  39.646 -0.9255  0.5320 -0.4578
16136TIP3    H269900   1.914   0.357  39.495  1.4872 -2.3393 -0.6428
16137TIP3   OH269901   1.913   1.858  10.371  0.1008  0.1805 -0.3005
16137TIP3    H169902   1.859   1.937  10.367 -0.5743 -0.2834 -0.4707
16137TIP3    H269903   1.853   1.787  10.350  0.8992 -0.2917 -1.0289
16138TIP3   OH269904   3.885   3.130   8.666 -0.0861  0.1866  0.0991
16138TIP3    H169905   3.853   3.184   8.594 -0.5910  1.9814  1.5817
16138TIP3    H269906   3.839   3.047   8.657 -1.3759  0.9579 -0.6960
16139TIP3   OH269907   3.308   0.317   6.918  0.1326 -0.0678 -0.1993
16139TIP3    H169908   3.286   0.230   6.885  1.0176 -1.3401  2.3024
16139TIP3    H269909   3.257   0.326   6.998  0.1289  1.7082 -0.3690
16140TIP3   OH269910   2.160   3.312  39.568  0.0676  0.0675 -0.0654
16140TIP3    H169911   2.246   3.277  39.543 -0.4697 -1.0684 -0.3512
16140TIP3    H269912   2.164   3.317  39.664 -0.0344 -1.3242  0.0296
16141TIP3   OH269913   4.390   1.229   7.749 -0.0175 -0.0725  0.1344
16141TIP3    H169914   4.467   1.241   7.805  0.0668 -0.0194  0.0080
16141TIP3    H269915   4.332   1.301   7.773 -0.5528 -0.8124  1.0992
16142TIP3   OH269916   3.376   1.005  12.435  0.1827  0.8018 -0.0105
16142TIP3    H169917   3.295   1.002  12.485  1.5454  1.1781  2.3651
16142TIP3    H269918   3.399   0.913  12.421  0.0390  0.6788  0.5287
16143TIP3   OH269919   0.858   0.057  14.941 -0.1444 -0.3817 -0.2734
16143TIP3    H169920   0.782   0.088  14.892  0.3010  0.2638 -0.5732
16143TIP3    H269921   0.879   0.129  15.001  0.9529 -0.0388 -1.0378
16144TIP3   OH269922   1.539   4.027   3.748  0.1232  0.5908 -0.4323
16144TIP3    H169923   1.632   4.038   3.765  0.1933  0.1741 -0.5355
16144TIP3    H269924   1.501   4.001   3.833  0.1559  0.4251 -0.4687
16145TIP3   OH269925   0.718   1.509   4.038  0.1087 -0.0873  0.1927
16145TIP3    H169926   0.799   1.499   4.087 -0.2349  0.8969  1.0058
16145TIP3    H269927   0.667   1.431   4.060  0.1937  0.0671  0.9525
16146TIP3   OH269928   0.378   3.837  10.612 -0.5669 -0.1345  0.1139
16146TIP3    H169929   0.303   3.806  10.560 -0.2361 -1.5235  0.4297
16146TIP3    H269930   0.351   3.923  10.643 -1.7660 -0.3256 -0.3356
16147TIP3   OH269931   1.282   0.777  30.367 -0.3781 -0.7571  0.3656
16147TIP3    H169932   1.238   0.862  30.378 -0.0256 -0.6590  1.0638
16147TIP3    H269933   1.219   0.723  30.320 -0.1536  0.2675 -1.1741
16148TIP3   OH269934   4.249   4.162  27.763 -0.0274 -0.4929 -0.3872
16148TIP3    H169935   4.335   4.183  27.798 -0.2767 -1.2026  0.7163
16148TIP3    H269936   4.242   4.213  27.682  1.6817 -0.9524 -0.8531
16149TIP3   OH269937   3.299   0.899  32.467 -0.2646 -0.8012  0.1246
16149TIP3    H169938   3.279   0.901  32.561 -0.5740 -1.6603  0.0818
16149TIP3    H269939   3.389   0.868  32.462  0.4054  1.0226  0.2143
16150TIP3   OH269940   2.168   4.241   2.745 -0.6743  0.2094 -0.0035
16150TIP3    H169941   2.114   4.232   2.667 -0.4054 -1.8863  0.0084
16150TIP3    H269942   2.106   4.243   2.818 -0.8229 -0.1918 -0.1193
16151TIP3   OH269943   3.294   1.691  40.669  0.1390  0.5582  0.1876
16151TIP3    H169944   3.359   1.726  40.729 -0.0468  1.0820  0.0855
16151TIP3    H269945   3.210   1.713  40.708  0.0102 -0.5298  0.5569
16152TIP3   OH269946   2.197   3.940  27.983 -0.1978  0.2668  0.1305
16152TIP3    H169947   2.115   3.901  27.953 -0.4405 -0.0638  1.1861
16152TIP3    H269948   2.171   3.995  28.057  0.3847  1.1005 -0.2629
16153TIP3   OH269949   3.329   4.140  32.659  0.3706  0.0899 -0.6913
16153TIP3    H169950   3.386   4.214  32.680  0.4778 -0.4590  1.0908
16153TIP3    H269951   3.356   4.113  32.571  1.2547  1.2981 -0.8185
16154TIP3   OH269952   2.544   4.144  29.571 -0.4660  0.0826 -0.2357
16154TIP3    H169953   2.554   4.059  29.612 -2.1964 -0.5070 -0.9470
16154TIP3    H269954   2.468   4.183  29.614 -0.4284  0.7489 -0.7545
16155TIP3   OH269955   0.823   3.908  11.849 -0.7855 -0.7613 -0.1990
16155TIP3    H169956   0.864   3.822  11.850 -0.0607 -0.4250  0.4558
16155TIP3    H269957   0.731   3.891  11.827 -0.5321 -1.6336 -0.6366
16156TIP3   OH269958   1.239   4.347  16.873  0.0710 -0.3343 -0.1626
16156TIP3    H169959   1.192   4.425  16.844 -2.1516 -1.4981  0.1551
16156TIP3    H269960   1.316   4.382  16.918  0.2048  1.6105 -1.7259
16157TIP3   OH269961   0.927   2.582  39.791 -0.2299  0.0418  0.5676
16157TIP3    H169962   0.976   2.523  39.849 -1.0508 -0.1594  1.0842
16157TIP3    H269963   0.988   2.653  39.772  1.3115 -1.6251 -1.2136
16158TIP3   OH269964   1.896   0.154   9.279  0.0053 -0.6215 -0.3134
16158TIP3    H169965   1.955   0.226   9.258 -0.1453 -0.5123 -0.3629
16158TIP3    H269966   1.931   0.079   9.230  0.1332 -0.5709 -0.3010
16159TIP3   OH269967   2.624   3.891   1.950  0.4043  0.2203  0.2379
16159TIP3    H169968   2.556   3.905   2.016 -0.8767  0.6973 -1.1424
16159TIP3    H269969   2.589   3.821   1.894 -0.0393  2.0083 -1.8458
16160TIP3   OH269970   0.669   2.200   6.995 -0.5895  0.3982 -0.0238
16160TIP3    H169971   0.710   2.176   6.913 -0.8345  0.5441 -0.1908
16160TIP3    H269972   0.721   2.156   7.062  0.3763  1.2936 -0.1619
16161TIP3   OH269973   3.400   0.856  28.045  0.3184 -0.2432 -0.3701
16161TIP3    H169974   3.471   0.907  28.005 -0.8950  1.3165 -0.6066
16161TIP3    H269975   3.433   0.834  28.132  0.5404  1.8103  0.1173
16162TIP3   OH269976   0.718   2.869  29.857 -0.2052  0.1331 -0.1183
16162TIP3    H169977   0.715   2.862  29.762 -1.9582  2.5159 -0.3373
16162TIP3    H269978   0.709   2.779  29.889  1.7231 -0.8820 -2.1398
16163TIP3   OH269979   1.919   1.585  41.464  0.1199  0.1982  0.0022
16163TIP3    H169980   1.986   1.516  41.462  0.2515  0.3181  0.2127
16163TIP3    H269981   1.961   1.657  41.511 -0.4548 -0.0397  0.8995
16164TIP3   OH269982   3.984   0.185   0.502 -0.7420  0.3004  0.4977
16164TIP3    H169983   3.995   0.254   0.568 -2.3050  0.9550  0.1237
16164TIP3    H269984   3.918   0.220   0.441  0.4117 -0.4048 -1.2547
16165TIP3   OH269985   1.411   0.968   3.280  0.0416 -0.0200 -0.5142
16165TIP3    H169986   1.383   0.884   3.246  2.5058 -0.8214 -0.7662
16165TIP3    H269987   1.442   1.016   3.203  2.3700 -0.4958  0.0483
16166TIP3   OH269988   3.639   0.129  31.795 -0.7379  0.0019 -0.5275
16166TIP3    H169989   3.678   0.087  31.718  0.0333  1.7634 -1.1718
16166TIP3    H269990   3.709   0.128  31.861 -0.5949  0.5334 -0.6633
16167TIP3   OH269991   1.871   3.131  28.186  0.0170  0.2282  0.0857
16167TIP3    H169992   1.874   3.111  28.093  0.0989  1.6756 -0.2499
16167TIP3    H269993   1.798   3.079  28.220 -1.5812  1.4914 -1.2753
16168TIP3   OH269994   3.097   4.306  28.835 -0.5139 -0.6236  1.0228
16168TIP3    H169995   3.111   4.394  28.799 -0.6644 -0.1957  1.9806
16168TIP3    H269996   3.036   4.264  28.774  1.6146 -1.0524 -0.9528
16169TIP3   OH269997   0.565   3.931  39.650 -0.0414 -0.2927 -0.2006
16169TIP3    H169998   0.611   3.965  39.727  1.2024  0.4469 -1.2147
16169TIP3    H269999   0.496   3.875  39.685  1.0891 -0.7420  1.4194
16170TIP3   OH270000   1.975   2.593   3.397  0.2614  0.0299 -0.3375
16170TIP3    H170001   2.030   2.515   3.392  2.4227  1.5161 -1.4968
16170TIP3    H270002   2.007   2.640   3.474 -0.7701 -0.0021  0.1335
16171TIP3   OH270003   4.153   4.194  11.292  0.6428  0.5044 -0.0034
16171TIP3    H170004   4.146   4.239  11.208  1.4732 -2.2679 -1.6863
16171TIP3    H270005   4.199   4.112  11.272  0.8391 -0.3025  3.1593
16172TIP3   OH270006   2.586   1.950  10.000 -0.0244  0.3211 -0.2808
16172TIP3    H170007   2.583   2.045   9.986  1.2281  0.2229 -1.4599
16172TIP3    H270008   2.650   1.938  10.069  1.2220  0.2648 -1.4004
16173TIP3   OH270009   3.909   0.961   9.977 -0.1738  0.3083 -0.5819
16173TIP3    H170010   3.905   1.042  10.027 -0.4926 -0.5394  0.8355
16173TIP3    H270011   3.821   0.951   9.940  0.0524  0.9216 -1.3042
16174TIP3   OH270012   4.023   2.042  36.478 -0.3939  0.3989 -0.1983
16174TIP3    H170013   4.086   1.972  36.497 -0.4355  0.4795  0.2483
16174TIP3    H270014   4.054   2.117  36.529 -0.2484  0.7675 -0.8159
16175TIP3   OH270015   2.868   3.514  40.497 -0.0541  0.3929 -0.1318
16175TIP3    H170016   2.935   3.542  40.558  0.2501  0.5868 -0.5507
16175TIP3    H270017   2.787   3.551  40.531  0.2336  1.1808 -0.2824
16176TIP3   OH270018   2.863   0.494  28.160 -0.1488  0.2484 -0.5419
16176TIP3    H170019   2.802   0.421  28.162 -0.5325  0.5694  0.7905
16176TIP3    H270020   2.921   0.476  28.086  0.0709 -1.6429  0.0539
16177TIP3   OH270021   2.149   0.660  30.255 -0.2087  0.1084  0.2475
16177TIP3    H170022   2.196   0.595  30.203  0.0952  0.6605 -0.1823
16177TIP3    H270023   2.066   0.617  30.277 -0.4633 -0.0502 -0.9370
16178TIP3   OH270024   0.707   3.261   2.573  0.1792 -0.3665  0.1355
16178TIP3    H170025   0.782   3.230   2.623  0.9242 -1.6525 -1.6564
16178TIP3    H270026   0.726   3.354   2.556  0.8182 -0.4035  0.6237
16179TIP3   OH270027   2.104   2.397  15.438 -0.1592  0.1510  0.7031
16179TIP3    H170028   2.076   2.317  15.483  1.2052 -0.0035  1.3523
16179TIP3    H270029   2.142   2.451  15.508  1.9110 -0.0454 -0.2008
16180TIP3   OH270030   2.504   1.719  10.410 -0.4829 -0.0894 -0.2395
16180TIP3    H170031   2.583   1.688  10.365  0.5324  2.5425 -0.4762
16180TIP3    H270032   2.452   1.640  10.425  2.5646 -2.0702  0.7149
16181TIP3   OH270033   0.727   1.278  40.556  0.0352  0.2315 -0.0603
16181TIP3    H170034   0.767   1.366  40.557 -0.5858  0.5275 -0.8765
16181TIP3    H270035   0.773   1.232  40.486  0.9012 -0.3717  0.8748
16182TIP3   OH270036   3.480   1.391   7.684 -0.1516 -0.3323  0.2321
16182TIP3    H170037   3.463   1.456   7.615  2.1895 -0.0426 -0.1790
16182TIP3    H270038   3.544   1.434   7.741  0.6544 -1.8817  0.5371
16183TIP3   OH270039   0.086   0.760  36.577  0.3443 -0.3185 -0.0372
16183TIP3    H170040   0.120   0.750  36.666 -0.4692  1.9336  0.5975
16183TIP3    H270041   0.153   0.813  36.532 -0.0883  0.0860 -0.2118
16184TIP3   OH270042   3.262   3.683   5.570 -0.1686 -0.1652  0.4334
16184TIP3    H170043   3.172   3.679   5.604  0.1532  0.0704  1.3399
16184TIP3    H270044   3.292   3.592   5.573 -0.9456 -0.5311 -1.5161
16185TIP3   OH270045   4.304   4.199  12.963 -0.2390  0.1582 -0.0130
16185TIP3    H170046   4.303   4.208  12.868 -1.4695  0.6461  0.0346
16185TIP3    H270047   4.396   4.212  12.987  0.0721  0.0782 -1.1265
16186TIP3   OH270048   0.247   0.882  40.572 -0.1525 -0.1532 -0.1613
16186TIP3    H170049   0.261   0.857  40.480  0.5341 -2.1641  0.4396
16186TIP3    H270050   0.240   0.978  40.570  2.9605  0.1708 -1.9566
16187TIP3   OH270051   1.741   0.879  30.869  0.0903 -0.1021  0.2742
16187TIP3    H170052   1.753   0.928  30.950 -0.4218  0.6271 -0.0774
16187TIP3    H270053   1.768   0.939  30.800 -1.0968 -0.0812 -0.2051
16188TIP3   OH270054   2.448   1.144   7.743 -0.3284  0.3078  0.3503
16188TIP3    H170055   2.498   1.225   7.753  0.5509  0.1536 -2.2406
16188TIP3    H270056   2.509   1.074   7.767  0.3384  0.1997 -1.5432
16189TIP3   OH270057   2.015   2.016  35.066 -0.3562 -0.3985  0.5564
16189TIP3    H170058   2.001   2.109  35.047 -1.1115 -0.2552  1.7148
16189TIP3    H270059   1.999   2.008  35.160 -1.4378 -1.8964  0.2820
16190TIP3   OH270060   3.487   1.657  36.909  0.0352 -0.2591  0.3175
16190TIP3    H170061   3.555   1.715  36.873  0.0078  0.6038  1.5975
16190TIP3    H270062   3.534   1.597  36.966  0.0425 -1.4557 -0.8899
16191TIP3   OH270063   4.315   4.042  30.819 -0.2825  0.5279 -0.7446
16191TIP3    H170064   4.355   3.991  30.748  2.8823  0.7538  0.6924
16191TIP3    H270065   4.260   3.978  30.866 -0.6511 -0.1574 -2.0538
16192TIP3   OH270066   1.425   1.657  17.586 -0.3526 -0.4122  0.1144
16192TIP3    H170067   1.388   1.690  17.504 -1.2916 -0.5660  0.4658
16192TIP3    H270068   1.378   1.705  17.655  0.0262 -0.6969  0.5820
16193TIP3   OH270069   4.344   3.358   1.955 -0.2074 -0.1421  0.3151
16193TIP3    H170070   4.393   3.407   2.020  0.5422  0.3718 -0.6273
16193TIP3    H270071   4.382   3.270   1.958 -0.3000 -0.1711  0.6939
16194TIP3   OH270072   0.484   2.563  35.818 -0.4019  0.1183  0.1567
16194TIP3    H170073   0.490   2.647  35.773  0.5974  0.1691  0.3635
16194TIP3    H270074   0.561   2.515  35.789  0.1055  0.0411  1.5585
16195TIP3   OH270075   1.039   2.467  33.312  0.3893 -0.5754 -0.0514
16195TIP3    H170076   1.051   2.499  33.223 -1.6259  0.5585  0.0250
16195TIP3    H270077   1.064   2.375  33.308 -1.7494 -1.1675 -2.3818
16196TIP3   OH270078   0.643   3.690  12.096 -0.3372 -0.2093  0.1758
16196TIP3    H170079   0.637   3.680  12.001  0.3750 -3.2982  0.3462
16196TIP3    H270080   0.734   3.716  12.112 -1.1528  3.3027 -0.0235
16197TIP3   OH270081   3.285   3.223  30.879 -0.9658 -0.0838  0.3192
16197TIP3    H170082   3.236   3.146  30.908 -0.5541 -1.0186 -1.3512
16197TIP3    H270083   3.220   3.276  30.832 -1.0853  0.2396  0.8449
16198TIP3   OH270084   0.497   0.781   6.100 -0.1356 -0.1843 -0.4818
16198TIP3    H170085   0.450   0.744   6.174  0.3398 -1.0587 -0.6029
16198TIP3    H270086   0.587   0.751   6.111 -0.0096 -0.1355 -1.2916
16199TIP3   OH270087   2.505   2.809  39.580  0.1006  0.3477 -0.2066
16199TIP3    H170088   2.531   2.855  39.500  0.8484 -0.5838 -0.5168
16199TIP3    H270089   2.588   2.783  39.621 -0.2954 -1.3663 -0.4371
16200TIP3   OH270090   1.145   2.275   4.746  0.6313 -0.2604 -0.2308
16200TIP3    H170091   1.138   2.227   4.828  0.1309 -0.2610 -0.2667
16200TIP3    H270092   1.156   2.207   4.679 -1.9141 -0.4979 -0.4986
16201TIP3   OH270093   0.360   0.888  37.278 -0.0175  0.1857 -0.4607
16201TIP3    H170094   0.285   0.839  37.313 -0.2073  0.2182 -0.8192
16201TIP3    H270095   0.370   0.961  37.338  1.3542 -1.1925  1.1070
16202TIP3   OH270096   4.147   0.242  37.368 -0.1248  0.2980  0.3715
16202TIP3    H170097   4.110   0.238  37.456  0.1628  0.9864  0.5380
16202TIP3    H270098   4.082   0.289  37.316 -0.4357 -0.3870  0.1390
16203TIP3   OH270099   2.672   3.816  35.779  0.4419  0.2601  0.1439
16203TIP3    H170100   2.655   3.748  35.845  1.7779  0.8801  1.1775
16203TIP3    H270101   2.743   3.869  35.817  1.4429  0.4875 -1.9126
16204TIP3   OH270102   0.535   4.014  27.197 -0.3627  0.2911 -0.7401
16204TIP3    H170103   0.509   4.052  27.113  1.2395  1.6103 -0.6851
16204TIP3    H270104   0.459   4.028  27.254 -0.8097  0.9760 -1.4828
16205TIP3   OH270105   3.009   4.036  32.217  0.2184 -0.5579  0.3263
16205TIP3    H170106   2.941   4.010  32.155  2.0016  1.9884 -3.0366
16205TIP3    H270107   3.076   3.968  32.209  0.3080 -0.3971 -0.3692
16206TIP3   OH270108   2.869   3.275  35.484  0.4649  0.5902  0.0252
16206TIP3    H170109   2.782   3.285  35.445  0.1985 -0.0872  0.4104
16206TIP3    H270110   2.854   3.288  35.578  0.7962  0.5700  0.0818
16207TIP3   OH270111   1.807   1.708  35.588 -0.5573 -0.3654 -0.2565
16207TIP3    H170112   1.877   1.662  35.633 -0.0277 -0.0032 -0.6946
16207TIP3    H270113   1.770   1.644  35.528 -0.4690 -0.4958 -0.1693
16208TIP3   OH270114   4.393   3.113  11.352 -0.0102 -0.4660 -0.3692
16208TIP3    H170115   4.347   3.061  11.286 -3.5116  1.4903  0.2593
16208TIP3    H270116   4.339   3.191  11.362  1.4645  0.2646  3.3695
16209TIP3   OH270117   1.872   2.022  38.203  0.5801 -0.2597 -0.2179
16209TIP3    H170118   1.805   2.063  38.148  0.5833 -1.2027 -0.9526
16209TIP3    H270119   1.822   1.972  38.268  0.5739 -0.4568 -0.3734
16210TIP3   OH270120   2.117   2.005  12.385  0.3209 -0.2070  0.2014
16210TIP3    H170121   2.027   2.001  12.418  0.4930  1.4420  0.9740
16210TIP3    H270122   2.144   1.914  12.378 -1.1599 -0.7083  0.6826
16211TIP3   OH270123   1.134   0.971   1.044 -0.2468 -0.2631 -0.2229
16211TIP3    H170124   1.203   1.029   1.012  2.2692 -2.9083  0.0270
16211TIP3    H270125   1.164   0.944   1.131 -1.6756 -1.4058 -0.0527
16212TIP3   OH270126   3.912   1.391  40.736 -0.0345  0.2722 -0.0539
16212TIP3    H170127   3.944   1.374  40.824 -0.7592 -0.2327  0.1113
16212TIP3    H270128   3.895   1.486  40.735 -0.6012  0.1852  0.5426
16213TIP3   OH270129   3.482   1.689  27.942 -0.5567  0.9960 -0.4107
16213TIP3    H170130   3.551   1.629  27.914 -0.8968  0.7159 -0.6557
16213TIP3    H270131   3.502   1.706  28.034 -0.6834  0.1799 -0.2223
16214TIP3   OH270132   0.360   0.020  38.588  0.0097  0.2303  0.4378
16214TIP3    H170133   0.354   0.105  38.543 -0.0637  0.0574  0.1139
16214TIP3    H270134   0.289  -0.031  38.550 -1.0555  0.5861  1.8661
16215TIP3   OH270135   1.059   3.566  28.676 -0.1425  0.2962 -0.0789
16215TIP3    H170136   0.992   3.503  28.703 -1.1144  1.7431  1.1001
16215TIP3    H270137   1.054   3.567  28.581 -0.6749 -0.8040 -0.0780
16216TIP3   OH270138   3.790   2.410   5.453 -0.0194 -0.5931  0.1842
16216TIP3    H170139   3.756   2.436   5.538 -1.9872 -0.7869 -0.4901
16216TIP3    H270140   3.760   2.320   5.441  0.2228 -0.5686 -0.6933
16217TIP3   OH270141   2.729   2.286  38.087  0.5419 -0.0444  0.1993
16217TIP3    H170142   2.731   2.377  38.117  0.5929  0.2595 -0.7144
16217TIP3    H270143   2.675   2.241  38.152  1.0888  0.4925  1.0375
16218TIP3   OH270144   1.580   2.689  36.992  0.5686 -0.3345  0.4197
16218TIP3    H170145   1.585   2.776  37.031 -0.6766 -1.0273  2.2561
16218TIP3    H270146   1.614   2.630  37.059  0.0393 -1.3967 -0.2171
16219TIP3   OH270147   2.955   3.888  11.503  0.0936 -0.2053  0.3045
16219TIP3    H170148   2.972   3.983  11.506 -0.7556  0.0462 -1.5955
16219TIP3    H270149   2.927   3.867  11.592  0.7945  1.2107  0.9117
16220TIP3   OH270150   1.427   3.239  40.330  0.3301  0.1456 -0.1416
16220TIP3    H170151   1.413   3.265  40.421  1.8346  0.6694 -0.0326
16220TIP3    H270152   1.402   3.315  40.279  1.1841  0.5008 -0.0460
16221TIP3   OH270153   0.229   1.070  40.158  0.2308 -0.2296  0.3144
16221TIP3    H170154   0.204   1.151  40.112  0.9139 -0.1760  0.0267
16221TIP3    H270155   0.321   1.082  40.180  0.1314 -0.6150  0.9562
16222TIP3   OH270156   3.414   0.259  34.049  0.1326 -0.3722 -0.1586
16222TIP3    H170157   3.436   0.330  33.990  0.2145 -1.0562 -0.9675
16222TIP3    H270158   3.360   0.200  33.997  1.5414 -1.8112 -0.0667
16223TIP3   OH270159   1.732   0.805  36.039 -0.3479  1.0897  0.3568
16223TIP3    H170160   1.670   0.795  36.111 -0.3850  4.5331  0.9329
16223TIP3    H270161   1.681   0.843  35.968  0.5206  1.3869 -0.1244
16224TIP3   OH270162   3.559   2.376  11.959 -0.0724 -0.7163 -0.2114
16224TIP3    H170163   3.547   2.405  11.868  0.0915 -1.2052 -0.3926
16224TIP3    H270164   3.475   2.395  12.002 -0.1517 -0.4890 -0.4618
16225TIP3   OH270165   2.672   1.692  28.491 -0.5118  0.8214 -0.2517
16225TIP3    H170166   2.641   1.663  28.405 -0.9018  0.5565 -0.0232
16225TIP3    H270167   2.595   1.731  28.532 -0.1367  1.6537 -0.3263
16226TIP3   OH270168   1.803   0.653   9.176 -0.6058  0.0591 -0.2038
16226TIP3    H170169   1.856   0.696   9.109 -0.6310 -1.6280 -1.3662
16226TIP3    H270170   1.865   0.636   9.247  0.1276 -0.6624 -0.9850
16227TIP3   OH270171   2.660   3.624  40.636  0.2332 -0.2530 -0.2965
16227TIP3    H170172   2.712   3.696  40.672 -1.0660  1.2688 -1.3150
16227TIP3    H270173   2.627   3.578  40.713 -0.2848  1.3061  0.4701
16228TIP3   OH270174   3.885   2.470   7.957  0.5145 -0.1726 -0.1182
16228TIP3    H170175   3.864   2.501   8.045 -3.2223 -2.3438 -0.0258
16228TIP3    H270176   3.899   2.550   7.906  1.4032  1.1808  2.0939
16229TIP3   OH270177   2.514   0.284  38.361 -0.5516 -0.2038 -0.0764
16229TIP3    H170178   2.448   0.349  38.386  0.0790  0.2478  0.4710
16229TIP3    H270179   2.548   0.252  38.444  0.0870 -0.2516 -0.3537
16230TIP3   OH270180   2.279   1.753  10.799  0.4723  0.2366  0.1201
16230TIP3    H170181   2.211   1.689  10.778  0.1602  0.6645 -0.1813
16230TIP3    H270182   2.361   1.708  10.777  0.4467 -0.9916  2.2188
16231TIP3   OH270183   2.490   0.637  28.268 -0.0822  0.2168  0.1590
16231TIP3    H170184   2.505   0.543  28.260 -2.5028 -0.1373 -0.8756
16231TIP3    H270185   2.405   0.645  28.311  0.9193  2.0152  2.0368
16232TIP3   OH270186   1.533   1.753  11.825 -0.4722 -0.2430  0.4792
16232TIP3    H170187   1.491   1.702  11.755 -0.4616  0.1183  0.2040
16232TIP3    H270188   1.611   1.791  11.784  0.3441 -1.2209  1.0951
16233TIP3   OH270189   0.802   1.946  28.308  0.0639  0.3699  0.8006
16233TIP3    H170190   0.832   1.889  28.237  1.7009 -0.6628  2.2235
16233TIP3    H270191   0.723   1.988  28.274 -0.0073 -1.1527 -1.0855
16234TIP3   OH270192   2.054   4.161  12.764  0.5360  0.2019 -0.1355
16234TIP3    H170193   2.007   4.100  12.707 -1.2015  0.3912  0.9960
16234TIP3    H270194   2.023   4.247  12.737  2.7389  0.6177 -1.5155
16235TIP3   OH270195   4.356   0.973  34.029 -0.1347 -0.5363 -0.2247
16235TIP3    H170196   4.347   1.030  33.952  0.8843  1.9358  1.3798
16235TIP3    H270197   4.268   0.939  34.044 -0.5412 -0.3290 -1.9066
16236TIP3   OH270198   1.321   4.096  10.326 -0.1412 -0.1386 -0.2589
16236TIP3    H170199   1.416   4.079  10.320 -0.1461 -0.1047 -0.4278
16236TIP3    H270200   1.314   4.191  10.330 -0.2681 -0.0367 -2.1269
16237TIP3   OH270201   4.157   1.882  29.453 -0.3813 -0.3956  0.6197
16237TIP3    H170202   4.230   1.821  29.442 -1.5791 -2.1433  1.8672
16237TIP3    H270203   4.198   1.963  29.483  1.1773 -0.8047 -0.2725
16238TIP3   OH270204   1.259   2.773  14.318  0.1330 -0.7990 -0.2421
16238TIP3    H170205   1.179   2.821  14.298 -0.1403 -2.1703 -3.0268
16238TIP3    H270206   1.330   2.830  14.286  0.0990 -0.5768  0.0781
16239TIP3   OH270207   2.073   1.242   7.133  0.2274 -0.3997 -0.1186
16239TIP3    H170208   2.015   1.174   7.165 -0.3210  0.3477  0.4962
16239TIP3    H270209   2.111   1.281   7.211 -1.5202  1.7921 -0.2815
16240TIP3   OH270210   4.227   3.187  32.668 -0.3248  0.4633  0.6749
16240TIP3    H170211   4.311   3.227  32.643 -0.5485 -0.0710 -1.0649
16240TIP3    H270212   4.228   3.188  32.764  1.9622 -0.1236  0.7187
16241TIP3   OH270213   4.321   1.681   7.070 -0.0517 -0.3194  0.1398
16241TIP3    H170214   4.227   1.690   7.085 -0.3592 -0.8202 -1.2581
16241TIP3    H270215   4.337   1.730   6.989  0.9383 -0.0949  0.4486
16242TIP3   OH270216   0.599   3.747  36.137  0.0733  0.5167 -0.5824
16242TIP3    H170217   0.676   3.704  36.100 -0.3837 -1.0072  0.1340
16242TIP3    H270218   0.529   3.729  36.074  0.1958  1.5725 -1.0444
16243TIP3   OH270219   2.560   2.955   8.084  0.0606 -0.0350 -0.0259
16243TIP3    H170220   2.507   2.895   8.032 -2.2196  0.4905  1.5030
16243TIP3    H270221   2.496   3.013   8.125  1.7804  0.2687  2.4505
16244TIP3   OH270222   2.350   3.128   6.361  0.5110  0.0407  0.6423
16244TIP3    H170223   2.258   3.108   6.379  0.9577 -1.6820  1.1442
16244TIP3    H270224   2.347   3.201   6.299 -1.2494 -1.3744 -1.0654
16245TIP3   OH270225   2.696   3.234   5.544 -0.0072  0.1201 -0.3622
16245TIP3    H170226   2.618   3.203   5.499 -0.5182  0.4295  0.2790
16245TIP3    H270227   2.710   3.323   5.510  0.5343 -0.2184 -1.0485
16246TIP3   OH270228   0.562   0.314  34.798 -0.3161 -1.7714 -0.2355
16246TIP3    H170229   0.643   0.341  34.841 -1.8829  0.1281  1.7624
16246TIP3    H270230   0.586   0.305  34.706  2.2670 -1.8757  0.3606
16247TIP3   OH270231   2.946   3.449  13.087 -0.3054  0.1490  0.3986
16247TIP3    H170232   3.013   3.442  13.155  0.6672 -0.0356 -0.5478
16247TIP3    H270233   2.957   3.370  13.035 -0.8282  0.4377 -0.1568
16248TIP3   OH270234   1.504   1.036   5.340  0.3270  0.2069  0.3454
16248TIP3    H170235   1.559   0.961   5.361  0.9236  0.9161  1.4417
16248TIP3    H270236   1.522   1.055   5.248 -2.2056 -2.8966 -0.9622
16249TIP3   OH270237   0.687   1.398  28.793  0.1200 -0.3401  0.1255
16249TIP3    H170238   0.637   1.374  28.715  1.5944  1.9465 -1.6456
16249TIP3    H270239   0.769   1.349  28.786  0.6890  0.6600 -0.3523
16250TIP3   OH270240   0.092   2.874   5.146  0.1537  0.1826 -1.2425
16250TIP3    H170241   0.050   2.790   5.166 -0.0234 -0.1651 -2.9409
16250TIP3    H270242   0.025   2.939   5.166  0.5244  0.0175  0.7620
16251TIP3   OH270243   0.395   0.671  31.335  0.6655  0.4423 -0.9215
16251TIP3    H170244   0.411   0.706  31.422  0.0932 -0.3954 -0.4728
16251TIP3    H270245   0.481   0.647  31.303  0.9777  1.4857 -0.9238
16252TIP3   OH270246   0.662   2.795  38.799 -0.7862  0.6845  0.0300
16252TIP3    H170247   0.736   2.799  38.860 -2.1730  1.3075  1.7880
16252TIP3    H270248   0.695   2.748  38.723  0.4886 -2.0388  2.0893
16253TIP3   OH270249   0.560   3.859  30.684  0.0195  0.1350  0.1192
16253TIP3    H170250   0.654   3.866  30.699  0.0426 -0.7959  0.4768
16253TIP3    H270251   0.548   3.774  30.643 -0.8321 -0.4877  1.5882
16254TIP3   OH270252   1.403   3.875  11.117  0.0751  0.7134 -0.5858
16254TIP3    H170253   1.367   3.786  11.126 -0.4724  0.9074 -0.8196
16254TIP3    H270254   1.344   3.918  11.056 -1.5307  2.2077  1.8500
16255TIP3   OH270255   0.942   2.791   7.682 -0.0423 -0.2417  0.7032
16255TIP3    H170256   0.899   2.783   7.768  2.0107  0.4819  1.8731
16255TIP3    H270257   1.012   2.726   7.685 -0.1328 -0.4146 -0.5750
16256TIP3   OH270258   0.807   1.721   4.690  0.6229  0.2269 -0.5291
16256TIP3    H170259   0.807   1.638   4.643 -1.4503 -0.2821  0.2368
16256TIP3    H270260   0.732   1.769   4.655  1.2630  1.4117 -0.3404
16257TIP3   OH270261   3.625   3.119  28.160  0.5849 -0.1211  0.0899
16257TIP3    H170262   3.535   3.095  28.137  0.5230  0.2787 -0.0883
16257TIP3    H270263   3.680   3.067  28.102  0.4875 -0.7751  0.5683
16258TIP3   OH270264   4.315   0.124   6.550 -0.3773 -0.1177  0.3015
16258TIP3    H170265   4.385   0.121   6.615 -0.4567 -2.7246  0.3824
16258TIP3    H270266   4.251   0.060   6.580 -2.4811  1.6325 -0.1883
16259TIP3   OH270267   4.377   0.907  10.689  0.1684 -0.7344 -0.0176
16259TIP3    H170268   4.289   0.886  10.659  0.0914 -0.8461  0.2865
16259TIP3    H270269   4.405   0.831  10.740 -0.4541  0.2215  1.8487
16260TIP3   OH270270   0.192   0.368  35.946  0.0801  0.4118 -0.1209
16260TIP3    H170271   0.210   0.357  35.853 -0.7702  0.1796 -0.2653
16260TIP3    H270272   0.097   0.380  35.951 -0.2479 -2.0633  0.9227
16261TIP3   OH270273   3.178   1.383  34.897 -0.3109 -0.3042  0.2619
16261TIP3    H170274   3.253   1.420  34.943 -0.5449  0.3864  0.1014
16261TIP3    H270275   3.196   1.401  34.804  0.0432 -1.4721  0.0826
16262TIP3   OH270276   1.265   3.278   2.256  0.1020 -0.0593 -0.0358
16262TIP3    H170277   1.350   3.252   2.290  0.0562 -0.5503 -0.2976
16262TIP3    H270278   1.267   3.252   2.164 -0.5282 -0.5389  0.0869
16263TIP3   OH270279   3.999   3.370  29.475 -0.9597 -0.3087  0.4365
16263TIP3    H170280   4.059   3.330  29.538  0.7270  0.9842 -0.2652
16263TIP3    H270281   3.962   3.446  29.520  0.1496  0.5420 -0.0336
16264TIP3   OH270282   0.782   1.100  31.172  0.2465 -0.2652  0.4799
16264TIP3    H170283   0.759   1.009  31.155  0.8516 -0.1474 -1.2249
16264TIP3    H270284   0.875   1.106  31.148  0.5763  0.5064  1.8631
16265TIP3   OH270285   2.371   2.039  29.079 -0.0362  0.2674 -0.0763
16265TIP3    H170286   2.408   2.030  29.167 -0.2718 -1.1403 -0.0913
16265TIP3    H270287   2.440   2.008  29.021 -1.8044 -4.7633  0.0269
16266TIP3   OH270288   0.203   2.801   1.877 -0.3912  0.9325 -0.3000
16266TIP3    H170289   0.129   2.743   1.894  0.0003  0.5782  0.1995
16266TIP3    H270290   0.206   2.860   1.952  1.1733 -0.4657  0.7932
16267TIP3   OH270291   3.381   2.107  39.563 -0.0500 -0.0911 -0.4969
16267TIP3    H170292   3.341   2.191  39.540  1.1674  0.2909 -1.2833
16267TIP3    H270293   3.322   2.071  39.630 -2.7063 -0.4066 -2.8078
16268TIP3   OH270294   2.037   2.301  15.699 -0.8979  0.1200  0.0137
16268TIP3    H170295   1.997   2.218  15.725  2.4340 -1.4228  0.7436
16268TIP3    H270296   2.068   2.339  15.781  0.1241  0.6656 -0.6119
16269TIP3   OH270297   0.187   4.221  38.530  0.2386  0.1871  0.5994
16269TIP3    H170298   0.124   4.156  38.562 -1.1361  0.7780 -0.7449
16269TIP3    H270299   0.247   4.171  38.474 -1.4946  0.1387 -1.3644
16270TIP3   OH270300   0.379   0.313  33.725 -0.4982 -0.1541  0.4068
16270TIP3    H170301   0.425   0.343  33.646 -0.5550  0.1306  0.4802
16270TIP3    H270302   0.387   0.218  33.722 -1.6539 -0.2500 -0.6573
16271TIP3   OH270303   2.007   2.398  28.175  0.1905 -0.3447 -0.0025
16271TIP3    H170304   1.980   2.310  28.199  0.8893 -0.2031  1.4074
16271TIP3    H270305   1.979   2.453  28.249 -0.2517  0.6315 -0.8592
16272TIP3   OH270306   3.983   0.270  10.424 -0.4623  0.0883  0.1149
16272TIP3    H170307   3.901   0.312  10.451 -0.8747  0.3643 -1.4910
16272TIP3    H270308   4.030   0.338  10.376 -0.5285 -0.8573 -1.3389
16273TIP3   OH270309   2.955   2.650  29.904  0.2705 -0.1797  0.7073
16273TIP3    H170310   2.861   2.654  29.920  0.4280  0.1155  1.6380
16273TIP3    H270311   2.965   2.591  29.829 -0.7666  1.0524 -0.4490
16274TIP3   OH270312   1.671   1.193   6.724 -0.0120  0.0642  0.2300
16274TIP3    H170313   1.633   1.182   6.811  0.7304  0.1338  0.5791
16274TIP3    H270314   1.757   1.150   6.731  1.3296  2.5637  0.4569
16275TIP3   OH270315   1.377   0.747   6.846  0.1750 -0.1604  0.2466
16275TIP3    H170316   1.302   0.806   6.845 -1.0067 -1.5217  2.2758
16275TIP3    H270317   1.360   0.685   6.775  0.2037  0.4786 -0.3249
16276TIP3   OH270318   0.755   2.868  27.651  0.1203 -0.1058 -0.0154
16276TIP3    H170319   0.686   2.928  27.679  0.0582 -0.1908  0.0126
16276TIP3    H270320   0.781   2.900  27.565  0.4948  0.3147  0.2495
16277TIP3   OH270321   0.149   4.255  28.634  0.1404 -0.1417 -0.0319
16277TIP3    H170322   0.166   4.178  28.689 -2.0604 -1.2742 -0.8305
16277TIP3    H270323   0.229   4.308  28.642  0.2016 -0.5513  3.6830
16278TIP3   OH270324   1.539   2.842   0.400  0.2215  0.1721 -0.5432
16278TIP3    H170325   1.531   2.889   0.317  2.1663 -0.9360 -1.4143
16278TIP3    H270326   1.614   2.784   0.388  1.0207  0.4788  2.2350
16279TIP3   OH270327   3.810   1.045   6.880  0.0676  0.0074  0.5607
16279TIP3    H170328   3.759   0.969   6.906  0.7005  0.0547  2.0343
16279TIP3    H270329   3.866   1.064   6.955  1.4126  0.6685 -0.5471
16280TIP3   OH270330   3.909   1.020  37.757 -0.0881  0.7998  0.3712
16280TIP3    H170331   3.882   1.011  37.849 -3.0783  1.9877 -0.2620
16280TIP3    H270332   3.970   1.093  37.758 -0.1893  0.8966  1.4163
16281TIP3   OH270333   3.633   1.285  32.766 -0.0507  0.3125 -0.1767
16281TIP3    H170334   3.585   1.366  32.747  0.7031  0.6505 -0.6862
16281TIP3    H270335   3.574   1.215  32.738 -0.6780  0.6838  0.1980
16282TIP3   OH270336   1.893   3.917  11.698 -0.6724 -0.1352  0.3746
16282TIP3    H170337   1.989   3.914  11.692 -0.7664 -1.3100 -1.9276
16282TIP3    H270338   1.866   3.961  11.617 -2.0998  0.7996  1.3054
16283TIP3   OH270339   0.959   1.186  39.335  0.4400 -0.0787 -0.4834
16283TIP3    H170340   0.967   1.146  39.422  0.7499  0.9183 -0.0462
16283TIP3    H270341   0.998   1.122  39.275  0.6192 -0.5795  0.1616
16284TIP3   OH270342   2.568   2.887   4.443 -0.1482 -0.2272  0.2494
16284TIP3    H170343   2.598   2.803   4.479 -0.5210 -1.2191 -1.6456
16284TIP3    H270344   2.638   2.915   4.385  0.1895  1.0606  1.2329
16285TIP3   OH270345   2.218   2.722   1.935  0.1532  0.1226 -0.0594
16285TIP3    H170346   2.234   2.815   1.952 -0.4097  0.4302 -1.1069
16285TIP3    H270347   2.182   2.720   1.846 -1.8374 -0.8852  0.7163
16286TIP3   OH270348   1.370   4.307  29.716 -0.3914 -0.1204 -0.4239
16286TIP3    H170349   1.412   4.313  29.630  0.3458 -1.4419 -0.1801
16286TIP3    H270350   1.290   4.359  29.707  0.9277  1.9057 -1.1120
16287TIP3   OH270351   0.838   3.353  31.324 -0.1748 -0.0413  0.0429
16287TIP3    H170352   0.876   3.382  31.407  1.2055  0.2538 -0.6646
16287TIP3    H270353   0.751   3.395  31.322  0.2946  1.0216  0.7435
16288TIP3   OH270354   0.541   2.424  12.561  0.0699  0.5104  0.2267
16288TIP3    H170355   0.473   2.386  12.505  0.8692  0.3260 -0.6454
16288TIP3    H270356   0.497   2.441  12.644 -0.6575 -1.0403  0.1899
16289TIP3   OH270357   2.364   1.925   0.604  0.0526 -0.2401  0.1158
16289TIP3    H170358   2.343   1.838   0.569 -0.9745  0.7120 -1.7880
16289TIP3    H270359   2.313   1.930   0.685 -0.1025 -1.3121  0.1061
16290TIP3   OH270360   3.477   3.048   3.384 -0.4439 -0.1687 -0.7474
16290TIP3    H170361   3.473   3.144   3.384 -0.1961 -0.1562 -0.0803
16290TIP3    H270362   3.569   3.028   3.401 -0.8944 -0.5303  1.5065
16291TIP3   OH270363   3.897   4.367  38.768 -0.3671 -0.2951 -0.0552
16291TIP3    H170364   3.831   4.305  38.739 -1.0614  0.1896  0.4707
16291TIP3    H270365   3.875   4.386  38.859 -0.6567  1.3094 -0.4260
16292TIP3   OH270366   3.658   1.645   7.189 -0.0116 -0.1796 -0.3130
16292TIP3    H170367   3.619   1.712   7.132 -1.1826 -0.2274  0.3943
16292TIP3    H270368   3.713   1.694   7.250 -1.1348  0.1926  0.4215
16293TIP3   OH270369   2.262   3.928  31.605 -0.2594  0.5392  0.8604
16293TIP3    H170370   2.345   3.885  31.587  0.4183  1.7619  0.9491
16293TIP3    H270371   2.227   3.882  31.682  0.3325  0.0178  0.8188
16294TIP3   OH270372   1.880   2.575   3.791 -0.2261  0.2704 -0.1277
16294TIP3    H170373   1.844   2.620   3.714  1.1616  0.2562 -0.8182
16294TIP3    H270374   1.950   2.633   3.822  1.9549 -1.5520 -1.3354
16295TIP3   OH270375   0.583   0.266  11.581  0.2791 -0.2708 -0.1893
16295TIP3    H170376   0.676   0.286  11.575  0.3892 -0.9459 -0.7901
16295TIP3    H270377   0.563   0.273  11.674  0.3886  2.2327 -0.2739
16296TIP3   OH270378   0.095   1.433  25.224  0.0565  0.0494  0.2333
16296TIP3    H170379   0.049   1.400  25.147  1.2934  1.4143 -1.1755
16296TIP3    H270380   0.142   1.358  25.259 -0.5163 -0.5936 -0.3502
16297TIP3   OH270381   0.013   3.084  35.291  0.6290 -0.2019  0.0876
16297TIP3    H170382  -0.055   3.121  35.234 -0.2729  0.5797  1.5882
16297TIP3    H270383  -0.030   3.010  35.334  1.0335 -0.3002  0.3250
16298TIP3   OH270384   3.899   1.092  34.930 -0.2645  0.0330 -0.2412
16298TIP3    H170385   3.967   1.061  34.871  0.0221  1.0663 -0.4667
16298TIP3    H270386   3.912   1.187  34.935  0.3008 -0.1081  2.1971
16299TIP3   OH270387   2.330   1.881  30.014  0.3159 -0.0236 -0.0185
16299TIP3    H170388   2.283   1.819  30.070  0.9770 -0.1723  0.3802
16299TIP3    H270389   2.261   1.921  29.960 -0.2404 -0.3854  0.4067
16300TIP3   OH270390   3.205   3.053  28.938  0.1073 -0.2548 -0.4804
16300TIP3    H170391   3.257   3.098  29.004 -0.0655  1.1181 -1.2376
16300TIP3    H270392   3.269   3.022  28.873  0.0864  0.4761 -0.8566
16301TIP3   OH270393   3.894   0.450  36.575 -0.5283  0.4453  0.6864
16301TIP3    H170394   3.805   0.417  36.557 -0.3698  0.5133 -0.2273
16301TIP3    H270395   3.914   0.415  36.662 -0.9929 -0.5596  0.4120
16302TIP3   OH270396   3.329   1.501  41.515 -0.2945  0.5052 -0.1841
16302TIP3    H170397   3.258   1.515  41.578  0.4584 -0.2296  0.8556
16302TIP3    H270398   3.346   1.588  41.478 -1.0078  0.8774  0.3480
16303TIP3   OH270399   1.573   2.512  36.408  0.2039  0.4931 -0.3217
16303TIP3    H170400   1.498   2.483  36.357  0.0436  0.2453  0.0517
16303TIP3    H270401   1.639   2.444  36.393 -0.8310 -1.1687  2.1199
16304TIP3   OH270402   0.178   4.116   6.553  0.0671  0.5277 -0.0786
16304TIP3    H170403   0.228   4.070   6.621  1.0004  1.4827 -0.0862
16304TIP3    H270404   0.182   4.208   6.580 -0.3620  0.7984 -0.9306
16305TIP3   OH270405   2.560   0.207  11.594 -0.7857  0.4276  0.3529
16305TIP3    H170406   2.582   0.114  11.588 -3.3159 -0.2413  0.1015
16305TIP3    H270407   2.623   0.243  11.656 -1.3750 -2.0447  2.5540
16306TIP3   OH270408   1.652   2.658  31.300  0.3280 -0.8883 -0.1139
16306TIP3    H170409   1.677   2.751  31.302  0.0202 -0.7207 -1.9005
16306TIP3    H270410   1.693   2.621  31.378 -2.0797  1.3154  2.4318
16307TIP3   OH270411   0.916   1.492  11.652  0.1306 -0.4197 -0.1042
16307TIP3    H170412   0.988   1.532  11.701  0.8636 -0.2714 -1.2531
16307TIP3    H270413   0.849   1.473  11.718  0.7577  0.4818  0.8226
16308TIP3   OH270414   3.300   3.058  27.384 -0.0484  0.0181 -0.1271
16308TIP3    H170415   3.294   3.126  27.450  2.4719  0.7378 -0.5505
16308TIP3    H270416   3.359   2.993  27.421 -0.1032 -0.4982 -0.9119
16309TIP3   OH270417   2.040   0.368  18.802 -0.4926 -0.5754 -0.4091
16309TIP3    H170418   2.000   0.281  18.804 -1.6030 -0.1083  2.3457
16309TIP3    H270419   1.998   0.411  18.728 -2.6904 -1.2361  0.3640
16310TIP3   OH270420   3.774   1.770  39.035 -0.3575 -0.1832 -0.5174
16310TIP3    H170421   3.706   1.790  39.099 -0.0454 -1.0665  0.1015
16310TIP3    H270422   3.726   1.732  38.961 -0.5922 -0.3252 -0.2933
16311TIP3   OH270423   2.073   4.391   7.055  0.5403 -0.2051 -0.1134
16311TIP3    H170424   2.068   4.300   7.086  0.9073 -0.4614 -0.7839
16311TIP3    H270425   2.060   4.444   7.134 -1.0553 -0.8259  0.0725
16312TIP3   OH270426   0.357   3.687  21.445 -0.2692 -0.1825 -0.1701
16312TIP3    H170427   0.284   3.705  21.504  0.1646 -1.6505  0.8801
16312TIP3    H270428   0.435   3.714  21.494  0.1120 -1.6132  0.0638
16313TIP3   OH270429   2.884   0.014  40.034 -0.5536 -0.0694 -0.0819
16313TIP3    H170430   2.873  -0.066  39.983 -3.2051 -0.4048  0.8377
16313TIP3    H270431   2.866   0.085  39.971 -0.1517 -0.2803 -0.4384
16314TIP3   OH270432   0.439   3.834  33.419 -0.5665  0.0283  0.5213
16314TIP3    H170433   0.517   3.848  33.473 -0.8555 -3.6702  2.1704
16314TIP3    H270434   0.365   3.847  33.478 -1.2294  1.8256 -0.6036
16315TIP3   OH270435   2.047   0.725  33.725  0.4170  0.1457 -0.4955
16315TIP3    H170436   1.987   0.780  33.674  0.0879 -0.0469 -0.3183
16315TIP3    H270437   2.084   0.784  33.790  0.4984  0.2884 -0.6698
16316TIP3   OH270438   1.573   1.631  12.056  0.0909 -0.3722  0.5328
16316TIP3    H170439   1.552   1.672  11.972  0.8706 -0.5302  0.2560
16316TIP3    H270440   1.668   1.633  12.060  0.0696 -0.7003  1.2508
16317TIP3   OH270441   3.185   2.052  11.912 -0.0460  0.1067  0.6132
16317TIP3    H170442   3.226   2.135  11.889  1.0051 -0.6810 -0.4690
16317TIP3    H270443   3.092   2.064  11.891  0.3051  0.5847 -0.7400
16318TIP3   OH270444   3.618   0.106  28.153 -0.9659 -0.3517 -0.1318
16318TIP3    H170445   3.674   0.061  28.091 -0.4410 -0.6228  0.5253
16318TIP3    H270446   3.538   0.053  28.157 -0.1522 -1.5567  1.0272
16319TIP3   OH270447   1.396   2.127  18.759 -0.0175  0.1815  0.2773
16319TIP3    H170448   1.482   2.133  18.717 -0.3500 -0.7565 -0.5933
16319TIP3    H270449   1.366   2.217  18.763 -0.3095  0.2948 -2.3316
16320TIP3   OH270450   3.422   3.123  32.810 -0.1125  0.2065  0.0826
16320TIP3    H170451   3.405   3.198  32.867  1.7979 -1.2882  2.9056
16320TIP3    H270452   3.446   3.053  32.871  1.2916 -1.7757 -2.5725
16321TIP3   OH270453   1.603   1.789  37.601 -0.4786  0.5253  0.2849
16321TIP3    H170454   1.538   1.857  37.621 -0.7706 -0.0009  1.1984
16321TIP3    H270455   1.614   1.793  37.507 -1.0004  1.3902  0.2516
16322TIP3   OH270456   3.371   2.613   2.589  0.1156 -0.2017 -0.2470
16322TIP3    H170457   3.283   2.575   2.589  0.7831 -1.9082  1.2926
16322TIP3    H270458   3.409   2.583   2.506 -0.4304 -0.2519 -0.4851
16323TIP3   OH270459   2.848   3.023  27.825 -0.1605  0.1512  0.3898
16323TIP3    H170460   2.808   3.106  27.799  0.7326 -0.4286 -3.3881
16323TIP3    H270461   2.776   2.961  27.826 -0.5712  0.6202  1.6565
16324TIP3   OH270462   3.839   3.208  13.144  0.0502 -0.0361 -0.1964
16324TIP3    H170463   3.831   3.275  13.212 -0.7400  0.1925 -0.5026
16324TIP3    H270464   3.852   3.258  13.063 -1.8105 -0.1858 -0.6163
16325TIP3   OH270465   1.736   2.947  38.712  0.0775 -0.1589  0.1569
16325TIP3    H170466   1.682   2.939  38.791  1.5583 -0.8436  1.1298
16325TIP3    H270467   1.674   2.974  38.644 -1.3685 -0.2637  1.3784
16326TIP3   OH270468   4.265   3.118  11.815 -0.2935  0.2610  0.0608
16326TIP3    H170469   4.274   3.039  11.763 -1.9084  0.2674 -0.3020
16326TIP3    H270470   4.297   3.188  11.758 -4.0903  0.5913 -2.0174
16327TIP3   OH270471   3.827   0.604  32.128  0.2761 -0.0265  0.1537
16327TIP3    H170472   3.829   0.514  32.160 -1.0573 -0.9442 -2.0873
16327TIP3    H270473   3.745   0.640  32.164 -1.0934 -0.9768 -1.8053
16328TIP3   OH270474   0.998   2.493  39.525  0.1043 -0.3216  0.2308
16328TIP3    H170475   0.931   2.428  39.544  0.0126  0.0462  1.2185
16328TIP3    H270476   1.068   2.475  39.587  0.1461  0.4062  0.4112
16329TIP3   OH270477   2.317   3.186  29.155  0.3319  0.4249 -0.5285
16329TIP3    H170478   2.248   3.143  29.104  0.2062 -0.7154  0.5412
16329TIP3    H270479   2.381   3.116  29.172  1.7443  1.4307 -1.4248
16330TIP3   OH270480   1.926   4.265  18.047 -0.0496  0.5072 -0.0306
16330TIP3    H170481   1.961   4.189  18.001  0.5927  1.5476 -1.3474
16330TIP3    H270482   1.939   4.246  18.139  1.4440 -0.3637 -0.3838
16331TIP3   OH270483   2.328   1.746   7.299 -0.1771 -0.7583  0.0792
16331TIP3    H170484   2.328   1.721   7.391  0.1221 -0.9413  0.0293
16331TIP3    H270485   2.264   1.817   7.294  0.3248 -0.2716  0.5508
16332TIP3   OH270486   3.033   3.300   0.611 -0.5019 -0.0755  0.0913
16332TIP3    H170487   3.087   3.343   0.678 -0.7835 -0.4267  0.5483
16332TIP3    H270488   2.974   3.243   0.660 -3.3744  2.4613 -0.1107
16333TIP3   OH270489   1.200   1.100   2.794  0.1082 -0.3110  0.2861
16333TIP3    H170490   1.230   1.023   2.747 -2.6912 -0.2593 -1.8148
16333TIP3    H270491   1.262   1.169   2.769  0.5748 -1.0560 -0.6652
16334TIP3   OH270492   2.375   0.592  13.605 -0.0409  0.5028 -0.0281
16334TIP3    H170493   2.309   0.567  13.540  0.1875 -1.0149  0.2770
16334TIP3    H270494   2.452   0.539  13.582  1.1180  2.2592 -0.4013
16335TIP3   OH270495   2.821   1.313  12.901  0.3537 -0.4495  0.5529
16335TIP3    H170496   2.804   1.252  12.973 -0.2016  0.1965  0.9794
16335TIP3    H270497   2.770   1.391  12.923 -0.0392 -0.3415 -0.6795
16336TIP3   OH270498   0.619   3.673  37.408 -0.0398  0.2520 -0.5493
16336TIP3    H170499   0.542   3.726  37.391 -0.1414  0.7184  1.1676
16336TIP3    H270500   0.589   3.604  37.467  0.5509 -0.4451 -1.0394
16337TIP3   OH270501   0.040   4.034  38.834  0.3782  0.4021 -0.1052
16337TIP3    H170502   0.068   4.118  38.869 -0.3215 -0.1905  2.0697
16337TIP3    H270503  -0.052   4.027  38.859  0.2690 -0.7749 -0.7425
16338TIP3   OH270504   1.378   3.154  33.929  0.5235 -0.3269 -0.4847
16338TIP3    H170505   1.377   3.228  33.868  1.6230  1.4283  1.4681
16338TIP3    H270506   1.330   3.186  34.006 -0.5530 -2.3461 -0.2483
16339TIP3   OH270507   2.434   1.236  33.096 -0.3792 -0.1518  0.2958
16339TIP3    H170508   2.509   1.239  33.038 -1.3871 -0.2516 -1.0639
16339TIP3    H270509   2.460   1.289  33.171  1.1297 -0.4019 -0.0119
16340TIP3   OH270510   2.747   0.476  27.503  0.4288  0.3162 -0.1161
16340TIP3    H170511   2.707   0.407  27.555  1.7346 -0.3193  0.0704
16340TIP3    H270512   2.685   0.492  27.432 -1.2769  1.0289  1.4488
16341TIP3   OH270513   0.663   2.260  35.246 -0.5657 -0.1103  0.2261
16341TIP3    H170514   0.684   2.352  35.263 -0.2486  0.0637 -0.9872
16341TIP3    H270515   0.689   2.246  35.155 -1.2041 -1.2361  0.1952
16342TIP3   OH270516   3.884   4.333  11.530  0.5755  0.2588 -0.2436
16342TIP3    H170517   3.928   4.383  11.599  1.1255  0.5413 -0.7889
16342TIP3    H270518   3.810   4.292  11.574  1.6762 -0.6648  0.8111
16343TIP3   OH270519   2.640   1.014   7.538  0.5067  0.1687  0.4226
16343TIP3    H170520   2.698   0.975   7.472  0.1297 -1.7166  1.1397
16343TIP3    H270521   2.597   1.086   7.492  2.7800  1.1077 -0.3543
16344TIP3   OH270522   3.226   2.029   9.704 -0.5692  0.3032 -0.4495
16344TIP3    H170523   3.295   1.965   9.719 -0.3001  0.9298  1.2754
16344TIP3    H270524   3.272   2.113   9.696 -1.1063  0.7358  0.7684
16345TIP3   OH270525   1.494   3.919   3.417  0.2801 -0.0360 -0.4679
16345TIP3    H170526   1.579   3.953   3.390  0.5721 -0.1992  0.2115
16345TIP3    H270527   1.472   3.971   3.495  1.1005 -1.8774  1.0683
16346TIP3   OH270528   3.923   2.505   8.438  0.1865  0.3343 -0.6729
16346TIP3    H170529   3.891   2.443   8.372  1.8060 -0.6210 -0.6276
16346TIP3    H270530   4.012   2.475   8.457 -0.2818  0.4230  2.1247
16347TIP3   OH270531   0.001   0.389  26.421  0.4657 -0.1343 -0.3599
16347TIP3    H170532   0.021   0.385  26.514  0.9941 -0.2749 -0.4756
16347TIP3    H270533  -0.093   0.410  26.417  0.3327 -0.6180  0.1971
16348TIP3   OH270534   1.436   3.047   7.053 -0.5199 -0.4594 -0.0263
16348TIP3    H170535   1.418   3.112   7.121 -0.5498  0.7809 -1.2044
16348TIP3    H270536   1.365   3.058   6.989 -2.3207 -3.6907  1.1296
16349TIP3   OH270537   2.881   2.223  39.313 -0.0829  0.2714  0.7803
16349TIP3    H170538   2.973   2.211  39.291 -0.2288  0.4131  0.0875
16349TIP3    H270539   2.882   2.273  39.395  0.4899 -1.3656  1.8333
16350TIP3   OH270540   1.960   3.921   6.435 -0.1100 -0.0101 -0.5307
16350TIP3    H170541   2.025   3.914   6.365  2.2417  2.3190  1.2380
16350TIP3    H270542   2.004   3.887   6.512 -2.0263 -0.8771  0.2521
16351TIP3   OH270543   2.214   1.677   9.273  0.3067 -0.0109  0.4012
16351TIP3    H170544   2.256   1.659   9.189  0.0006  0.5823  0.1105
16351TIP3    H270545   2.170   1.595   9.296  0.7117 -0.2945  0.1710
16352TIP3   OH270546   1.773   2.358  17.675 -0.1854  0.4087  0.6203
16352TIP3    H170547   1.775   2.294  17.604  1.4338 -0.2952  1.2330
16352TIP3    H270548   1.864   2.364  17.704 -0.2764  3.0287  0.5903
16353TIP3   OH270549   2.160   3.994  11.087 -0.6690  0.0675  0.3488
16353TIP3    H170550   2.165   3.902  11.111 -0.7705  0.2728  1.1873
16353TIP3    H270551   2.245   4.030  11.113 -0.1373 -0.0374 -1.1289
16354TIP3   OH270552   3.749   4.227  31.999  0.0961  0.2788  0.4311
16354TIP3    H170553   3.801   4.218  31.920  0.1346 -0.5381  0.5406
16354TIP3    H270554   3.807   4.197  32.070 -0.4199 -0.3773  0.5843
16355TIP3   OH270555   2.768   3.472   0.762  0.2641 -0.7562  0.8053
16355TIP3    H170556   2.790   3.520   0.841 -2.0628 -0.7210  1.4994
16355TIP3    H270557   2.764   3.380   0.790 -0.8811 -0.7102  0.8310
16356TIP3   OH270558   2.319   4.307  36.129  0.2923  0.0732  0.0044
16356TIP3    H170559   2.382   4.313  36.201  1.3284  0.7191 -0.9200
16356TIP3    H270560   2.373   4.288  36.052 -0.3243  2.6378 -1.1835
16357TIP3   OH270561   4.309   2.339   2.832  0.4255 -0.6668 -0.4957
16357TIP3    H170562   4.374   2.283   2.875  0.7269 -0.1134 -0.2181
16357TIP3    H270563   4.243   2.278   2.799  0.6247 -1.1681  0.0112
16358TIP3   OH270564   4.019   0.395  13.112  0.0800  0.5036 -0.3241
16358TIP3    H170565   3.945   0.455  13.120 -0.8176 -0.6902  0.6104
16358TIP3    H270566   4.074   0.434  13.044 -0.9617  1.8631 -0.4236
16359TIP3   OH270567   1.422   1.769  31.584 -0.1342 -0.5824  0.8252
16359TIP3    H170568   1.329   1.772  31.563  0.0914 -1.3250 -0.3777
16359TIP3    H270569   1.443   1.857  31.614 -1.6183 -0.9031  2.9822
16360TIP3   OH270570   3.878   3.585  31.026  0.1311 -0.1677 -0.4253
16360TIP3    H170571   3.889   3.670  31.069  0.5909 -0.5064  0.1493
16360TIP3    H270572   3.810   3.541  31.077  1.2453 -0.8941  0.5123
16361TIP3   OH270573   4.286   0.623  31.562  0.3911  0.2721 -0.0821
16361TIP3    H170574   4.288   0.660  31.651 -1.1055  0.5738 -0.1387
16361TIP3    H270575   4.364   0.567  31.557  1.7111  1.9471  0.6556
16362TIP3   OH270576   4.004   2.423  38.911  0.1964  0.2593  0.2123
16362TIP3    H170577   4.089   2.418  38.955 -0.5164  0.4004  1.6676
16362TIP3    H270578   3.964   2.502  38.946  0.6800  2.0035 -2.8251
16363TIP3   OH270579   2.615   0.580  32.425 -0.2334 -0.6004  0.1945
16363TIP3    H170580   2.626   0.639  32.500  0.6166 -0.0520 -0.3522
16363TIP3    H270581   2.583   0.498  32.464 -4.2939  1.0053  0.7324
16364TIP3   OH270582   0.887   3.202  34.509 -0.4248  0.8590 -0.2498
16364TIP3    H170583   0.931   3.287  34.502  1.8256 -0.2487 -0.6387
16364TIP3    H270584   0.916   3.167  34.593 -1.4500  0.5240 -0.0254
16365TIP3   OH270585   2.784   4.001   5.785  0.2395 -0.3337  0.0131
16365TIP3    H170586   2.723   4.073   5.773  0.3292 -0.3985 -0.9834
16365TIP3    H270587   2.858   4.023   5.728  0.3325 -1.1255 -0.1923
16366TIP3   OH270588   1.908   3.819  27.948  0.3038 -0.5710 -0.2732
16366TIP3    H170589   1.817   3.790  27.946  0.1307 -0.3499  1.9438
16366TIP3    H270590   1.909   3.898  27.894 -0.9762 -0.2434  0.1438
16367TIP3   OH270591   1.967   3.182   5.347  0.1537 -0.4005 -0.0044
16367TIP3    H170592   2.008   3.100   5.319 -0.8866 -0.6211 -0.9734
16367TIP3    H270593   1.981   3.242   5.274  1.6132  0.5717  1.0258
16368TIP3   OH270594   3.438   1.536   8.108 -0.6933  0.0464 -0.1650
16368TIP3    H170595   3.509   1.473   8.116 -0.4671  0.5275  3.6159
16368TIP3    H270596   3.358   1.484   8.113 -0.5875 -0.2282 -1.1869
16369TIP3   OH270597   1.608   1.886  17.916 -0.0820 -0.5696  0.8446
16369TIP3    H170598   1.540   1.850  17.972 -1.3592  0.8114  0.2399
16369TIP3    H270599   1.568   1.964  17.876  1.2120 -0.7906 -0.9965
16370TIP3   OH270600   1.923   2.124   7.094  0.3225  0.0607 -0.1613
16370TIP3    H170601   1.972   2.047   7.066 -1.8951 -1.5050 -0.0283
16370TIP3    H270602   1.889   2.162   7.013 -1.3071 -1.0841 -0.0549
16371TIP3   OH270603   1.392   0.760  26.956 -0.1008 -0.3013 -0.1582
16371TIP3    H170604   1.382   0.673  26.994 -0.1089  0.5484  1.9373
16371TIP3    H270605   1.390   0.746  26.861 -2.6476 -2.2840  0.0837
16372TIP3   OH270606   0.964   0.178  41.297 -0.5951 -0.0214 -0.0718
16372TIP3    H170607   1.027   0.246  41.319  0.6947 -0.6931 -1.4798
16372TIP3    H270608   0.900   0.222  41.240 -0.2655  0.2186 -0.2610
16373TIP3   OH270609   3.656   0.240  41.391 -0.5330  0.0485  0.2226
16373TIP3    H170610   3.726   0.269  41.451 -1.6686 -2.2473  2.9028
16373TIP3    H270611   3.703   0.208  41.314  1.0478  2.5450  0.0093
16374TIP3   OH270612   3.967   0.505   0.095  0.5580  0.4142 -0.5800
16374TIP3    H170613   4.025   0.440   0.135 -0.5127 -0.9663 -1.2284
16374TIP3    H270614   3.933   0.555   0.169 -0.9317 -1.7198  0.2830
16375TIP3   OH270615   1.913   0.390   6.807 -0.0592 -0.1453  0.2357
16375TIP3    H170616   1.924   0.295   6.803  1.8286  0.0558 -0.0736
16375TIP3    H270617   1.839   0.403   6.866 -0.6457 -1.8145 -0.0793
16376TIP3   OH270618   2.530   4.209  26.885 -0.1131 -0.2018 -0.2020
16376TIP3    H170619   2.485   4.284  26.846 -1.6948 -0.3302  1.2072
16376TIP3    H270620   2.582   4.247  26.956  3.2760  0.1195 -2.6281
16377TIP3   OH270621   1.260   1.604  37.313  0.0922  0.5459 -0.1462
16377TIP3    H170622   1.242   1.532  37.374 -0.2975  0.5182 -0.2875
16377TIP3    H270623   1.273   1.561  37.228  0.0587  0.6297 -0.1935
16378TIP3   OH270624   3.961   1.499   3.058  1.0872 -0.3079  0.0194
16378TIP3    H170625   3.932   1.543   2.978  2.2993  1.0871  0.3046
16378TIP3    H270626   3.956   1.566   3.126  2.0664 -0.8735  0.6767
16379TIP3   OH270627   2.041   2.947  30.357 -0.6686  0.4712  0.4799
16379TIP3    H170628   1.994   3.026  30.384  0.4006  1.4078 -0.2919
16379TIP3    H270629   1.973   2.891  30.318 -1.5959  0.5923  1.8606
16380TIP3   OH270630   3.166   0.073  10.566  0.1329 -0.6736 -0.5617
16380TIP3    H170631   3.162   0.168  10.556  0.8102 -0.5731  0.1386
16380TIP3    H270632   3.074   0.046  10.571 -0.0929 -0.1518 -1.5344
16381TIP3   OH270633   1.308   4.239  38.047 -0.7423  0.2790 -0.2658
16381TIP3    H170634   1.307   4.198  38.133 -0.6547  0.2828 -0.2624
16381TIP3    H270635   1.240   4.193  37.998 -0.4488 -0.0712 -0.3486
16382TIP3   OH270636   4.260   3.262  36.229 -0.5071 -0.4804  0.3501
16382TIP3    H170637   4.316   3.197  36.272  1.2866  1.1296  0.5810
16382TIP3    H270638   4.202   3.294  36.298  0.6115  0.2358  0.9934
16383TIP3   OH270639   2.236   0.322   1.198 -0.1829 -0.1085  0.6987
16383TIP3    H170640   2.177   0.397   1.195 -0.2915 -0.0831  2.4783
16383TIP3    H270641   2.324   0.361   1.194 -0.2217 -0.1218 -1.5148
16384TIP3   OH270642   3.651   0.841   6.296 -0.3193 -0.3397 -0.0373
16384TIP3    H170643   3.580   0.886   6.343 -1.9437 -1.5934 -1.1644
16384TIP3    H270644   3.702   0.799   6.366  0.5998  2.2008  0.9497
16385TIP3   OH270645   1.697   2.190   5.117 -0.1917 -0.6168  0.0794
16385TIP3    H170646   1.762   2.261   5.114 -0.2323 -0.5144  1.1608
16385TIP3    H270647   1.631   2.216   5.053 -0.5922  0.7491  0.9731
16386TIP3   OH270648   1.911   1.589   5.300  0.1615  0.3036 -0.0799
16386TIP3    H170649   1.908   1.539   5.382 -0.1308  1.9187  0.9546
16386TIP3    H270650   1.833   1.563   5.253  0.6088 -1.0489 -0.1096
16387TIP3   OH270651   3.690   0.045   1.193  0.3106  0.0634  0.2328
16387TIP3    H170652   3.682   0.071   1.285  1.4343  0.8219  0.1350
16387TIP3    H270653   3.759   0.101   1.158 -0.8505  0.5488 -1.3838
16388TIP3   OH270654   2.243   1.924  12.790 -0.7438 -0.0952  0.0385
16388TIP3    H170655   2.202   1.846  12.826 -0.8114  0.1103  0.4153
16388TIP3    H270656   2.294   1.892  12.716 -0.9532 -0.4631  0.0489
16389TIP3   OH270657   2.796   1.225  35.670 -0.4150  0.3618 -0.6191
16389TIP3    H170658   2.859   1.289  35.705 -2.0934  1.1584  1.0880
16389TIP3    H270659   2.808   1.229  35.575  1.6304  0.9624 -0.3851
16390TIP3   OH270660   0.018   1.680  21.736 -0.1671  0.6045 -0.1224
16390TIP3    H170661   0.024   1.602  21.680 -1.0818 -0.0895  0.7000
16390TIP3    H270662  -0.075   1.685  21.759  0.1114  1.1224  0.9567
16391TIP3   OH270663   4.229   3.898   3.058  0.3910 -0.3539  0.3066
16391TIP3    H170664   4.305   3.955   3.051 -0.9102  1.3825 -0.3015
16391TIP3    H270665   4.164   3.951   3.105 -0.6808 -1.5495  0.2128
16392TIP3   OH270666   3.879   1.938  11.790  0.4729 -0.0570 -0.0163
16392TIP3    H170667   3.844   1.918  11.877 -1.9235  0.1046 -0.8624
16392TIP3    H270668   3.853   1.864  11.736 -1.6165  1.5700 -1.4228
16393TIP3   OH270669   1.313   1.085   1.272 -0.3505  0.1485 -0.2866
16393TIP3    H170670   1.331   0.995   1.247  1.5605  0.8784 -1.8291
16393TIP3    H270671   1.325   1.087   1.367 -0.5292 -1.2194 -0.2173
16394TIP3   OH270672   3.105   4.222  38.964 -0.0481 -0.0361 -0.2736
16394TIP3    H170673   3.062   4.163  38.902  0.3765  2.1873 -2.8361
16394TIP3    H270674   3.035   4.248  39.024 -0.7519 -1.3548 -0.4863
16395TIP3   OH270675   3.612   2.330  26.418 -0.0834 -0.1743  0.3994
16395TIP3    H170676   3.560   2.285  26.351  0.6050 -0.4299  0.0352
16395TIP3    H270677   3.680   2.376  26.369  0.5281 -0.4928  0.9373
16396TIP3   OH270678   3.038   1.816  26.553 -0.6392 -0.5790  0.3810
16396TIP3    H170679   3.048   1.762  26.475  0.1586  0.4212 -0.2434
16396TIP3    H270680   3.092   1.773  26.619 -0.3264 -0.7728  0.0039
16397TIP3   OH270681   2.561   0.888   3.852 -0.2225 -0.2931 -0.6583
16397TIP3    H170682   2.604   0.816   3.807 -2.5477 -1.9926 -0.3648
16397TIP3    H270683   2.473   0.890   3.815 -0.6679  1.4632  0.3834
16398TIP3   OH270684   4.245   4.366  31.455  0.1627 -0.1444 -0.5989
16398TIP3    H170685   4.261   4.458  31.434  0.6328  0.5929  2.4855
16398TIP3    H270686   4.150   4.358  31.453  0.1555 -0.1118 -2.5539
16399TIP3   OH270687   0.278   2.953  39.482  0.2932  0.4882  0.4356
16399TIP3    H170688   0.317   3.032  39.521  1.3368  0.2643 -0.1006
16399TIP3    H270689   0.344   2.885  39.497  0.1902  0.1308 -0.6613
16400TIP3   OH270690   2.761   0.189   0.135 -0.3255 -0.6233  0.1398
16400TIP3    H170691   2.825   0.204   0.204 -0.9089 -1.1999  0.8258
16400TIP3    H270692   2.676   0.197   0.179 -0.7187 -0.4398 -0.6306
16401TIP3   OH270693   3.360   1.881  11.752 -0.4189  0.0303  0.1644
16401TIP3    H170694   3.278   1.927  11.773  0.0862  1.1785 -0.3156
16401TIP3    H270695   3.428   1.947  11.764  0.6012 -1.2236  1.7419
16402TIP3   OH270696   4.317   1.026  27.237 -0.3615  0.3921 -0.1676
16402TIP3    H170697   4.400   1.051  27.278 -1.2969  0.4545  1.8289
16402TIP3    H270698   4.319   0.930  27.237 -0.2782  0.3932 -0.1152
16403TIP3   OH270699   1.934   1.606  38.200  0.1206 -0.4783  0.1333
16403TIP3    H170700   1.907   1.582  38.111 -0.0789  0.5878 -0.0999
16403TIP3    H270701   1.852   1.607  38.250 -0.1073  1.2223 -0.2209
16404TIP3   OH270702   2.756   2.496  30.288  0.2886  0.0777 -0.6003
16404TIP3    H170703   2.699   2.573  30.292 -0.6309 -0.5056 -1.7792
16404TIP3    H270704   2.741   2.459  30.201  2.4585 -0.1434 -0.9276
16405TIP3   OH270705   0.735   0.308  10.786 -0.8779 -0.5855 -0.0338
16405TIP3    H170706   0.758   0.216  10.799 -0.7419 -0.4268  0.9713
16405TIP3    H270707   0.798   0.356  10.840 -0.8587  0.1081 -0.6597
16406TIP3   OH270708   2.956   0.810  40.008  0.2939 -0.0228  0.1990
16406TIP3    H170709   2.979   0.756  40.083  0.3191  0.0420  0.2404
16406TIP3    H270710   3.040   0.835  39.969  0.3741  1.4928  1.2409
16407TIP3   OH270711   4.051   0.336   8.899  0.2881 -0.9125  0.2873
16407TIP3    H170712   4.007   0.346   8.983  0.3362 -0.1969  0.2343
16407TIP3    H270713   4.057   0.241   8.886 -0.1916 -1.0232  0.8373
16408TIP3   OH270714   3.159   2.866   9.046  0.6899  0.0034  0.4772
16408TIP3    H170715   3.158   2.961   9.038  0.0459  0.0577  1.0975
16408TIP3    H270716   3.201   2.849   9.130 -0.3502 -0.1935  0.9820
16409TIP3   OH270717   0.696   1.218   2.201  0.2365 -0.1264  0.4282
16409TIP3    H170718   0.604   1.239   2.184  0.1451  0.2402  1.3171
16409TIP3    H270719   0.697   1.187   2.292  0.9427 -0.4460  0.3187
16410TIP3   OH270720   0.284   0.851  22.718 -0.6807  0.2663 -0.2415
16410TIP3    H170721   0.297   0.863  22.624  0.9866  1.4789  0.1112
16410TIP3    H270722   0.328   0.769  22.738 -1.6224 -0.3528 -0.5908
16411TIP3   OH270723   4.320   3.627  38.233  0.3513  0.0597  0.1151
16411TIP3    H170724   4.230   3.596  38.244  0.4002 -0.4161 -0.7320
16411TIP3    H270725   4.370   3.579  38.298  0.1716 -0.5141 -0.1637
16412TIP3   OH270726   0.086   2.097  26.716 -0.1355  0.6345  0.3532
16412TIP3    H170727   0.158   2.054  26.762 -1.6700 -0.4553  1.8725
16412TIP3    H270728   0.012   2.090  26.776 -1.7972  0.7532 -1.5707
16413TIP3   OH270729   4.336   2.709  10.210  0.5243 -0.2386  0.3219
16413TIP3    H170730   4.279   2.783  10.189  1.2833 -0.1025 -1.4451
16413TIP3    H270731   4.293   2.633  10.171  1.3563 -0.1808 -0.7636
16414TIP3   OH270732   0.924   0.920  41.274  0.6894  0.2816  0.1424
16414TIP3    H170733   0.916   0.988  41.208  0.4156  1.4060  1.3039
16414TIP3    H270734   1.016   0.894  41.271  0.6352  0.1825 -0.8003
16415TIP3   OH270735   1.914   0.695  12.542 -0.4567  0.0757  0.1221
16415TIP3    H170736   1.849   0.662  12.480  0.4232 -0.2204 -0.6807
16415TIP3    H270737   1.970   0.752  12.489 -0.4710  0.8671  0.9475
16416TIP3   OH270738   3.903   2.185   3.678 -0.1652 -0.3504 -0.2344
16416TIP3    H170739   3.994   2.185   3.647  0.0022  0.7663  0.1971
16416TIP3    H270740   3.860   2.117   3.626  0.4820  0.3510 -1.7496
16417TIP3   OH270741   1.851   2.204  41.587  0.2099 -0.2212  0.3827
16417TIP3    H170742   1.877   2.177  41.675 -0.4844 -1.6534  0.1806
16417TIP3    H270743   1.756   2.213  41.592  0.3082  1.2284  0.1491
16418TIP3   OH270744   1.185   0.561   6.720  0.0762  0.1384  0.5168
16418TIP3    H170745   1.136   0.554   6.639  1.1140 -0.6898 -0.0680
16418TIP3    H270746   1.119   0.578   6.787 -0.8340  0.4437 -0.4343
16419TIP3   OH270747   3.643   3.716  27.433 -0.3509 -0.0070  0.0974
16419TIP3    H170748   3.728   3.687  27.466  0.4288  1.6348 -0.3523
16419TIP3    H270749   3.628   3.662  27.355  0.1690 -0.4617  0.3044
16420TIP3   OH270750   3.928   1.469   2.041  0.8182 -0.1231 -0.3871
16420TIP3    H170751   3.995   1.487   1.975  0.2398 -0.6435 -1.1403
16420TIP3    H270752   3.879   1.395   2.005 -0.5203  0.6051 -0.1226
16421TIP3   OH270753   0.627   3.568   7.970 -0.2247  0.1316 -0.1330
16421TIP3    H170754   0.718   3.586   7.991 -0.0151 -0.4433 -0.5528
16421TIP3    H270755   0.590   3.654   7.948 -0.5211  0.8621  2.7401
16422TIP3   OH270756   3.266   3.029   0.381  0.3122  0.2245 -0.0811
16422TIP3    H170757   3.196   3.094   0.385  1.7571  1.7544  2.2380
16422TIP3    H270758   3.247   2.970   0.454  1.0095  0.1509  0.0389
16423TIP3   OH270759   1.826   1.477  36.794 -0.2310  0.0630 -0.1888
16423TIP3    H170760   1.744   1.489  36.747  0.2973 -1.7143 -1.6567
16423TIP3    H270761   1.823   1.388  36.827  0.6593  0.3313  0.6699
16424TIP3   OH270762   2.243   2.097  18.716  0.7145 -0.0940  0.4147
16424TIP3    H170763   2.247   2.125  18.807 -0.0552 -2.6516  1.3312
16424TIP3    H270764   2.317   2.141  18.674  0.5834  1.8033  2.0376
16425TIP3   OH270765   0.127   2.036  33.289 -0.1910  0.4049 -0.4079
16425TIP3    H170766   0.075   2.105  33.247  0.7991  0.9814 -0.7066
16425TIP3    H270767   0.179   2.082  33.355  0.2785 -0.0901 -0.4282
16426TIP3   OH270768   2.491   1.958  32.119 -0.1211 -0.1362  0.0931
16426TIP3    H170769   2.493   1.967  32.215  0.7700 -0.8163  0.1388
16426TIP3    H270770   2.577   1.988  32.090 -0.3898  0.0728 -0.5052
16427TIP3   OH270771   3.479   1.665  37.978 -0.0024 -0.4758  0.4005
16427TIP3    H170772   3.444   1.736  37.924 -0.7004 -1.0073  0.1375
16427TIP3    H270773   3.519   1.605  37.914 -0.7206 -1.0454  0.4758
16428TIP3   OH270774   4.245   3.316   2.420  0.1538  0.0707 -0.0571
16428TIP3    H170775   4.198   3.399   2.418 -1.1485 -0.5927  1.0390
16428TIP3    H270776   4.233   3.279   2.332 -3.4518 -1.0995  0.7389
16429TIP3   OH270777   3.317   1.265  10.548 -0.3150  0.9741  0.3019
16429TIP3    H170778   3.407   1.297  10.536  0.5071 -0.6649  1.5243
16429TIP3    H270779   3.263   1.322  10.493  1.3926  2.3787 -0.0136
16430TIP3   OH270780   3.368   3.955  12.039  0.3841 -0.4261 -0.6161
16430TIP3    H170781   3.301   4.013  12.004  1.0957  0.1155 -1.0911
16430TIP3    H270782   3.318   3.890  12.091 -0.4380  0.4203 -0.3170
16431TIP3   OH270783   0.597   3.903  10.177 -0.3472  0.2205 -0.2694
16431TIP3    H170784   0.527   3.955  10.138 -0.1800 -0.5330 -1.6211
16431TIP3    H270785   0.676   3.930  10.131  0.4687  1.6962  1.8276
16432TIP3   OH270786   2.384   2.751  12.905 -0.1382  0.2796  0.3905
16432TIP3    H170787   2.343   2.672  12.940 -0.6973  0.3872 -0.0071
16432TIP3    H270788   2.477   2.730  12.901 -0.4396 -0.9685 -1.2155
16433TIP3   OH270789   0.129   3.518  10.649 -0.2444 -0.0117  0.0929
16433TIP3    H170790   0.216   3.553  10.631 -0.3649  0.8458  1.1162
16433TIP3    H270791   0.122   3.443  10.591  0.6681  0.6777 -0.9589
16434TIP3   OH270792   0.038   2.906  21.186 -0.2109 -0.3426  0.0894
16434TIP3    H170793   0.049   2.999  21.208 -0.7767  0.2078 -1.7935
16434TIP3    H270794  -0.046   2.882  21.226 -1.8167  0.9643 -2.2534
16435TIP3   OH270795   0.809   0.996   8.383 -0.1696  0.5999  0.0437
16435TIP3    H170796   0.828   1.087   8.407 -0.4715  0.4120  1.0796
16435TIP3    H270797   0.890   0.964   8.343  0.0710  1.2056  0.0299
16436TIP3   OH270798   2.325   0.890  38.847  0.1033 -0.6746  0.1429
16436TIP3    H170799   2.397   0.881  38.786 -0.3222  2.1727 -0.9372
16436TIP3    H270800   2.250   0.849  38.803  0.1589 -0.0071 -0.5958
16437TIP3   OH270801   2.730   4.387  11.901  0.5764  0.1761  0.3650
16437TIP3    H170802   2.726   4.303  11.856  0.5823 -0.5002  1.6067
16437TIP3    H270803   2.792   4.438  11.849  1.6117 -1.0481  0.3644
16438TIP3   OH270804   0.788   3.949  13.760  0.0442 -0.1020  0.4174
16438TIP3    H170805   0.862   3.939  13.819  1.2011 -0.1505 -0.9796
16438TIP3    H270806   0.712   3.958  13.817  0.7622 -2.5664  1.9047
16439TIP3   OH270807   4.106   2.167  37.249  0.4201  0.4669  0.6525
16439TIP3    H170808   4.124   2.075  37.232  0.2845  0.4183  0.7682
16439TIP3    H270809   4.176   2.194  37.309 -0.2597  0.1052  1.6335
16440TIP3   OH270810   3.182   2.618   2.062  0.1284  0.0143 -0.3438
16440TIP3    H170811   3.275   2.599   2.052  0.1599 -0.9051  1.3282
16440TIP3    H270812   3.179   2.686   2.129 -0.4337 -0.9070  0.5964
16441TIP3   OH270813   1.921   4.251  13.827 -0.1855  0.6048 -0.1722
16441TIP3    H170814   1.964   4.271  13.910 -0.7766  0.5041  0.1639
16441TIP3    H270815   1.981   4.191  13.783 -0.1012  0.2590  0.4069
16442TIP3   OH270816   2.861   0.056  37.627 -0.6370 -0.1469  0.8959
16442TIP3    H170817   2.946   0.056  37.584 -0.7272  0.1655  0.7139
16442TIP3    H270818   2.802   0.096  37.564 -0.8048  0.1505  1.2387
16443TIP3   OH270819   0.813   0.715  41.112 -0.3463 -0.4519  0.1409
16443TIP3    H170820   0.860   0.773  41.173 -0.7146 -2.1285  2.1439
16443TIP3    H270821   0.776   0.774  41.047  3.5088  1.1233 -0.9589
16444TIP3   OH270822   2.853   1.204  39.416  0.4737  0.1622  0.3506
16444TIP3    H170823   2.859   1.171  39.326 -2.4453  1.2389 -0.3568
16444TIP3    H270824   2.829   1.127  39.468 -0.9843  0.0802 -0.3851
16445TIP3   OH270825   4.028   4.311  29.077 -0.3061  0.2210  0.1723
16445TIP3    H170826   3.964   4.279  29.014 -0.8740 -0.9460  1.2786
16445TIP3    H270827   3.981   4.376  29.129 -0.0043  0.7707 -0.2275
16446TIP3   OH270828   2.180   2.274   2.029  0.1707 -0.3862 -0.0883
16446TIP3    H170829   2.098   2.229   2.047 -1.6210  2.9184  0.8163
16446TIP3    H270830   2.187   2.340   2.097  4.3888 -1.3575  0.7013
16447TIP3   OH270831   1.603   3.143   6.168  0.2063  0.5020  0.8979
16447TIP3    H170832   1.599   3.143   6.073  1.7683  1.2333  0.8001
16447TIP3    H270833   1.587   3.233   6.194  1.5240  0.6732  1.1993
16448TIP3   OH270834   0.449   0.044  12.648  0.8063 -0.0664 -0.1369
16448TIP3    H170835   0.467   0.001  12.732 -2.1799 -3.5504 -1.0347
16448TIP3    H270836   0.379   0.106  12.667 -0.0982 -1.0898 -0.0715
16449TIP3   OH270837   1.258   3.203  14.200 -0.1650  0.1421  0.1244
16449TIP3    H170838   1.168   3.188  14.229 -0.7667  0.4934 -1.4505
16449TIP3    H270839   1.260   3.170  14.110  1.5804 -0.8253  0.4773
16450TIP3   OH270840   0.280   1.237  11.691  0.3454 -0.2557 -0.4938
16450TIP3    H170841   0.297   1.316  11.640 -0.3201 -0.3404 -0.8508
16450TIP3    H270842   0.354   1.232  11.752 -1.0803  2.3290  1.6832
16451TIP3   OH270843   2.287   3.782  26.808  0.3321  0.5421  0.1469
16451TIP3    H170844   2.247   3.738  26.883 -0.3016  0.8353 -0.0212
16451TIP3    H270845   2.220   3.841  26.775  0.3975  0.0220 -0.9882
16452TIP3   OH270846   0.221   0.745  34.753 -0.0211  0.5261 -0.3574
16452TIP3    H170847   0.239   0.655  34.779  2.1658  0.7346 -0.9406
16452TIP3    H270848   0.213   0.793  34.835  0.7891  0.1485 -0.0526
16453TIP3   OH270849   0.862   2.126  38.128  0.0694  0.1483  0.6560
16453TIP3    H170850   0.950   2.106  38.160  1.1251  0.7272 -1.6581
16453TIP3    H270851   0.846   2.215  38.159  1.3667  0.9702 -0.8341
16454TIP3   OH270852   3.511   3.799  11.575 -0.7538  0.1343  0.0522
16454TIP3    H170853   3.454   3.784  11.650  0.8841 -2.5696  0.9051
16454TIP3    H270854   3.540   3.712  11.549  1.0629  1.2099 -1.8499
16455TIP3   OH270855   3.285   2.950  33.830  0.1562 -0.7211 -0.8075
16455TIP3    H170856   3.368   2.936  33.876  0.0585 -0.0434 -0.4216
16455TIP3    H270857   3.227   2.987  33.895  0.4560  1.6986 -1.8123
16456TIP3   OH270858   0.793   0.167   0.405  0.0660  0.1937 -0.2675
16456TIP3    H170859   0.835   0.236   0.456  0.5746 -0.1929 -0.1510
16456TIP3    H270860   0.776   0.097   0.469 -0.9244  0.4077 -0.2757
16457TIP3   OH270861   0.297   2.264  28.104  0.2565 -0.4675 -0.0997
16457TIP3    H170862   0.213   2.310  28.096 -0.5235 -2.0507 -1.5723
16457TIP3    H270863   0.315   2.263  28.198  0.1598  2.4563  0.0638
16458TIP3   OH270864   1.903   0.974   4.702  0.6522 -0.1996 -0.1299
16458TIP3    H170865   1.992   1.009   4.695  0.3595  0.4710 -0.5303
16458TIP3    H270866   1.901   0.901   4.640  0.2335  1.2468 -1.8992
16459TIP3   OH270867   2.777   1.950  28.589  0.2749  0.0617 -0.3563
16459TIP3    H170868   2.826   1.994  28.658 -0.5175 -0.8864  0.8431
16459TIP3    H270869   2.751   1.866  28.627 -3.4023  1.0007 -0.4164
16460TIP3   OH270870   1.530   3.212  34.822  0.2521 -0.5501  0.0862
16460TIP3    H170871   1.559   3.262  34.898  3.2704 -3.3919  1.0107
16460TIP3    H270872   1.596   3.228  34.755  0.0524 -1.5409 -0.3724
16461TIP3   OH270873   1.930   3.568  28.085 -0.1950  0.3702  0.3304
16461TIP3    H170874   1.855   3.514  28.058  1.3801 -0.6662 -2.4943
16461TIP3    H270875   1.918   3.651  28.039  1.2058 -0.4777 -1.7576
16462TIP3   OH270876   1.181   2.478   0.367 -0.4811 -0.0716 -0.5163
16462TIP3    H170877   1.259   2.495   0.315 -0.0433 -0.9796 -0.1734
16462TIP3    H270878   1.152   2.565   0.395 -0.4876  0.3944 -1.9078
16463TIP3   OH270879   4.203   0.481   7.529  0.4326  0.6546 -0.2528
16463TIP3    H170880   4.121   0.437   7.506 -0.3723  1.1166  1.5828
16463TIP3    H270881   4.213   0.549   7.462 -0.1918  0.0114 -1.0283
16464TIP3   OH270882   1.630   2.864   8.080  0.2516 -0.6922 -0.0505
16464TIP3    H170883   1.541   2.870   8.044  0.8112 -0.0013 -1.3664
16464TIP3    H270884   1.686   2.903   8.013  1.5813 -1.2807  0.6806
16465TIP3   OH270885   2.325   3.510  10.674  0.3001 -0.5647  0.2690
16465TIP3    H170886   2.312   3.604  10.681  0.2101 -0.3930 -1.6406
16465TIP3    H270887   2.420   3.498  10.686  0.3111 -0.2493  0.5278
16466TIP3   OH270888   3.302   4.396  27.340  0.2692 -0.4000 -0.1382
16466TIP3    H170889   3.353   4.319  27.362  1.7631  0.5782  0.0010
16466TIP3    H270890   3.229   4.363  27.287  0.1771 -2.0162  0.9524
16467TIP3   OH270891   2.875   0.949  31.168 -0.2073 -0.1031 -0.5615
16467TIP3    H170892   2.951   0.939  31.225  0.2775 -1.8356 -1.4124
16467TIP3    H270893   2.847   0.859  31.150 -1.7153  0.4684 -1.2494
16468TIP3   OH270894   0.606   1.219   7.102  0.1850  0.1822 -0.2714
16468TIP3    H170895   0.644   1.145   7.055  0.1558 -0.1799  0.2681
16468TIP3    H270896   0.671   1.241   7.169  1.1609  1.9721 -1.6897
16469TIP3   OH270897   2.978   1.217  39.876  0.1916 -0.4265  0.4512
16469TIP3    H170898   3.007   1.192  39.788  0.1813 -1.1364  0.6402
16469TIP3    H270899   3.053   1.264  39.913 -0.2513  1.0053 -0.3756
16470TIP3   OH270900   3.665   4.119   8.586  0.2984 -0.0708  0.4802
16470TIP3    H170901   3.709   4.170   8.519  2.0254 -3.4039 -1.1307
16470TIP3    H270902   3.680   4.168   8.667  0.7732  2.4958 -1.0429
16471TIP3   OH270903   2.518   3.687  13.918 -0.2690 -0.2740 -0.5543
16471TIP3    H170904   2.468   3.762  13.950  0.2807  0.3213 -1.0585
16471TIP3    H270905   2.603   3.724  13.895  0.8233 -1.4268  1.3331
16472TIP3   OH270906   2.602   3.857  13.282 -0.1027 -0.7101 -0.5427
16472TIP3    H170907   2.506   3.852  13.291  0.0117 -0.7801  0.9468
16472TIP3    H270908   2.623   3.788  13.220 -0.9195 -1.6339  0.1567
16473TIP3   OH270909   2.113   2.222   2.785  0.4032 -0.2995 -1.0723
16473TIP3    H170910   2.100   2.239   2.692  0.9331  0.5878 -0.9960
16473TIP3    H270911   2.190   2.166   2.790  2.2161  2.0543 -1.0483
16474TIP3   OH270912   0.002   2.451  11.779  0.8001 -0.2588  0.2171
16474TIP3    H170913   0.035   2.364  11.799 -0.6636 -1.0898 -0.8174
16474TIP3    H270914   0.059   2.482  11.708  0.7250 -0.7948 -0.0862
16475TIP3   OH270915   1.452   0.772  37.730 -0.5729  0.5108  0.3291
16475TIP3    H170916   1.496   0.697  37.691 -1.5716 -1.0122  2.0078
16475TIP3    H270917   1.459   0.759  37.824  2.1782  4.3075  0.9070
16476TIP3   OH270918   0.390   1.039   3.399  0.7506  0.0589 -0.0703
16476TIP3    H170919   0.403   1.114   3.456  0.3647 -0.6977  1.0512
16476TIP3    H270920   0.352   1.075   3.319 -1.2303  0.8585  1.1701
16477TIP3   OH270921   4.331   3.930   1.599 -0.1032  0.1916 -0.2256
16477TIP3    H170922   4.328   3.933   1.503  1.8708 -0.7410 -0.3498
16477TIP3    H270923   4.240   3.942   1.625 -0.8777 -0.6961 -2.2546
16478TIP3   OH270924   1.917   0.235  29.150  0.6972 -0.2153 -0.7985
16478TIP3    H170925   1.839   0.204  29.196  0.7146  0.6233 -0.1863
16478TIP3    H270926   1.883   0.283  29.074  0.6354 -0.4505 -0.9191
16479TIP3   OH270927   3.721   1.528  34.752 -0.7928 -0.2191  0.7116
16479TIP3    H170928   3.655   1.500  34.689 -1.2273 -0.1459  1.1272
16479TIP3    H270929   3.694   1.616  34.778 -0.8440 -0.4026  1.2955
16480TIP3   OH270930   0.228   1.490   4.020 -0.0636  0.3285 -0.0180
16480TIP3    H170931   0.273   1.445   3.949  0.4654  0.0757  0.4727
16480TIP3    H270932   0.298   1.520   4.078 -0.5601 -1.7737  1.7839
16481TIP3   OH270933   3.851   1.524   0.807  0.4129  0.2300 -0.0909
16481TIP3    H170934   3.859   1.490   0.718 -0.9510 -3.1490  0.9185
16481TIP3    H270935   3.909   1.468   0.859  0.1386  1.2454  1.3739
16482TIP3   OH270936   3.560   2.865  38.064  0.0413  0.0034 -0.2872
16482TIP3    H170937   3.600   2.921  37.997 -0.1170  0.6607  0.1747
16482TIP3    H270938   3.500   2.809  38.015  2.4328 -1.9519 -1.2360
16483TIP3   OH270939   2.934   2.774  29.470  0.4501 -0.0337  0.2130
16483TIP3    H170940   2.883   2.839  29.421  1.3250  0.7461  0.3260
16483TIP3    H270941   3.010   2.822  29.502  0.3241 -0.7321  1.6343
16484TIP3   OH270942   4.303   2.959   6.112 -0.0071  0.2059  0.0946
16484TIP3    H170943   4.287   2.883   6.056 -0.0032  1.0836 -1.1436
16484TIP3    H270944   4.397   2.975   6.106  0.4559 -1.1790  2.3926
16485TIP3   OH270945   1.070   3.233   8.529  0.6232  0.4379 -0.4561
16485TIP3    H170946   1.042   3.249   8.619  2.1533  3.3867 -0.3756
16485TIP3    H270947   1.108   3.145   8.532 -0.2762  0.0414  1.5026
16486TIP3   OH270948   3.787   1.950  28.731  0.0785 -0.6745  0.1333
16486TIP3    H170949   3.877   1.984  28.726  0.5816 -2.0335 -0.6951
16486TIP3    H270950   3.775   1.929  28.823 -0.2131  1.5467  0.6575
16487TIP3   OH270951   4.259   0.989  40.703 -0.1385  0.1791  0.3740
16487TIP3    H170952   4.335   0.987  40.761 -0.2884 -1.1850  0.5553
16487TIP3    H270953   4.237   1.082  40.695  2.4600  0.7687 -0.9211
16488TIP3   OH270954   3.494   1.423   5.340  0.0865 -0.5335 -0.1823
16488TIP3    H170955   3.535   1.507   5.317 -1.8020 -0.0152 -1.9555
16488TIP3    H270956   3.450   1.440   5.423  1.3581 -0.3890  0.4858
16489TIP3   OH270957   3.502   0.306  30.056 -0.1112  0.1064  0.2571
16489TIP3    H170958   3.475   0.397  30.068  0.0356  0.1760  0.0730
16489TIP3    H270959   3.436   0.254  30.101 -1.1171  0.2138 -1.0368
16490TIP3   OH270960   4.369   1.356   9.527  0.7501 -0.0193 -0.2121
16490TIP3    H170961   4.309   1.430   9.528 -0.5148 -1.0059 -0.3970
16490TIP3    H270962   4.383   1.338   9.434  2.5732  1.1427 -0.2022
16491TIP3   OH270963   2.738   0.400   3.203 -0.3475  0.0066  0.6115
16491TIP3    H170964   2.689   0.368   3.278 -1.7164  1.4044  0.3470
16491TIP3    H270965   2.809   0.337   3.193 -0.5995 -0.6621  2.5619
16492TIP3   OH270966   3.619   1.412  26.767 -0.1333  0.3197 -0.0275
16492TIP3    H170967   3.548   1.379  26.823 -1.1724  1.1653 -0.8183
16492TIP3    H270968   3.635   1.341  26.704  0.0401 -0.0455  0.4201
16493TIP3   OH270969   0.581   4.348  29.692  0.4969  0.4024 -0.5084
16493TIP3    H170970   0.574   4.435  29.731 -1.3156 -0.6374  1.7506
16493TIP3    H270971   0.652   4.306  29.739 -2.1310 -1.0901  2.4640
16494TIP3   OH270972   2.098   0.250  33.521 -0.5688  0.5174 -0.4102
16494TIP3    H170973   2.042   0.177  33.547  1.6568 -0.5668  1.7209
16494TIP3    H270974   2.099   0.246  33.425 -1.9496 -1.0654 -0.4106
16495TIP3   OH270975   1.008   3.307   1.071  0.2631 -0.2334  0.0134
16495TIP3    H170976   0.915   3.288   1.077  0.1499 -0.1325 -1.2167
16495TIP3    H270977   1.030   3.291   0.980  2.3583 -4.3417  1.0009
16496TIP3   OH270978   0.607   3.455  35.868  0.2678  0.3433 -0.4212
16496TIP3    H170979   0.581   3.478  35.779 -1.0294 -0.3096 -0.2433
16496TIP3    H270980   0.697   3.487  35.876  0.2923  0.7116 -1.8423
16497TIP3   OH270981   1.845   2.476   9.423 -0.1432 -0.5470 -0.7745
16497TIP3    H170982   1.808   2.388   9.418 -0.4033 -0.4033 -1.4490
16497TIP3    H270983   1.772   2.534   9.402  0.1537 -0.1979 -0.8451
16498TIP3   OH270984   1.856   3.057   6.274 -0.5214 -0.3602 -0.9088
16498TIP3    H170985   1.767   3.072   6.241 -0.9936  1.3064  0.9378
16498TIP3    H270986   1.848   2.983   6.333 -0.6107 -0.4418 -1.0227
16499TIP3   OH270987   2.259   4.397  29.547 -0.2866  0.1516  0.2650
16499TIP3    H170988   2.196   4.381  29.476 -2.3451  0.4707  1.9331
16499TIP3    H270989   2.333   4.439  29.503 -1.5839  0.5525 -1.6870
16500TIP3   OH270990   2.257   3.353   2.727 -0.3389  0.1246  0.7369
16500TIP3    H170991   2.234   3.277   2.674  1.3311  0.3663 -0.4003
16500TIP3    H270992   2.329   3.395   2.680 -1.0533  2.3044  1.4378
16501TIP3   OH270993   0.552   2.123  36.945  0.3807  0.5148 -0.5321
16501TIP3    H170994   0.576   2.148  37.034  0.8087 -1.2413 -0.1161
16501TIP3    H270995   0.577   2.198  36.891  0.5176  1.4217  0.7643
16502TIP3   OH270996   0.980   0.325  28.768 -0.4653  0.3562 -0.3568
16502TIP3    H170997   1.060   0.274  28.769 -1.6435 -1.5957 -0.5708
16502TIP3    H270998   1.003   0.408  28.810  2.0881  0.6046 -2.0195
16503TIP3   OH270999   4.192   3.527  10.823  0.5034  0.1416  0.4546
16503TIP3    H171000   4.157   3.600  10.874 -1.5232 -2.0115  2.3479
16503TIP3    H271001   4.160   3.543  10.734  0.2373  1.6263  0.7897
16504TIP3   OH271002   0.340   1.829   7.518 -0.1492 -0.3638  0.2157
16504TIP3    H171003   0.310   1.755   7.466 -0.9873 -1.7855  2.5451
16504TIP3    H271004   0.284   1.902   7.491 -1.1622 -1.2784 -0.2466
16505TIP3   OH271005   0.061   2.012  36.286  0.0578  0.1808  0.2583
16505TIP3    H171006   0.096   2.076  36.348  0.5190 -0.5028  0.7096
16505TIP3    H271007   0.115   2.023  36.208  2.1947 -1.7029  1.3562
16506TIP3   OH271008   4.239   3.342  11.252 -0.7456  0.1156 -0.9263
16506TIP3    H171009   4.187   3.323  11.175 -0.2688  1.9636 -1.7589
16506TIP3    H271010   4.214   3.431  11.277 -0.1433 -0.0623  0.4420
16507TIP3   OH271011   4.085   3.940   1.117  0.8420 -0.5995 -0.0399
16507TIP3    H171012   4.044   4.018   1.080  1.1891 -0.6565 -0.5435
16507TIP3    H271013   4.040   3.867   1.075 -0.0980 -0.7019  1.0788
16508TIP3   OH271014   2.013   2.605   7.152  0.2319 -0.1459  0.4048
16508TIP3    H171015   1.977   2.630   7.067  0.3500 -0.5233  0.2398
16508TIP3    H271016   2.009   2.509   7.152  2.1395 -0.2587 -0.0249
16509TIP3   OH271017   2.305   1.257  10.593 -0.5953 -0.3752 -0.3187
16509TIP3    H171018   2.375   1.286  10.651 -0.5572  1.0570 -1.0182
16509TIP3    H271019   2.321   1.164  10.578  0.4319 -0.3402  0.5009
16510TIP3   OH271020   0.432   2.466   7.278  0.0350 -0.0333  0.3777
16510TIP3    H171021   0.523   2.444   7.296  0.8403  2.1623 -0.6428
16510TIP3    H271022   0.437   2.539   7.215 -2.4187  0.1221  0.2751
16511TIP3   OH271023   1.044   2.891  15.781  0.3236 -0.4718 -0.6732
16511TIP3    H171024   1.053   2.894  15.876 -0.6305 -0.8629 -0.5674
16511TIP3    H271025   0.979   2.957  15.760  0.2530 -0.6469 -1.0181
16512TIP3   OH271026   1.358   2.534   4.456  0.3869 -0.8418  0.1373
16512TIP3    H171027   1.349   2.525   4.361  1.4359  0.9425 -0.1767
16512TIP3    H271028   1.270   2.557   4.486  0.3784  0.2341 -0.6500
16513TIP3   OH271029   3.403   4.212  35.036  0.2576  0.3251  0.2275
16513TIP3    H171030   3.439   4.209  34.948 -0.5835  3.5230 -0.3665
16513TIP3    H271031   3.404   4.305  35.059 -1.4813 -0.1716  2.7533
16514TIP3   OH271032   2.256   2.949   7.843 -0.0453  0.2919  0.2963
16514TIP3    H171033   2.164   2.924   7.844  0.0581 -0.2163  2.4882
16514TIP3    H271034   2.303   2.870   7.869  1.1111  0.3693 -1.3888
16515TIP3   OH271035   4.114   2.129  13.531  0.0767  0.4261 -0.2847
16515TIP3    H171036   4.042   2.169  13.579 -0.7787 -0.7358 -0.5476
16515TIP3    H271037   4.193   2.151  13.581 -0.7662 -0.6739  1.6400
16516TIP3   OH271038   4.155   1.637  37.986  0.5071  0.8447  0.0406
16516TIP3    H171039   4.184   1.718  38.027  0.4778  0.8808 -0.0085
16516TIP3    H271040   4.075   1.613  38.033  1.4903 -0.1276  1.2833
16517TIP3   OH271041   3.343   4.162  38.812 -0.0112  0.9678  0.1116
16517TIP3    H171042   3.317   4.193  38.898  0.1487  1.1942  0.0807
16517TIP3    H271043   3.264   4.120  38.777 -0.2123  1.2807  0.1848
16518TIP3   OH271044   0.592   1.877   2.813 -0.2262  0.5109 -0.0131
16518TIP3    H171045   0.589   1.800   2.756 -0.9514  1.0172 -0.6738
16518TIP3    H271046   0.509   1.876   2.860 -0.6825  1.4351 -0.7700
16519TIP3   OH271047   1.644   0.514  33.577 -0.3458 -0.1696 -0.3312
16519TIP3    H171048   1.610   0.519  33.487 -0.8997  0.0172 -0.1162
16519TIP3    H271049   1.622   0.425  33.605  1.5924 -0.9288 -1.0630
16520TIP3   OH271050   2.558   1.966   7.881 -0.0371  0.8828  0.3457
16520TIP3    H171051   2.582   2.029   7.813  2.6196  2.2021  2.3266
16520TIP3    H271052   2.606   1.886   7.858  1.6148  1.6180  1.0713
16521TIP3   OH271053   0.622   3.098  38.732  0.4097 -0.0696  0.0267
16521TIP3    H171054   0.636   3.053  38.816  0.5633  1.6036  0.9337
16521TIP3    H271055   0.658   3.185  38.745 -1.5086  0.9561 -1.0466
16522TIP3   OH271056   2.631   3.672   3.332 -0.0563  0.1971 -0.4642
16522TIP3    H171057   2.591   3.725   3.401  0.1325  1.2529 -1.1333
16522TIP3    H271058   2.713   3.717   3.312 -0.0056 -0.2152 -1.2236
16523TIP3   OH271059   3.305   1.080  31.666  0.4103 -0.0999 -0.1594
16523TIP3    H171060   3.214   1.105  31.651  0.2715 -0.1550  0.5849
16523TIP3    H271061   3.325   1.109  31.755  0.2715 -2.5283  0.7428
16524TIP3   OH271062   0.462   1.057  34.730  0.3413  0.1845 -0.6256
16524TIP3    H171063   0.489   1.069  34.821  0.9384  0.1967 -0.7986
16524TIP3    H271064   0.374   1.095  34.726 -0.6574 -1.8429  0.4872
16525TIP3   OH271065   1.213   1.141   7.946  0.1266 -0.2712  0.1476
16525TIP3    H171066   1.178   1.188   7.870  0.1316  1.0726  0.9324
16525TIP3    H271067   1.283   1.087   7.911 -0.7720 -0.7311 -1.0029
16526TIP3   OH271068   1.847   2.426  39.587  0.1480  0.8240  0.3517
16526TIP3    H171069   1.900   2.348  39.570  0.2080  1.0491 -0.5502
16526TIP3    H271070   1.897   2.497  39.547 -1.5360  0.8356 -1.9011
16527TIP3   OH271071   2.446   3.622   0.876 -0.6212 -0.6715 -0.0195
16527TIP3    H171072   2.434   3.538   0.920 -0.4453 -0.6468  0.0761
16527TIP3    H271073   2.360   3.664   0.880 -0.4138 -0.3324  0.9918
16528TIP3   OH271074   0.666   0.260  31.812 -0.1573  0.4573 -0.2741
16528TIP3    H171075   0.652   0.170  31.841 -0.9154  0.5447 -0.3374
16528TIP3    H271076   0.723   0.299  31.879 -1.8957  0.6727  1.1850
16529TIP3   OH271077   4.148   2.977  34.213  0.0078  0.1093 -0.2140
16529TIP3    H171078   4.110   2.892  34.189 -0.4252  0.3254 -0.3086
16529TIP3    H271079   4.239   2.971  34.184 -0.3623  0.1649 -1.4772
16530TIP3   OH271080   2.502   1.539  34.970 -0.0543  0.0230  0.0236
16530TIP3    H171081   2.538   1.625  34.992 -0.0210 -0.3504  1.5770
16530TIP3    H271082   2.577   1.480  34.978 -0.2859 -0.2868 -0.0817
16531TIP3   OH271083   4.389   2.575  40.400  0.1810 -0.0677 -0.1946
16531TIP3    H171084   4.476   2.538  40.383  0.3128 -0.8889  1.9456
16531TIP3    H271085   4.404   2.642  40.467 -0.5369  1.5463 -1.6003
16532TIP3   OH271086   3.849   4.090  32.361 -0.6046 -0.0368 -0.4527
16532TIP3    H171087   3.769   4.043  32.383  0.9912 -1.7546  2.3938
16532TIP3    H271088   3.897   4.030  32.305 -1.1497  0.8868 -1.9536
16533TIP3   OH271089   1.242   1.863   7.921 -0.0774  0.2016  0.2111
16533TIP3    H171090   1.295   1.787   7.946 -0.9302 -0.4726 -0.0034
16533TIP3    H271091   1.176   1.828   7.861 -0.1374  1.2141 -0.3368
16534TIP3   OH271092   3.692   2.411   2.079  0.1672  0.0623 -0.1331
16534TIP3    H171093   3.744   2.480   2.121  1.2244  0.9871 -2.7902
16534TIP3    H271094   3.751   2.371   2.016 -0.7091 -2.7549  0.6739
16535TIP3   OH271095   1.639   0.329   8.619  0.1348  0.7198 -0.5526
16535TIP3    H171096   1.692   0.250   8.610 -1.4001 -0.6838  1.8232
16535TIP3    H271097   1.555   0.307   8.578 -0.1916  1.2305 -0.1755
16536TIP3   OH271098   3.076   0.755   4.114 -0.2788 -0.0372 -0.5073
16536TIP3    H171099   3.171   0.769   4.104 -0.2004  0.5397  0.8348
16536TIP3    H271100   3.068   0.704   4.194 -1.1028 -0.1750 -0.6738
16537TIP3   OH271101   3.167   3.813   2.553 -0.5713 -0.0844  0.3956
16537TIP3    H171102   3.099   3.856   2.606  1.9874  0.4168  3.5964
16537TIP3    H271103   3.210   3.753   2.614  0.3295 -2.2208 -2.1672
16538TIP3   OH271104   1.050   0.885  35.788  0.1445  0.1381 -0.4753
16538TIP3    H171105   1.016   0.861  35.701 -0.0056  0.3786 -0.4824
16538TIP3    H271106   1.095   0.806  35.818 -2.4895 -1.0964  0.5898
16539TIP3   OH271107   1.282   0.203   2.164 -0.0448 -0.4026  0.6700
16539TIP3    H171108   1.358   0.260   2.148  0.3242 -0.9056  0.6324
16539TIP3    H271109   1.310   0.117   2.135 -0.7908 -0.5041  0.2326
16540TIP3   OH271110   1.222   1.025  27.726 -0.6472  0.3871 -0.2536
16540TIP3    H171111   1.146   0.989  27.772 -0.4080 -2.3876 -1.7999
16540TIP3    H271112   1.296   1.011  27.785 -1.1101  2.1936  0.8373
16541TIP3   OH271113   2.173   0.184   5.101  0.4138 -0.7564 -0.3171
16541TIP3    H171114   2.079   0.193   5.084  0.3306  0.9571  0.7880
16541TIP3    H271115   2.197   0.101   5.059 -1.4910 -1.0264 -0.9889
16542TIP3   OH271116   3.218   3.391  28.750 -0.1956  0.1361 -0.0991
16542TIP3    H171117   3.164   3.368  28.826 -1.6956  1.7644 -0.5866
16542TIP3    H271118   3.181   3.340  28.678 -0.6140  0.6672 -0.2726
16543TIP3   OH271119   3.910   0.881   4.184  0.1871  0.0499  0.0676
16543TIP3    H171120   3.949   0.966   4.204 -1.8804  0.5417  2.5004
16543TIP3    H271121   3.884   0.887   4.092 -0.9384  2.5097  0.4780
16544TIP3   OH271122   1.517   3.144  12.164  0.4383  0.3713 -0.1874
16544TIP3    H171123   1.546   3.080  12.230  0.9617 -1.5712 -2.1675
16544TIP3    H271124   1.505   3.225  12.213 -0.0160 -1.1588  2.4318
16545TIP3   OH271125   1.781   1.426   7.837  0.2635  0.2828  0.3389
16545TIP3    H171126   1.830   1.436   7.919  2.0330  0.7841 -0.7117
16545TIP3    H271127   1.819   1.348   7.796 -0.1811  0.3865 -0.2806
16546TIP3   OH271128   0.587   1.623  12.162 -0.1805  0.4758  0.3062
16546TIP3    H171129   0.532   1.598  12.236  0.6763  0.6527  1.0262
16546TIP3    H271130   0.673   1.585  12.183 -0.1273 -0.1631 -0.9932
16547TIP3   OH271131   1.304   4.077   7.990 -0.4675 -0.4944 -0.4787
16547TIP3    H171132   1.294   4.170   7.969  0.1454 -0.4070 -0.3938
16547TIP3    H271133   1.341   4.077   8.079 -1.1925 -0.8293 -0.1721
16548TIP3   OH271134   1.088   2.879  29.823 -0.0332  0.0080 -0.4243
16548TIP3    H171135   1.046   2.824  29.889  1.0736 -0.5608 -0.1649
16548TIP3    H271136   1.021   2.893  29.757 -0.6460 -0.8119  0.0103
16549TIP3   OH271137   3.922   2.738  41.272  0.1391  0.1642 -0.2548
16549TIP3    H171138   3.946   2.802  41.205  0.2584 -1.0010 -1.3576
16549TIP3    H271139   3.996   2.737  41.332  0.2256  0.8982 -0.3417
16550TIP3   OH271140   3.840   0.718  31.009  0.4507  0.5652 -0.1894
16550TIP3    H171141   3.822   0.625  30.994  1.3996  0.4414 -0.6369
16550TIP3    H271142   3.866   0.723  31.101  1.5950  0.1713 -0.4686
16551TIP3   OH271143   0.603   3.869   7.886 -0.0251 -0.1224  0.1633
16551TIP3    H171144   0.508   3.871   7.878 -0.2545  0.4901  2.2559
16551TIP3    H271145   0.628   3.961   7.893  0.8964 -0.2032 -1.5968
16552TIP3   OH271146   2.644   1.582   6.115 -0.0017 -0.0236  0.0802
16552TIP3    H171147   2.719   1.611   6.064  1.2407 -0.9914  1.2630
16552TIP3    H271148   2.597   1.663   6.137  1.5546  0.7955  0.5905
16553TIP3   OH271149   3.529   2.345  31.195  0.8277 -0.2150  0.0907
16553TIP3    H171150   3.436   2.364  31.188  0.8639 -0.2397 -0.5416
16553TIP3    H271151   3.568   2.427  31.226  0.6488 -0.0718 -0.0648
16554TIP3   OH271152   1.225   1.741   4.263  0.2062 -0.0189 -0.4948
16554TIP3    H171153   1.233   1.835   4.276  2.2600 -0.2915  0.8015
16554TIP3    H271154   1.232   1.729   4.168  1.2607  1.0640 -0.5750
16555TIP3   OH271155   4.187   1.317   8.047  0.4806  0.3159  0.1960
16555TIP3    H171156   4.249   1.353   8.111 -0.7813 -0.1729  1.7507
16555TIP3    H271157   4.121   1.385   8.036  0.7852  0.4683 -0.7494
16556TIP3   OH271158   3.578   2.689  27.503 -0.3536  0.3964 -0.2288
16556TIP3    H171159   3.578   2.779  27.536  2.0190  0.0933  0.7881
16556TIP3    H271160   3.609   2.636  27.577  3.0234 -0.5965 -2.1588
16557TIP3   OH271161   0.896   2.538  36.566 -0.4713 -0.0318 -0.4995
16557TIP3    H171162   0.935   2.569  36.648 -1.1318  1.7284 -0.7964
16557TIP3    H271163   0.900   2.443  36.572  1.9208  0.0482  0.3916
16558TIP3   OH271164   2.978   1.380  28.485 -0.8979 -0.2588 -0.2178
16558TIP3    H171165   2.920   1.307  28.504 -0.2258 -1.2621 -1.8143
16558TIP3    H271166   2.957   1.404  28.395 -0.6629  1.1165  0.0717
16559TIP3   OH271167   2.528   0.492  34.710 -0.3165  0.3057 -0.2197
16559TIP3    H171168   2.612   0.500  34.755  0.2022 -2.3394 -0.5498
16559TIP3    H271169   2.484   0.575  34.726  1.8158  1.2627  1.0741
16560TIP3   OH271170   3.696   0.282  38.944 -0.4786 -0.5575 -0.3274
16560TIP3    H171171   3.751   0.208  38.972 -0.0112  0.3265  1.2499
16560TIP3    H271172   3.635   0.244  38.881 -0.7587 -2.4766  0.9877
16561TIP3   OH271173   3.540   1.084  30.048 -0.4997 -0.0969  0.1969
16561TIP3    H171174   3.618   1.032  30.065 -1.3748 -1.7872 -0.6960
16561TIP3    H271175   3.492   1.034  29.982 -2.0808  1.1666  0.3325
16562TIP3   OH271176   0.603   2.538  32.550 -0.1383 -0.5426 -0.2995
16562TIP3    H171177   0.518   2.496  32.562 -0.2788 -0.4010 -0.7790
16562TIP3    H271178   0.651   2.518  32.631 -0.1617 -1.7128 -0.5541
16563TIP3   OH271179   1.179   2.040  32.401 -0.1417 -0.1330  0.4987
16563TIP3    H171180   1.153   2.116  32.348  1.1888  0.2040  0.3077
16563TIP3    H271181   1.184   1.968  32.339  0.0427 -0.0490  0.4157
16564TIP3   OH271182   3.511   0.879  27.205 -0.9500 -0.1893  0.4406
16564TIP3    H171183   3.444   0.937  27.169 -1.2683 -0.6326  0.3078
16564TIP3    H271184   3.568   0.937  27.256 -0.9580  0.3141 -0.1178
16565TIP3   OH271185   1.578   1.924  30.305  0.0861  1.0646  0.7583
16565TIP3    H171186   1.665   1.956  30.284 -0.5419  1.8971 -0.7657
16565TIP3    H271187   1.592   1.843  30.354  1.7010  0.6053 -0.4088
16566TIP3   OH271188   2.563   3.276   0.671 -0.5133 -0.1073 -0.1798
16566TIP3    H171189   2.478   3.301   0.634  0.1929 -0.9387 -2.5846
16566TIP3    H271190   2.603   3.359   0.697 -1.5702  0.4107 -0.1366
16567TIP3   OH271191   4.218   4.348  38.170 -0.3737  0.0873  0.6996
16567TIP3    H171192   4.159   4.305  38.109  1.4637  1.0708 -1.9498
16567TIP3    H271193   4.255   4.276  38.221  0.3136 -1.2067 -1.4846
16568TIP3   OH271194   1.664   2.499  40.154 -0.0521 -0.0545 -0.3038
16568TIP3    H171195   1.645   2.521  40.245  2.1988 -1.9930  0.7324
16568TIP3    H271196   1.710   2.576  40.121  1.0191 -0.1440  0.8956
16569TIP3   OH271197   2.379   2.809  11.735 -0.5555  0.3899 -0.1055
16569TIP3    H171198   2.473   2.800  11.720 -0.2957  1.3657  0.7827
16569TIP3    H271199   2.345   2.720  11.731  0.1975  0.1305 -1.6381
16570TIP3   OH271200   1.145   2.639  30.062  0.0528  0.4059  0.1363
16570TIP3    H171201   1.133   2.597  30.147 -0.5395  1.4743  0.6024
16570TIP3    H271202   1.089   2.717  30.066  0.1991  0.5967 -1.1447
16571TIP3   OH271203   0.962   4.159  38.272  0.1062 -0.4766  0.0080
16571TIP3    H171204   1.044   4.113  38.253  0.5966  0.9441 -1.5234
16571TIP3    H271205   0.949   4.217  38.197 -2.3820 -0.7450  0.1634
16572TIP3   OH271206   1.328   3.859   0.535  0.2336  0.1191 -0.1258
16572TIP3    H171207   1.400   3.904   0.578 -0.6298 -0.3485  1.9436
16572TIP3    H271208   1.255   3.868   0.595 -0.3785 -2.7403 -0.2960
16573TIP3   OH271209   0.968   3.610   1.856 -0.2222  0.0583 -0.1468
16573TIP3    H171210   0.880   3.577   1.874 -0.3254 -0.8040 -1.9619
16573TIP3    H271211   0.953   3.697   1.818 -0.5004 -0.9899 -2.5871
16574TIP3   OH271212   2.750   3.090  11.419 -0.3136  0.7176  0.4023
16574TIP3    H171213   2.790   3.032  11.354  0.2672  0.3618  1.0573
16574TIP3    H271214   2.660   3.101  11.389 -1.1633 -2.3897  1.4266
16575TIP3   OH271215   3.613   2.099  34.359  0.5495  0.0363  0.5925
16575TIP3    H171216   3.686   2.099  34.297  1.0309 -0.1565  1.1498
16575TIP3    H271217   3.655   2.107  34.445  0.0244 -1.4664  1.0307
16576TIP3   OH271218   0.109   1.534  22.286 -0.5899 -0.4663 -0.3198
16576TIP3    H171219   0.098   1.618  22.332 -2.8005 -0.9443  0.1531
16576TIP3    H271220   0.024   1.491  22.295  0.6342 -2.9965 -0.1328
16577TIP3   OH271221   3.092   0.124   1.479 -0.2333  0.3471 -0.2481
16577TIP3    H171222   3.171   0.126   1.425 -0.2529 -1.4119 -0.4288
16577TIP3    H271223   3.111   0.058   1.546 -0.6095  1.7277  1.2639
16578TIP3   OH271224   0.113   0.031  29.367 -0.0764  0.0074 -0.3543
16578TIP3    H171225   0.172   0.040  29.441  2.4276 -2.1683 -1.9150
16578TIP3    H271226   0.102   0.120  29.333 -0.8617  0.9657  2.2030
16579TIP3   OH271227   2.722   3.574  30.228 -0.2081 -0.5257 -0.4391
16579TIP3    H171228   2.690   3.494  30.271  1.7590 -0.4565  1.2908
16579TIP3    H271229   2.687   3.569  30.139 -3.4674 -1.2876  0.7516
16580TIP3   OH271230   0.511   3.953  34.634  0.0548 -0.0573 -0.0211
16580TIP3    H171231   0.424   3.914  34.641 -0.3009  0.9948  2.3289
16580TIP3    H271232   0.509   4.028  34.694  2.9243 -0.6830  1.0331
16581TIP3   OH271233   4.210   3.679  32.064 -0.5634 -0.2634 -0.2559
16581TIP3    H171234   4.217   3.712  32.154  1.7497 -0.6525 -0.2202
16581TIP3    H271235   4.147   3.607  32.070  0.4544 -1.0902  1.3599
16582TIP3   OH271236   0.086   2.405   1.857 -0.1116 -0.0565  0.3745
16582TIP3    H171237   0.011   2.391   1.800  0.7597 -0.7464 -0.6350
16582TIP3    H271238   0.068   2.489   1.900 -1.3959 -0.1578  0.0853
16583TIP3   OH271239   2.813   2.510  41.194  0.1791 -0.2309 -0.0304
16583TIP3    H171240   2.792   2.487  41.284  0.2173  1.6904  0.5007
16583TIP3    H271241   2.751   2.460  41.141 -1.8965  0.9088  1.2130
16584TIP3   OH271242   1.760   1.750  34.644  0.1437  0.1725  0.0835
16584TIP3    H171243   1.676   1.719  34.677  0.9105  0.8403  2.9827
16584TIP3    H271244   1.752   1.845  34.641  0.4867  0.1883 -0.5881
16585TIP3   OH271245   0.448   2.190  36.309 -0.6103  0.1093  0.5000
16585TIP3    H171246   0.397   2.269  36.292  0.3857  0.7667  0.5267
16585TIP3    H271247   0.392   2.137  36.366 -1.6645  0.3710 -0.2547
16586TIP3   OH271248   3.961   1.568  31.880 -0.2554  0.2435 -0.4575
16586TIP3    H171249   4.028   1.582  31.946 -1.4462  1.9683  0.4634
16586TIP3    H271250   4.008   1.531  31.805  1.4161 -0.1134  0.7167
16587TIP3   OH271251   3.673   1.660   8.458  0.3293  0.1247 -0.4497
16587TIP3    H171252   3.724   1.734   8.426  1.5831 -0.6407 -0.2895
16587TIP3    H271253   3.726   1.583   8.438  0.3368 -0.5362  1.8104
16588TIP3   OH271254   2.738   1.400  35.058  0.2506  0.0883  1.0266
16588TIP3    H171255   2.784   1.391  35.142 -0.0988  0.0955  1.2182
16588TIP3    H271256   2.808   1.390  34.992  0.5443  0.2080  1.3168
16589TIP3   OH271257   0.019   2.352  30.402 -0.6480 -0.3903 -0.1408
16589TIP3    H171258  -0.024   2.334  30.486  1.5582 -2.6878  0.6086
16589TIP3    H271259  -0.028   2.428  30.367 -1.4050  0.9144  3.3285
16590TIP3   OH271260   3.422   0.340  33.520  0.2352 -0.1824  0.1033
16590TIP3    H171261   3.500   0.318  33.468  1.0950  2.0604  0.3258
16590TIP3    H271262   3.401   0.430  33.496 -2.7887 -0.9312 -0.4743
16591TIP3   OH271263   3.092   0.832  12.528  0.0816 -0.4519  0.3450
16591TIP3    H171264   3.056   0.743  12.526  0.2168 -0.5077 -1.7614
16591TIP3    H271265   3.015   0.888  12.544 -0.0315 -0.8982  1.4875
16592TIP3   OH271266   1.957   3.757  34.470  0.3475  0.2687 -0.2700
16592TIP3    H171267   1.999   3.747  34.385  0.5410 -2.4298  0.0867
16592TIP3    H271268   2.028   3.778  34.530  0.6253 -0.5894 -0.2989
16593TIP3   OH271269   2.199   2.321  27.414  0.6474  0.2012 -0.2180
16593TIP3    H171270   2.218   2.234  27.448 -0.1752  0.1809  0.2137
16593TIP3    H271271   2.138   2.359  27.478  0.4618  0.8333 -0.7580
16594TIP3   OH271272   0.876   0.612   1.093  0.2200  0.4167 -0.8069
16594TIP3    H171273   0.803   0.596   1.153  0.1130  3.2733  0.0018
16594TIP3    H271274   0.941   0.545   1.115 -1.1350 -0.5926  0.2386
16595TIP3   OH271275   3.103   0.225   2.203 -0.4488 -0.0033  0.2289
16595TIP3    H171276   3.026   0.224   2.261 -0.1509  1.3284  0.6807
16595TIP3    H271277   3.140   0.313   2.214  1.3337 -0.7189  0.2679
16596TIP3   OH271278   2.675   3.360   9.328  0.6081 -0.4745  0.3375
16596TIP3    H171279   2.587   3.398   9.332 -0.1383 -1.9618 -0.8754
16596TIP3    H271280   2.731   3.425   9.371 -0.9473  0.8707  0.4385
16597TIP3   OH271281   1.101   3.921  35.976  0.0513  0.4785 -0.5243
16597TIP3    H171282   1.113   3.947  36.067  2.6345 -0.6548 -0.4656
16597TIP3    H271283   1.187   3.933  35.936 -1.1532  1.4763 -2.9868
16598TIP3   OH271284   1.552   2.261  34.602 -0.2283  0.3729 -0.5845
16598TIP3    H171285   1.614   2.329  34.629 -0.4199 -0.5776  2.7228
16598TIP3    H271286   1.606   2.182  34.592 -0.4649  0.2762 -1.1758
16599TIP3   OH271287   2.478   0.927   1.317  0.1933 -0.4504 -0.4591
16599TIP3    H171288   2.428   0.942   1.237 -0.6920  0.0401  0.1758
16599TIP3    H271289   2.412   0.907   1.383  0.7614  0.9059  0.5515
16600TIP3   OH271290   2.431   3.222  29.633  0.0466 -0.5577 -0.8157
16600TIP3    H171291   2.409   3.315  29.643  0.1454 -0.3222 -2.5750
16600TIP3    H271292   2.348   3.179  29.613 -0.4892 -1.3292  2.5019
16601TIP3   OH271293   0.558   0.586  40.579  0.0290  0.0091  0.6805
16601TIP3    H171294   0.582   0.580  40.487 -1.1330  1.1153  0.2927
16601TIP3    H271295   0.504   0.665  40.586 -1.1006 -0.8301  2.0384
16602TIP3   OH271296   3.970   3.448   6.355  0.2664 -0.0575  0.0260
16602TIP3    H171297   4.046   3.483   6.401 -0.6646  0.3813  1.2871
16602TIP3    H271298   3.907   3.520   6.354 -0.1822 -0.4406 -0.9351
16603TIP3   OH271299   1.403   2.704  16.850  0.3400 -0.0649  0.0438
16603TIP3    H171300   1.389   2.768  16.920 -1.1799  0.3246 -0.5864
16603TIP3    H271301   1.349   2.629  16.875 -1.8152  0.8371 -1.6364
16604TIP3   OH271302   0.069   3.732  30.066 -0.0329  0.1190  0.4009
16604TIP3    H171303   0.110   3.697  29.987  0.0191  1.1774 -0.0600
16604TIP3    H271304   0.130   3.799  30.097 -0.5536  0.4457  0.7422
16605TIP3   OH271305   1.718   0.642   9.771  0.2063  0.5230  0.5730
16605TIP3    H171306   1.720   0.723   9.719 -0.6281 -0.3366 -0.8613
16605TIP3    H271307   1.630   0.642   9.811  0.8812  1.2377  2.1498
16606TIP3   OH271308   2.157   2.954  41.617  0.0139 -0.1050 -0.2577
16606TIP3    H171309   2.216   3.029  41.616 -1.3418  0.9954  0.3232
16606TIP3    H271310   2.072   2.989  41.593 -0.4164 -1.6986 -1.2778
16607TIP3   OH271311   4.094   2.227  12.488 -0.2392 -0.6360 -0.2425
16607TIP3    H171312   4.056   2.183  12.563 -0.3181 -1.0605 -0.5265
16607TIP3    H271313   4.152   2.294  12.525  1.0572 -1.9717  0.2141
16608TIP3   OH271314   3.576   0.627   1.940 -0.6059 -0.7857 -0.3455
16608TIP3    H171315   3.592   0.544   1.894 -0.0421 -0.4343 -0.7915
16608TIP3    H271316   3.538   0.684   1.874  3.1190  0.7799 -1.3608
16609TIP3   OH271317   3.702   1.690   1.922  0.3748 -0.5343 -0.0460
16609TIP3    H171318   3.613   1.665   1.896 -0.0099  0.9775 -0.2339
16609TIP3    H271319   3.710   1.656   2.011 -0.8366  0.3387  0.4211
16610TIP3   OH271320   1.087   3.477  19.051 -0.2141  0.4068 -0.6250
16610TIP3    H171321   1.148   3.541  19.015  0.6142 -0.6828 -1.2154
16610TIP3    H271322   1.074   3.413  18.981  1.0818 -1.5168  0.7928
16611TIP3   OH271323   2.323   2.250  36.397  0.0309  0.3182  0.3660
16611TIP3    H171324   2.229   2.269  36.400 -0.0612 -0.1779  1.7145
16611TIP3    H271325   2.329   2.158  36.372  0.1699  0.3808  0.1593
16612TIP3   OH271326   1.678   3.643  34.947 -0.1994  0.1504 -0.1107
16612TIP3    H171327   1.696   3.707  35.016  0.9057  0.8465 -1.0215
16612TIP3    H271328   1.658   3.696  34.870 -1.3719 -0.6201 -0.3614
16613TIP3   OH271329   2.869   3.529  27.439 -0.8650 -0.4644 -0.0608
16613TIP3    H171330   2.888   3.457  27.498  0.9077 -1.5553 -1.8187
16613TIP3    H271331   2.914   3.604  27.477  0.0606 -1.0899  0.1022
16614TIP3   OH271332   2.664   4.002   9.450  0.3021 -0.1788  0.5597
16614TIP3    H171333   2.660   4.085   9.402  1.1270  0.5487  1.6813
16614TIP3    H271334   2.749   4.004   9.494 -0.5237 -0.6754  2.2630
16615TIP3   OH271335   0.729   2.628  29.989 -0.0765  0.0738 -0.1085
16615TIP3    H171336   0.689   2.597  30.070  0.2035 -0.2630 -0.0968
16615TIP3    H271337   0.823   2.617  30.003 -0.0852 -2.4756 -1.4569
16616TIP3   OH271338   4.034   0.826   8.780 -0.4647  0.6765  0.4074
16616TIP3    H171339   3.985   0.890   8.728 -1.3593  1.3157  1.9430
16616TIP3    H271340   3.968   0.763   8.808  0.1482 -0.1113  0.1154
16617TIP3   OH271341   1.210   3.213   6.612 -0.7382  0.3521  0.0600
16617TIP3    H171342   1.267   3.286   6.588 -0.3775  0.6950  1.7802
16617TIP3    H271343   1.124   3.253   6.626 -0.2852  0.7082  2.1356
16618TIP3   OH271344   1.548   1.983  12.140  0.2389 -0.5275 -0.6324
16618TIP3    H171345   1.641   2.006  12.147 -0.0583  0.4893  0.3226
16618TIP3    H271346   1.509   2.057  12.093 -0.3201 -0.2273  0.2699
16619TIP3   OH271347   4.115   3.870  29.870 -0.0841 -0.4776 -0.2585
16619TIP3    H171348   4.097   3.961  29.893  2.9652  0.5919 -1.5537
16619TIP3    H271349   4.056   3.851  29.798 -0.3614  0.6920 -0.3526
16620TIP3   OH271350   3.918   3.049  32.017 -0.5343 -0.1282 -0.6960
16620TIP3    H171351   3.877   3.135  32.009 -1.6780 -0.6570 -0.6540
16620TIP3    H271352   4.006   3.068  32.051 -0.7435  1.0235 -0.7546
16621TIP3   OH271353   2.182   2.740   6.963 -0.6094 -0.1997 -0.3266
16621TIP3    H171354   2.255   2.728   6.902 -0.6176 -1.2852 -0.1267
16621TIP3    H271355   2.223   2.747   7.049 -0.7051 -0.2651 -0.2754
16622TIP3   OH271356   0.532   3.208  39.167 -0.3162  0.1060  0.1185
16622TIP3    H171357   0.484   3.248  39.240 -0.5109 -0.9547  0.5813
16622TIP3    H271358   0.465   3.191  39.101 -0.4247 -0.4794  0.3745
16623TIP3   OH271359   2.520   0.382   2.802  0.1529 -0.1386  0.2773
16623TIP3    H171360   2.511   0.404   2.894  1.5032 -0.1701  0.4353
16623TIP3    H271361   2.526   0.286   2.801 -4.2926 -0.6186 -0.2824
16624TIP3   OH271362   4.035   1.120  38.718  0.2999 -0.4046  0.0667
16624TIP3    H171363   4.048   1.215  38.711  2.4145 -0.7244 -0.8076
16624TIP3    H271364   4.040   1.103  38.812  1.6798  0.1446  0.1156
16625TIP3   OH271365   1.569   0.892  12.275 -0.6025  0.0279 -0.4231
16625TIP3    H171366   1.475   0.909  12.270 -0.9125 -1.7721 -1.9946
16625TIP3    H271367   1.588   0.837  12.199  1.2605 -1.6814  1.1546
16626TIP3   OH271368   4.085   0.205  33.562 -0.0810  0.4065 -0.5916
16626TIP3    H171369   4.154   0.140  33.578 -0.7167 -0.3811 -1.0054
16626TIP3    H271370   4.129   0.277  33.518  0.9205  0.8837  1.1000
16627TIP3   OH271371   3.739   3.338   1.523  0.3098 -0.0715  0.2192
16627TIP3    H171372   3.675   3.275   1.558  1.0219 -2.0410 -1.7469
16627TIP3    H271373   3.706   3.423   1.549 -1.8011 -1.1567  1.3569
16628TIP3   OH271374   0.335   0.320  35.265 -0.0302 -0.3764 -0.0881
16628TIP3    H171375   0.290   0.380  35.205 -2.0936 -2.1879 -0.4733
16628TIP3    H271376   0.396   0.271  35.209  2.0285  1.5293  0.3070
16629TIP3   OH271377   1.760   3.159  13.522  0.5666  0.0508 -0.0526
16629TIP3    H171378   1.673   3.134  13.491  0.5147 -0.0406  0.1666
16629TIP3    H271379   1.758   3.141  13.616  0.4710  1.0624  0.1400
16630TIP3   OH271380   0.396   1.845  22.494 -0.0095  0.4932  0.3121
16630TIP3    H171381   0.437   1.919  22.449  1.4849 -0.4687  0.0326
16630TIP3    H271382   0.464   1.813  22.554 -0.3677 -1.0965 -0.0904
16631TIP3   OH271383   1.315   2.171  13.619  0.1749  0.5585  0.4247
16631TIP3    H171384   1.398   2.205  13.653  0.6601  0.8374 -0.9773
16631TIP3    H271385   1.253   2.184  13.691  0.8964  2.2006  0.8114
16632TIP3   OH271386   2.816   2.160  41.493  0.5569 -0.3960  0.0207
16632TIP3    H171387   2.724   2.181  41.478  0.6795  0.6252  0.6390
16632TIP3    H271388   2.852   2.145  41.405 -0.9344 -4.3152 -0.1189
16633TIP3   OH271389   0.174   1.263  29.295  0.3839 -0.6440 -0.3926
16633TIP3    H171390   0.261   1.230  29.317 -0.1753 -0.6834  2.0736
16633TIP3    H271391   0.158   1.333  29.359 -1.1160 -0.1834 -1.2395
16634TIP3   OH271392   1.289   4.188  34.068  0.3647 -0.0325  0.1099
16634TIP3    H171393   1.309   4.126  33.997 -2.0581 -0.6336 -0.1211
16634TIP3    H271394   1.315   4.141  34.148  1.3543 -0.1026 -0.2361
16635TIP3   OH271395   1.611   0.711  13.721 -0.3295 -0.3650 -0.3329
16635TIP3    H171396   1.696   0.680  13.752  0.8365  2.5009 -0.3394
16635TIP3    H271397   1.602   0.675  13.633  1.8213  0.7305 -1.0663
16636TIP3   OH271398   3.519   4.326  32.720  0.4908  0.1822 -0.2606
16636TIP3    H171399   3.579   4.394  32.692  0.7384  0.3759  0.7038
16636TIP3    H271400   3.546   4.305  32.809 -1.4613  0.9827  0.5778
16637TIP3   OH271401   1.842   3.477   6.010  0.5704 -0.7846 -0.5306
16637TIP3    H171402   1.912   3.500   5.950 -0.4694  2.4332 -0.7048
16637TIP3    H271403   1.881   3.483   6.098  1.0673 -1.4480 -0.6974
16638TIP3   OH271404   0.927   0.242   5.853  0.0109  0.4512 -0.3122
16638TIP3    H171405   0.988   0.168   5.856  0.1452  0.5915  0.7562
16638TIP3    H271406   0.868   0.221   5.781 -0.0065 -0.7334  0.0211
16639TIP3   OH271407   0.384   2.881  34.926  0.1903 -0.0114  0.9059
16639TIP3    H171408   0.389   2.964  34.878  0.0348 -0.3236  0.3268
16639TIP3    H271409   0.395   2.814  34.858  0.7518 -0.4607  1.4222
16640TIP3   OH271410   2.942   4.274  12.081  0.4997  0.0195 -0.6222
16640TIP3    H171411   3.023   4.290  12.033  0.2931  2.3099 -0.3427
16640TIP3    H271412   2.873   4.303  12.021  0.0582  0.2598 -0.0165
16641TIP3   OH271413   1.687   0.518  17.187 -0.3093  0.1598 -0.1718
16641TIP3    H171414   1.720   0.580  17.122  0.0410 -0.3798 -0.5199
16641TIP3    H271415   1.746   0.528  17.262 -1.4278  1.6445  0.5584
16642TIP3   OH271416   4.081   2.474   6.782 -0.1582  0.3338 -0.1116
16642TIP3    H171417   4.171   2.445   6.795  0.2969  0.8727 -1.7986
16642TIP3    H271418   4.087   2.545   6.718 -1.7273  0.8029  0.2041
16643TIP3   OH271419   2.828   2.162  40.095 -0.3623  0.4370  0.6370
16643TIP3    H171420   2.871   2.080  40.117  0.1939  0.8117  0.9736
16643TIP3    H271421   2.783   2.145  40.012 -0.4818 -0.2831  0.8447
16644TIP3   OH271422   3.555   0.101  32.927  0.2786 -0.0978 -0.5779
16644TIP3    H171423   3.464   0.089  32.899  0.2547 -0.7476 -0.2324
16644TIP3    H271424   3.549   0.158  33.004 -0.1115 -2.2995  1.1315
16645TIP3   OH271425   0.577   0.006  13.786  0.2593  0.5092  0.4013
16645TIP3    H171426   0.552  -0.032  13.870 -0.2382  0.6408  0.3115
16645TIP3    H271427   0.617   0.090  13.809  0.1662  0.5242  0.5108
16646TIP3   OH271428   0.024   1.518  22.951  0.0606 -0.5995 -0.4180
16646TIP3    H171429   0.079   1.463  23.008  0.3596  0.8888  0.7825
16646TIP3    H271430  -0.051   1.462  22.930  1.0444 -1.9743 -0.4502
16647TIP3   OH271431   0.505   0.352  11.040  0.1478  0.2316  0.0526
16647TIP3    H171432   0.481   0.433  11.083 -0.1603 -0.5070  1.3381
16647TIP3    H271433   0.591   0.329  11.078  1.6484  1.3852 -2.3994
16648TIP3   OH271434   0.219   3.609  40.912 -0.1499 -0.5676  0.7582
16648TIP3    H171435   0.159   3.660  40.858  0.9780  0.0595  0.0477
16648TIP3    H271436   0.298   3.663  40.918  1.0965 -2.2018 -0.0268
16649TIP3   OH271437   0.961   1.411  10.193 -0.5071 -0.1061 -0.7034
16649TIP3    H171438   0.937   1.341  10.133 -2.3570 -0.5460  0.4792
16649TIP3    H271439   1.022   1.370  10.255 -1.3427 -0.6238 -0.2029
16650TIP3   OH271440   3.925   3.451   5.339 -0.6056  0.9145  0.2695
16650TIP3    H171441   3.955   3.541   5.339 -1.6279  1.2661  0.0336
16650TIP3    H271442   3.869   3.444   5.417 -2.1580  1.0688 -0.7887
16651TIP3   OH271443   4.399   2.838   7.059 -0.5476  0.3688 -0.1819
16651TIP3    H171444   4.374   2.868   6.972  0.0376 -0.7985 -0.7746
16651TIP3    H271445   4.429   2.916   7.105 -0.4855  0.9214 -1.1557
16652TIP3   OH271446   4.314   1.650  38.891  0.2892  0.0431 -0.2408
16652TIP3    H171447   4.314   1.577  38.829  0.7240 -1.6482  1.6458
16652TIP3    H271448   4.248   1.627  38.956  0.7754  1.0807  0.6698
16653TIP3   OH271449   3.004   2.461  38.320 -0.3885 -0.0537  0.4133
16653TIP3    H171450   3.013   2.458  38.225 -2.1543 -0.5021  0.2232
16653TIP3    H271451   3.018   2.371  38.348  2.7423  0.4869  0.9250
16654TIP3   OH271452   4.014   0.281  27.547 -0.0241 -0.0977  0.0580
16654TIP3    H171453   3.990   0.209  27.605  1.1611  0.0898  0.7922
16654TIP3    H271454   4.084   0.328  27.593  0.1477  0.7310 -1.0074
16655TIP3   OH271455   0.261   1.389  31.989 -0.3191 -0.1575  0.3648
16655TIP3    H171456   0.347   1.429  32.004 -0.3122 -0.1302  0.2541
16655TIP3    H271457   0.202   1.438  32.046  0.0550 -1.4213  1.8937
16656TIP3   OH271458   4.065   2.221  36.951  0.0696 -0.1710 -0.7507
16656TIP3    H171459   4.007   2.154  36.986 -1.6005  1.1732 -0.7752
16656TIP3    H271460   4.062   2.291  37.016  3.4308 -0.8407  0.3282
16657TIP3   OH271461   0.332   0.043  10.314  0.3589  0.4583  0.1334
16657TIP3    H171462   0.310   0.063  10.405 -0.6901 -1.2624  0.3096
16657TIP3    H271463   0.274   0.099  10.262 -0.4443  0.0397  0.5594
16658TIP3   OH271464   1.560   0.905  12.562 -0.5864  0.3574  0.2799
16658TIP3    H171465   1.567   0.897  12.467 -0.0207 -1.9433  0.4484
16658TIP3    H271466   1.544   0.998  12.577  0.7915  1.0412 -1.9614
16659TIP3   OH271467   2.121   3.300   3.961 -0.5614  0.2777 -0.3062
16659TIP3    H171468   2.035   3.319   3.998 -1.2101 -1.1711 -0.9841
16659TIP3    H271469   2.175   3.278   4.036 -1.0586  0.2023  0.0359
16660TIP3   OH271470   4.282   1.054  39.836  0.2778 -0.3331 -0.2583
16660TIP3    H171471   4.339   1.089  39.904  0.2040  1.8773 -1.2516
16660TIP3    H271472   4.197   1.041  39.879  1.0759 -2.3300  0.8762
16661TIP3   OH271473   1.616   1.563   0.405  0.3399  0.2787  0.3551
16661TIP3    H171474   1.700   1.535   0.368 -0.8306 -2.2053 -0.6485
16661TIP3    H271475   1.604   1.509   0.482 -1.5652 -1.5243 -1.0902
16662TIP3   OH271476   3.758   1.361  38.295 -0.1174  0.3209 -0.0354
16662TIP3    H171477   3.831   1.301  38.312  0.4553  1.2484  0.8893
16662TIP3    H271478   3.680   1.306  38.296  0.5878 -0.8055 -1.6383
16663TIP3   OH271479   1.286   4.200   1.287 -0.7199  0.2657  0.0817
16663TIP3    H171480   1.364   4.255   1.294 -0.1108 -0.6305  0.4798
16663TIP3    H271481   1.225   4.238   1.350  0.1223 -0.1949  1.2052
16664TIP3   OH271482   3.145   1.683  36.557 -0.6832 -0.4526 -0.1790
16664TIP3    H171483   3.173   1.714  36.643 -1.7358  0.8389 -0.2801
16664TIP3    H271484   3.227   1.669  36.509 -0.1087 -0.4538  0.7774
16665TIP3   OH271485   3.748   2.618  29.379  0.0371 -0.4843  0.1152
16665TIP3    H171486   3.694   2.633  29.456 -0.4422 -1.4261 -0.0320
16665TIP3    H271487   3.834   2.652  29.403 -0.5041  0.7018  0.4770
16666TIP3   OH271488   3.472   2.312  32.912  0.1531 -0.3950  0.3508
16666TIP3    H171489   3.475   2.324  32.817 -0.5594  2.2847  0.5829
16666TIP3    H271490   3.563   2.297  32.937  0.7886  1.7048 -0.5070
16667TIP3   OH271491   0.462   2.643  28.502  0.0943 -0.1559  0.0653
16667TIP3    H171492   0.425   2.613  28.419  2.6536 -0.0650 -1.2023
16667TIP3    H271493   0.520   2.715  28.478 -0.3607  0.9940  2.1857
16668TIP3   OH271494   3.034   1.852  32.981 -0.4227  0.4900  0.2362
16668TIP3    H171495   3.102   1.916  33.003 -0.8922  1.4392 -0.9557
16668TIP3    H271496   2.952   1.898  32.997 -0.7761 -0.2077  0.4346
16669TIP3   OH271497   1.275   2.631  28.207  0.4810 -0.0792 -1.0362
16669TIP3    H171498   1.312   2.543  28.197  1.6613 -0.4007  3.6441
16669TIP3    H271499   1.350   2.686  28.231 -0.9315  0.8758  1.6027
16670TIP3   OH271500   2.364   0.155  37.516  0.6755 -0.7666 -0.1973
16670TIP3    H171501   2.383   0.064  37.495  1.6964 -0.2620 -1.6224
16670TIP3    H271502   2.273   0.154  37.546  0.0349 -2.0304 -1.9813
16671TIP3   OH271503   3.566   0.921  38.057 -0.1932 -0.4645  0.5736
16671TIP3    H171504   3.569   0.867  38.136  0.8590 -1.2968 -0.0109
16671TIP3    H271505   3.654   0.916  38.021 -0.4350  0.5935 -0.2094
16672TIP3   OH271506   2.816   0.597  30.565  0.5193 -0.2264 -0.1009
16672TIP3    H171507   2.730   0.630  30.538  0.2635  1.5917  2.4832
16672TIP3    H271508   2.797   0.515  30.610 -0.0316  0.5869  1.2046
16673TIP3   OH271509   0.067   2.381  31.832 -0.1820 -0.8685  0.3895
16673TIP3    H171510   0.141   2.435  31.805 -0.5076 -0.7674 -0.3058
16673TIP3    H271511  -0.009   2.420  31.789 -0.9285  0.0513  2.3900
16674TIP3   OH271512   4.098   2.736  37.548  0.0779  0.1707 -0.5630
16674TIP3    H171513   4.053   2.780  37.476 -2.7228  0.7152  1.3340
16674TIP3    H271514   4.078   2.643  37.535 -1.8829  0.4208  0.3446
16675TIP3   OH271515   1.725   3.758  29.448 -0.1360  0.3260  0.2938
16675TIP3    H171516   1.731   3.839  29.398 -0.6898  0.0060 -0.3067
16675TIP3    H271517   1.806   3.755  29.499  0.3473  0.7570 -0.4305
16676TIP3   OH271518   0.195   3.323  26.265 -0.5684 -0.4056  0.5802
16676TIP3    H171519   0.217   3.409  26.301 -2.5323 -0.1009  1.1667
16676TIP3    H271520   0.104   3.331  26.236 -0.3686 -1.9021 -0.6196
16677TIP3   OH271521   3.088   2.696   7.706 -0.1538 -0.1420  0.4307
16677TIP3    H171522   3.161   2.721   7.762 -0.2157  1.6113 -0.2168
16677TIP3    H271523   3.016   2.679   7.767 -0.6775  3.2309  0.9554
16678TIP3   OH271524   3.344   2.418   5.430 -0.5061 -0.1166  0.8954
16678TIP3    H171525   3.361   2.510   5.408  0.5622 -0.6860 -0.8665
16678TIP3    H271526   3.273   2.392   5.371 -0.2672 -0.6317  0.8322
16679TIP3   OH271527   1.746   3.321   1.257  0.1637 -0.0133  0.0496
16679TIP3    H171528   1.766   3.249   1.317 -0.3178  0.6132  0.9922
16679TIP3    H271529   1.654   3.308   1.234 -0.4719  1.2995  1.6859
16680TIP3   OH271530   4.310   0.541  40.381  0.1728 -0.5506 -0.2678
16680TIP3    H171531   4.218   0.515  40.387 -0.3499  1.1969 -0.2009
16680TIP3    H271532   4.335   0.562  40.471  0.2110  0.3277 -0.4773
16681TIP3   OH271533   3.906   3.540   2.017 -0.2027 -0.9411 -0.5602
16681TIP3    H171534   3.937   3.548   1.927 -0.9794  1.1248 -0.6957
16681TIP3    H271535   3.876   3.627   2.040  1.5815 -0.9581  2.3450
16682TIP3   OH271536   2.439   0.750  41.251 -0.0240 -0.5845  0.5575
16682TIP3    H171537   2.520   0.800  41.262 -1.3265  1.7489  0.2762
16682TIP3    H271538   2.403   0.743  41.340 -0.5882  0.4009  0.4272
16683TIP3   OH271539   1.262   2.889  26.603 -0.4561  0.2468 -0.3251
16683TIP3    H171540   1.314   2.932  26.670  0.0865 -0.4963 -0.2579
16683TIP3    H271541   1.182   2.942  26.596 -1.2223 -0.4855  1.9888
16684TIP3   OH271542   0.181   3.132  27.020 -0.5854 -0.1551  0.5066
16684TIP3    H171543   0.196   3.225  27.035  1.5026 -0.5485  1.1352
16684TIP3    H271544   0.241   3.087  27.080 -0.3250 -1.8863 -0.9403
16685TIP3   OH271545   1.987   0.016  34.020  0.5269  0.7958  0.7465
16685TIP3    H171546   1.895   0.026  34.045  0.1520  0.9877 -0.5990
16685TIP3    H271547   2.007   0.096  33.970  1.3425  0.6328  0.7908
16686TIP3   OH271548   4.021   2.033   4.345 -0.6246  0.1728 -0.0988
16686TIP3    H171549   4.088   2.049   4.279  1.0328 -1.0153  1.2128
16686TIP3    H271550   4.015   1.937   4.350 -3.9847  0.1313 -1.6233
16687TIP3   OH271551   3.542   3.274  32.563  0.1881  0.1160  0.3006
16687TIP3    H171552   3.594   3.339  32.611 -0.6455  0.6248  0.5198
16687TIP3    H271553   3.505   3.219  32.632 -0.2415  0.2651  0.1884
16688TIP3   OH271554   0.716   1.216  38.804 -0.9829 -0.0392  0.1354
16688TIP3    H171555   0.639   1.238  38.750 -0.8007  1.7363  0.5270
16688TIP3    H271556   0.710   1.275  38.879 -0.2478 -1.2172  1.1631
16689TIP3   OH271557   2.163   0.231  10.864 -0.1246 -0.1573 -0.3071
16689TIP3    H171558   2.154   0.272  10.778 -1.4256  0.7165  0.2017
16689TIP3    H271559   2.146   0.139  10.849 -2.7243  0.2993 -0.6974
16690TIP3   OH271560   2.948   3.037  37.114 -0.5933 -0.1684  0.3894
16690TIP3    H171561   2.960   3.007  37.024  1.7640 -1.1205  0.9384
16690TIP3    H271562   2.927   2.958  37.164 -3.0772  0.5171  0.5757
16691TIP3   OH271563   1.915   1.355  29.253  0.0753 -0.4329 -0.9165
16691TIP3    H171564   1.968   1.275  29.252 -0.1612 -0.5925 -1.0608
16691TIP3    H271565   1.945   1.405  29.177 -1.2357 -1.3767 -2.1115
16692TIP3   OH271566   1.603   4.295  29.087  0.2456 -0.3787  0.0896
16692TIP3    H171567   1.542   4.337  29.027 -0.2269 -0.4379  0.5171
16692TIP3    H271568   1.561   4.303  29.173  1.3884  0.6445  0.5862
16693TIP3   OH271569   3.839   1.559  26.222  0.3044  0.2923 -0.0278
16693TIP3    H171570   3.803   1.572  26.310  0.0916  1.2377 -0.2464
16693TIP3    H271571   3.810   1.635  26.173 -2.0244 -1.5341 -1.7307
16694TIP3   OH271572   3.823   2.646  11.090  0.6187 -0.0178  0.0162
16694TIP3    H171573   3.764   2.592  11.038 -0.3396  0.1346  0.8941
16694TIP3    H271574   3.888   2.678  11.028 -1.3420  1.3867 -1.4355
16695TIP3   OH271575   2.585   3.739  35.084 -0.8826  0.1208 -0.2294
16695TIP3    H171576   2.665   3.749  35.135  0.9063 -1.0472 -2.5998
16695TIP3    H271577   2.553   3.829  35.071  0.0851  0.6096  0.6416
16696TIP3   OH271578   0.980   1.852  31.229  0.2595  0.9006 -0.4482
16696TIP3    H171579   0.939   1.923  31.279  1.0407  0.8952  0.2276
16696TIP3    H271580   1.012   1.792  31.296 -0.9306 -0.4154 -1.0226
16697TIP3   OH271581   2.274   3.013   2.872  0.0026  0.0180  0.5966
16697TIP3    H171582   2.317   3.042   2.792  0.5187 -1.9560  0.1179
16697TIP3    H271583   2.339   2.959   2.917 -1.5669 -2.2535  0.3145
16698TIP3   OH271584   1.997   3.810  40.725 -0.0591  0.0489  0.5806
16698TIP3    H171585   2.057   3.850  40.661 -0.2754  1.2928  1.1140
16698TIP3    H271586   2.019   3.717  40.724  0.5133  0.1755 -0.6921
16699TIP3   OH271587   2.178   2.044  38.203 -0.0148  0.5003 -0.1499
16699TIP3    H171588   2.091   2.033  38.241  0.6736 -1.1300  1.0797
16699TIP3    H271589   2.162   2.065  38.111 -1.6959  0.0345  0.0041
16700TIP3   OH271590   4.002   2.885   5.393  0.6102  0.8635 -0.5043
16700TIP3    H171591   4.078   2.840   5.431 -0.4677 -0.7800 -0.1663
16700TIP3    H271592   4.031   2.911   5.306  0.6890 -2.4477 -1.6000
16701TIP3   OH271593   0.602   1.997  32.894  0.0925 -0.3063  0.2131
16701TIP3    H171594   0.694   1.979  32.911 -0.0435 -0.4693  0.7765
16701TIP3    H271595   0.582   1.945  32.816  0.5408 -0.0734 -0.0583
16702TIP3   OH271596   1.072   2.666   3.735  0.1427 -0.4857  0.1832
16702TIP3    H171597   1.063   2.747   3.684 -1.1320 -1.2018 -0.8071
16702TIP3    H271598   1.137   2.614   3.687 -2.2780 -1.8916 -1.8902
16703TIP3   OH271599   2.557   1.387   9.275  0.0823 -0.7270 -0.2353
16703TIP3    H171600   2.515   1.413   9.356  1.2978 -2.1551  0.9088
16703TIP3    H271601   2.492   1.333   9.230 -0.3690 -0.4494  0.0745
16704TIP3   OH271602   1.090   2.618  27.301 -0.4815  0.8488  0.4344
16704TIP3    H171603   1.035   2.696  27.297  0.8837  1.9179  1.5726
16704TIP3    H271604   1.042   2.559  27.359 -0.7700  1.4841  0.8566
16705TIP3   OH271605   2.219   2.311   8.941  0.1224 -0.3829  0.0551
16705TIP3    H171606   2.223   2.301   9.036 -3.0773 -1.0022  0.2480
16705TIP3    H271607   2.268   2.391   8.923  0.7023 -0.1990  2.2363
16706TIP3   OH271608   2.660   1.225  35.387  0.1593 -0.4512 -0.1659
16706TIP3    H171609   2.704   1.310  35.389  1.1183 -0.9279 -0.4952
16706TIP3    H271610   2.660   1.200  35.295 -2.1102  0.1810 -0.4018
16707TIP3   OH271611   0.521   0.823  31.800 -0.5613  0.2867 -0.5001
16707TIP3    H171612   0.596   0.882  31.796 -0.6868  0.4202 -0.8875
16707TIP3    H271613   0.478   0.832  31.715  0.1535 -1.3356 -1.0743
16708TIP3   OH271614   1.094   0.160  10.090 -0.0025 -0.1616  0.3278
16708TIP3    H171615   1.010   0.204  10.103  0.1525  0.1017  0.4252
16708TIP3    H271616   1.159   0.217  10.131 -0.2672 -2.6322  4.7191
16709TIP3   OH271617   2.158   2.600  11.091 -0.1949  0.6957 -0.1757
16709TIP3    H171618   2.246   2.564  11.077 -0.2409  0.4643  0.0964
16709TIP3    H271619   2.166   2.693  11.070  0.2455  0.7810  0.3471
16710TIP3   OH271620   2.347   2.738  28.057 -0.7782  0.0199 -0.2742
16710TIP3    H171621   2.297   2.771  27.981 -0.7443  0.0970 -0.2627
16710TIP3    H271622   2.385   2.817  28.096 -0.6007 -0.0449 -0.3160
16711TIP3   OH271623   2.691   4.160   0.646 -0.1222  0.0651 -0.5861
16711TIP3    H171624   2.628   4.116   0.704  1.0309 -0.7745  0.0633
16711TIP3    H271625   2.773   4.113   0.660  0.6390  1.0934 -1.4752
16712TIP3   OH271626   1.839   1.930  38.480  0.4139 -0.4861 -0.5820
16712TIP3    H171627   1.759   1.882  38.457  0.5541 -0.1585 -1.8803
16712TIP3    H271628   1.814   2.022  38.475  0.5220 -0.3999  0.4090
16713TIP3   OH271629   2.673   2.253   7.969 -0.6818 -0.0663 -0.3512
16713TIP3    H171630   2.603   2.256   7.904 -1.7100 -1.1941  0.6431
16713TIP3    H271631   2.707   2.164   7.964  0.8416  0.5303 -0.9551
16714TIP3   OH271632   3.227   2.200  34.938  0.4510  0.4614  0.3597
16714TIP3    H171633   3.284   2.273  34.917  1.4528  0.2213  2.0998
16714TIP3    H271634   3.141   2.226  34.906  0.6365  2.7114  1.5307
16715TIP3   OH271635   1.348   3.640  28.807  0.2565  0.1990 -0.0419
16715TIP3    H171636   1.289   3.594  28.747 -0.2785  1.3775 -0.4566
16715TIP3    H271637   1.432   3.641  28.762 -0.1735  1.1899 -0.8699
16716TIP3   OH271638   3.937   1.756  28.902  0.0342  0.1998 -0.0706
16716TIP3    H171639   3.943   1.810  28.981 -0.8977 -0.8290  0.7461
16716TIP3    H271640   3.845   1.729  28.899  0.2759 -0.5610 -0.9766
16717TIP3   OH271641   1.503   2.230   4.097 -0.2246 -0.3076 -0.4788
16717TIP3    H171642   1.549   2.178   4.031  1.0186  3.3094 -2.7682
16717TIP3    H271643   1.571   2.253   4.161  0.2668  1.4975 -1.5606
16718TIP3   OH271644   2.838   0.165  27.601  0.5672  0.6404 -0.1532
16718TIP3    H171645   2.742   0.169  27.593  0.6145  0.6123 -0.7380
16718TIP3    H271646   2.853   0.106  27.675  0.1429  0.3457 -0.2997
16719TIP3   OH271647   2.970   4.083  39.569 -0.4874  0.0643 -0.2078
16719TIP3    H171648   2.948   4.169  39.532 -0.5003 -0.4275 -1.3839
16719TIP3    H271649   2.927   4.020  39.511  0.2480 -0.7713  0.1274
16720TIP3   OH271650   3.519   1.781  32.785 -0.2724  0.4095 -0.1592
16720TIP3    H171651   3.444   1.829  32.751 -0.2249  0.0227 -0.8379
16720TIP3    H271652   3.492   1.753  32.872 -0.4445  1.3271  0.0939
16721TIP3   OH271653   3.049   3.944   5.981 -0.1706 -0.7280  0.0986
16721TIP3    H171654   3.143   3.954   5.989  0.0455 -1.2501 -1.4489
16721TIP3    H271655   3.012   4.025   6.015  0.9017 -0.0484 -0.3311
16722TIP3   OH271656   3.202   2.444  28.339  0.6185 -0.7009 -0.1180
16722TIP3    H171657   3.172   2.486  28.258 -0.6449 -1.0369  0.1406
16722TIP3    H271658   3.221   2.516  28.398 -1.5272 -0.4238  0.3183
16723TIP3   OH271659   1.990   3.080  36.545 -0.5262 -0.3880  0.0758
16723TIP3    H171660   1.899   3.057  36.527 -0.2184 -0.5013 -1.4733
16723TIP3    H271661   1.985   3.161  36.595 -1.4556  1.2424 -2.5053
16724TIP3   OH271662   0.806   4.385   4.718  0.0737  0.0246 -0.2148
16724TIP3    H171663   0.747   4.440   4.666  0.3500  0.1643 -0.3856
16724TIP3    H271664   0.850   4.447   4.776 -0.4546 -0.1713  0.4000
16725TIP3   OH271665   0.555   3.845  13.402 -0.7748 -0.0689  0.0436
16725TIP3    H171666   0.643   3.828  13.434 -0.4451  0.1384 -0.7299
16725TIP3    H271667   0.513   3.895  13.472  0.2678  1.2735 -0.2379
16726TIP3   OH271668   3.297   1.901  10.849 -0.3692 -0.1289 -0.4887
16726TIP3    H171669   3.380   1.946  10.861 -0.2334 -0.8059  1.5755
16726TIP3    H271670   3.238   1.968  10.814  1.4651 -0.1567 -3.9774
16727TIP3   OH271671   2.883   4.106  36.365 -0.0893 -0.0890 -0.6972
16727TIP3    H171672   2.828   4.149  36.431  0.3806  0.2781 -0.5449
16727TIP3    H271673   2.825   4.095  36.289 -0.3926  0.2441 -0.5163
16728TIP3   OH271674   0.495   4.330   2.535 -0.5852 -0.6165  0.3484
16728TIP3    H171675   0.581   4.290   2.545 -1.2458 -1.7687  1.9023
16728TIP3    H271676   0.471   4.357   2.624 -1.8946 -0.4928 -0.0212
16729TIP3   OH271677   2.071   3.545  40.942 -0.4982 -0.2917  0.2587
16729TIP3    H171678   2.014   3.539  41.018  0.7642 -1.3614  1.1702
16729TIP3    H271679   2.111   3.632  40.949 -2.0566  0.5117 -0.4546
16730TIP3   OH271680   2.927   2.943  29.091 -0.2252  0.5013 -0.4039
16730TIP3    H171681   2.998   2.963  29.152 -0.4027 -0.1317  0.0276
16730TIP3    H271682   2.866   3.016  29.101  0.5035  1.2005 -1.0032
16731TIP3   OH271683   0.364   0.989  36.271  0.1175  0.0340  0.5623
16731TIP3    H171684   0.436   1.051  36.258 -0.4025  0.3025 -1.2303
16731TIP3    H271685   0.352   0.948  36.186 -1.9946  0.1564  0.7493
16732TIP3   OH271686   3.938   3.143  34.183  0.3383  0.2834 -0.5328
16732TIP3    H171687   3.900   3.121  34.268  0.1371  1.9656 -0.1472
16732TIP3    H271688   4.019   3.092  34.179  0.7828  0.7928  1.0433
16733TIP3   OH271689   2.982   2.633   1.431  0.1811  0.7321  0.1291
16733TIP3    H171690   3.065   2.586   1.432 -0.6556 -0.8167  0.4397
16733TIP3    H271691   2.999   2.710   1.378  1.3828 -0.3942 -1.2109
16734TIP3   OH271692   4.078   1.403   4.074 -0.1256  0.4399  0.0354
16734TIP3    H171693   4.172   1.419   4.087 -0.0842 -0.2988  0.7383
16734TIP3    H271694   4.075   1.321   4.024 -0.3919  0.6786 -0.3420
16735TIP3   OH271695   3.516   0.268   7.345  0.0488 -0.2183 -0.9246
16735TIP3    H171696   3.539   0.178   7.324  1.0126  0.1696 -1.6227
16735TIP3    H271697   3.461   0.261   7.423  1.7157 -1.2904  0.2256
16736TIP3   OH271698   2.708   2.030  36.716 -0.4420  0.4149  0.5594
16736TIP3    H171699   2.649   1.993  36.650 -0.6457  2.8028 -0.7179
16736TIP3    H271700   2.794   2.028  36.674 -0.3505  0.7731  0.7306
16737TIP3   OH271701   2.278   3.424   9.930  0.6522 -0.1654 -0.1458
16737TIP3    H171702   2.306   3.333   9.940 -0.3242 -0.5249 -0.5578
16737TIP3    H271703   2.240   3.447  10.015 -0.2072 -0.5532 -0.4121
16738TIP3   OH271704   3.243   3.955  27.759  0.0980  0.2325 -0.3224
16738TIP3    H171705   3.293   4.036  27.743 -0.0178  0.4633  0.4469
16738TIP3    H271706   3.299   3.905  27.819 -0.3791  0.2889  0.1763
16739TIP3   OH271707   0.695   2.604   3.897  0.1829 -0.2429 -0.4047
16739TIP3    H171708   0.760   2.600   3.968 -0.5188 -1.9559  0.2025
16739TIP3    H271709   0.711   2.524   3.846 -0.9744 -0.3346 -0.6460
16740TIP3   OH271710   0.795   1.250  35.257 -0.4626  0.0953 -0.2507
16740TIP3    H171711   0.831   1.329  35.297 -0.2089 -0.4988  0.7479
16740TIP3    H271712   0.704   1.248  35.286  0.2242 -1.3875  2.1001
16741TIP3   OH271713   1.425   0.506  17.078 -0.0598 -0.2904 -0.0321
16741TIP3    H171714   1.462   0.582  17.033  1.6463  0.7098  2.8292
16741TIP3    H271715   1.499   0.467  17.125 -1.3157 -2.5378  0.2307
16742TIP3   OH271716   1.057   0.009  39.679  0.1815 -0.3799 -0.7399
16742TIP3    H171717   1.031  -0.056  39.614  0.3937 -0.8060 -0.4035
16742TIP3    H271718   1.074   0.088  39.628 -0.2705 -0.5325 -1.1288
16743TIP3   OH271719   1.677   3.885   7.195  0.4379 -0.2072  0.1756
16743TIP3    H171720   1.719   3.799   7.198  1.8428  0.4575  0.6864
16743TIP3    H271721   1.586   3.867   7.171  0.8330 -1.7783 -0.2489
16744TIP3   OH271722   0.997   2.899   1.804 -0.0544 -0.3357  0.1988
16744TIP3    H171723   0.955   2.922   1.886  0.6511  0.2200  0.4087
16744TIP3    H271724   1.004   2.803   1.807 -0.0120 -0.3160  0.7920
16745TIP3   OH271725   4.348   1.236  40.479  0.0593  0.4402 -0.2055
16745TIP3    H171726   4.263   1.262  40.515  0.1189  0.7037 -0.2510
16745TIP3    H271727   4.386   1.318  40.446 -0.1183  0.1722 -1.1204
16746TIP3   OH271728   3.494   3.183  36.519 -0.1461 -0.0057 -0.9558
16746TIP3    H171729   3.519   3.100  36.560 -2.8210 -0.7218 -0.6076
16746TIP3    H271730   3.494   3.246  36.591 -1.6139 -0.5429 -0.4439
16747TIP3   OH271731   3.016   3.304   1.956 -0.0918 -0.3963  0.3781
16747TIP3    H171732   3.079   3.272   2.021  1.0664 -1.2864 -1.1213
16747TIP3    H271733   3.024   3.399   1.959  1.1066 -0.4898  0.4265
16748TIP3   OH271734   1.695   4.265  29.685 -0.1680  0.2156 -0.1367
16748TIP3    H171735   1.714   4.172  29.677  0.6375  0.2465  1.1517
16748TIP3    H271736   1.633   4.283  29.615 -0.9395 -1.4525  0.0832
16749TIP3   OH271737   2.754   3.167  28.878  0.4770  0.2184  0.2525
16749TIP3    H171738   2.710   3.164  28.964 -1.2837  0.9418 -0.5622
16749TIP3    H271739   2.732   3.084  28.837 -2.0109  1.3677 -0.9594
16750TIP3   OH271740   0.380   3.714  13.234  0.3467  0.6450  0.2780
16750TIP3    H171741   0.446   3.768  13.277  1.4909  0.7912 -1.5345
16750TIP3    H271742   0.420   3.627  13.229  0.3415  0.6849 -0.6552
16751TIP3   OH271743   0.062   0.452   0.932  0.3908  0.8744  0.0687
16751TIP3    H171744   0.047   0.410   1.017 -1.2436  2.7138  0.7648
16751TIP3    H271745   0.001   0.408   0.873  1.2212 -0.1070 -0.0976
16752TIP3   OH271746   2.865   1.822   2.103  0.0518 -0.0792 -0.3795
16752TIP3    H171747   2.851   1.874   2.183  1.1377 -1.4294  0.7486
16752TIP3    H271748   2.938   1.865   2.059  0.9675 -0.6237  0.5640
16753TIP3   OH271749   2.669   3.184  39.227  0.2827 -0.4132  0.3720
16753TIP3    H171750   2.576   3.172  39.211 -0.2059  1.4821  1.4901
16753TIP3    H271751   2.707   3.098  39.211 -1.6534 -1.2374 -0.0725
16754TIP3   OH271752   1.763   1.942  31.863  0.4842 -0.2683  0.0866
16754TIP3    H171753   1.810   1.882  31.921 -0.7699  0.6121  2.1043
16754TIP3    H271754   1.751   2.021  31.916 -1.0033  0.4572 -1.2782
16755TIP3   OH271755   2.832   3.603   4.139 -0.4067  0.2546 -0.3935
16755TIP3    H171756   2.811   3.610   4.046  2.3805 -1.8353 -1.3085
16755TIP3    H271757   2.807   3.513   4.163 -0.7791  0.6566  0.8216
16756TIP3   OH271758   1.229   4.159   8.453 -0.7252  0.0408  0.0348
16756TIP3    H171759   1.247   4.170   8.547 -2.5001  1.9646  0.2115
16756TIP3    H271760   1.135   4.143   8.448 -0.4821 -1.1361 -1.3777
16757TIP3   OH271761   4.234   0.934  38.110 -0.3783 -0.2587 -0.0721
16757TIP3    H171762   4.159   0.965  38.059 -0.4431  1.5013  1.0040
16757TIP3    H271763   4.225   0.839  38.111 -4.0968 -0.0647  2.2239
16758TIP3   OH271764   0.030   1.762   0.928 -0.4530 -0.1614  0.4495
16758TIP3    H171765   0.059   1.845   0.966  0.8615 -0.2990 -0.1953
16758TIP3    H271766  -0.029   1.787   0.857  0.3179  0.2736 -0.0631
16759TIP3   OH271767   0.898   3.496  17.127  0.4044  0.0981  0.1640
16759TIP3    H171768   0.818   3.451  17.155  0.4350  0.3669  0.6966
16759TIP3    H271769   0.951   3.427  17.086  0.5194 -0.3935  1.1120
16760TIP3   OH271770   3.430   1.724  31.406 -0.7361  0.1861 -0.1733
16760TIP3    H171771   3.428   1.629  31.408  0.4630  0.1418 -0.6426
16760TIP3    H271772   3.404   1.747  31.317  0.1581  0.2492 -0.4229
16761TIP3   OH271773   2.843   0.118  30.368  0.2928 -0.2766 -0.1929
16761TIP3    H171774   2.909   0.187  30.370 -2.2826  2.4563 -1.7671
16761TIP3    H271775   2.782   0.141  30.438 -1.2177 -0.2618 -1.4637
16762TIP3   OH271776   0.126   3.307  31.599  0.1967 -0.3860  0.1823
16762TIP3    H171777   0.076   3.236  31.561  1.5989 -0.6610 -1.2590
16762TIP3    H271778   0.213   3.300  31.559  0.5069  1.8680  0.3183
16763TIP3   OH271779   2.511   3.080  28.384  0.3385 -0.0351  0.0869
16763TIP3    H171780   2.535   3.172  28.394  1.7071 -0.3414 -0.1647
16763TIP3    H271781   2.416   3.079  28.389  0.3304  1.3463  0.4628
16764TIP3   OH271782   0.035   1.084   4.743 -0.5352 -0.5738  0.2136
16764TIP3    H171783   0.066   1.125   4.662  1.6779 -1.7345  0.3900
16764TIP3    H271784  -0.011   1.154   4.789  0.1850  0.7612 -0.9960
16765TIP3   OH271785   2.858   0.949   7.367 -0.3399  0.0883  0.1515
16765TIP3    H171786   2.930   1.009   7.351  1.4439 -1.6837  1.1478
16765TIP3    H271787   2.846   0.903   7.283 -0.2698  0.3081  0.0198
16766TIP3   OH271788   3.408   4.303   3.701 -0.4779 -0.1500  0.0354
16766TIP3    H171789   3.352   4.285   3.776 -1.4012 -3.6771 -1.2635
16766TIP3    H271790   3.474   4.233   3.703  2.4747  2.3903  0.0891
16767TIP3   OH271791   3.554   0.964  31.879 -0.2673 -0.3577 -0.0798
16767TIP3    H171792   3.595   1.040  31.837 -1.0242 -0.0458 -0.2788
16767TIP3    H271793   3.625   0.900  31.888  0.2752  0.1974 -0.3339
16768TIP3   OH271794   0.879   3.805   0.761  0.2075  0.1206  0.4611
16768TIP3    H171795   0.868   3.716   0.795 -0.5965 -0.0543 -0.2162
16768TIP3    H271796   0.790   3.834   0.740  0.3701  1.4135  1.4452
16769TIP3   OH271797   1.698   3.502   5.384  0.0877  0.2586 -0.2813
16769TIP3    H171798   1.672   3.414   5.357 -2.3051  0.5846  0.6537
16769TIP3    H271799   1.633   3.560   5.343 -1.0217  1.1429  2.4955
16770TIP3   OH271800   2.931   0.558   0.267  0.5949 -0.2405 -0.4765
16770TIP3    H171801   2.951   0.532   0.357 -0.2713 -0.5822 -0.3788
16770TIP3    H271802   2.995   0.627   0.248 -0.5600  1.3630  1.1391
16771TIP3   OH271803   1.724   1.582  12.854 -0.5677 -0.7093 -0.3302
16771TIP3    H171804   1.782   1.511  12.826  0.1532 -0.7197  1.0995
16771TIP3    H271805   1.775   1.662  12.840 -1.3364 -0.4389 -1.8345
16772TIP3   OH271806   3.306   3.248   5.162 -0.2360  0.7644 -0.3094
16772TIP3    H171807   3.223   3.203   5.147  0.2554 -1.1385  2.1278
16772TIP3    H271808   3.292   3.301   5.240  1.2201 -0.8130  1.0930
16773TIP3   OH271809   3.085   3.249   8.783 -0.0004  0.1049 -0.2057
16773TIP3    H171810   3.012   3.276   8.838  0.1382  1.3673 -0.6283
16773TIP3    H271811   3.069   3.156   8.766 -0.3870 -0.1550  1.4248
16774TIP3   OH271812   1.022   3.746   4.792  0.1753  0.0055  0.6298
16774TIP3    H171813   1.054   3.791   4.713 -0.4971 -0.0652  0.3131
16774TIP3    H271814   0.940   3.706   4.765 -0.8837  1.2958  1.7794
16775TIP3   OH271815   3.363   1.138   7.670  0.3325 -0.5585  0.2737
16775TIP3    H171816   3.425   1.196   7.714  0.7285 -1.0317  0.3441
16775TIP3    H271817   3.283   1.144   7.722  0.4021 -0.1547  0.3365
16776TIP3   OH271818   3.796   2.842  28.809 -0.1472  0.3130  0.5446
16776TIP3    H171819   3.860   2.772  28.821 -0.1428  0.2979  0.4371
16776TIP3    H271820   3.735   2.832  28.882 -0.2907  0.0395  0.3891
16777TIP3   OH271821   2.899   0.663  35.945  0.0592  0.2211 -0.3995
16777TIP3    H171822   2.903   0.757  35.924 -0.1561  0.0400 -1.3262
16777TIP3    H271823   2.869   0.622  35.863  1.0414 -0.7456 -0.2998
16778TIP3   OH271824   0.718   0.429   3.997  0.6401  0.3212  0.2558
16778TIP3    H171825   0.685   0.518   4.010  1.9664  0.5734  2.4060
16778TIP3    H271826   0.747   0.401   4.084  1.3276 -1.7814 -0.5841
16779TIP3   OH271827   1.269   2.530  29.378 -0.1450  0.9419  0.5844
16779TIP3    H171828   1.272   2.439  29.406 -0.0748  0.2404 -1.5652
16779TIP3    H271829   1.224   2.575  29.450  0.8593 -0.5324  2.2232
16780TIP3   OH271830   3.087   3.867  10.965  0.2927 -0.5534  0.2746
16780TIP3    H171831   2.992   3.880  10.970  0.5389  1.2718  1.4166
16780TIP3    H271832   3.099   3.774  10.979 -1.3360 -0.8381  0.0465
16781TIP3   OH271833   1.627   0.922  28.561  0.2157  0.7461 -0.0497
16781TIP3    H171834   1.637   0.831  28.590 -1.0245  1.5147  3.1107
16781TIP3    H271835   1.694   0.932  28.492  1.2286 -2.1692  0.3587
16782TIP3   OH271836   2.285   3.959   2.607 -0.2668 -0.7876  0.2387
16782TIP3    H171837   2.257   3.972   2.698 -0.0586 -0.1800  0.2170
16782TIP3    H271838   2.349   3.887   2.612 -0.7106 -1.1743  0.4851
16783TIP3   OH271839   1.636   0.005   1.542 -0.4637  0.5472 -0.4214
16783TIP3    H171840   1.586  -0.034   1.471  0.5255  1.2688 -1.5409
16783TIP3    H271841   1.705  -0.058   1.561 -1.3539 -0.1508  0.6887
16784TIP3   OH271842   1.745   1.220   6.110 -0.3956  0.3596  0.0041
16784TIP3    H171843   1.776   1.133   6.084 -1.9973 -0.3526  0.3547
16784TIP3    H271844   1.675   1.203   6.173 -0.2237  1.9363  0.6789
16785TIP3   OH271845   4.159   0.732  39.114  0.5750 -0.2876  0.3662
16785TIP3    H171846   4.183   0.648  39.155 -0.8037 -0.6504  0.4616
16785TIP3    H271847   4.226   0.793  39.146  2.0642 -1.4937 -0.3248
16786TIP3   OH271848   0.257   3.480  37.361 -0.2549  0.5734  0.2891
16786TIP3    H171849   0.340   3.436  37.380 -0.6333 -1.2611 -1.9522
16786TIP3    H271850   0.198   3.450  37.431  0.0606 -0.8765 -0.0374
16787TIP3   OH271851   3.005   2.519  32.187 -0.2980  0.2367  0.2397
16787TIP3    H171852   2.911   2.504  32.195 -0.7890  2.9430  0.4534
16787TIP3    H271853   3.030   2.475  32.106 -1.9102  0.1115 -0.2170
16788TIP3   OH271854   0.999   0.647  39.340  0.2248 -0.1731 -0.3682
16788TIP3    H171855   1.064   0.653  39.270 -0.2748 -1.4463 -0.9770
16788TIP3    H271856   0.926   0.599  39.301 -0.2108 -0.6061  0.9214
16789TIP3   OH271857   2.835   4.379  29.961 -0.1866  0.3348  0.2500
16789TIP3    H171858   2.900   4.344  30.022 -1.8916  1.2184  2.7790
16789TIP3    H271859   2.792   4.301  29.926 -0.1421 -0.2268  1.3747
16790TIP3   OH271860   3.859   3.046  33.833  0.0843 -0.1200  0.2381
16790TIP3    H171861   3.896   2.975  33.779  0.9262  0.5887 -0.1373
16790TIP3    H271862   3.883   3.126  33.787 -1.3199  0.4090  0.3673
16791TIP3   OH271863   3.200   0.704  31.802 -0.4677 -0.0465 -0.2634
16791TIP3    H171864   3.254   0.743  31.871  1.0558  0.8018 -1.8439
16791TIP3    H271865   3.142   0.775  31.775 -1.1830 -0.4308  0.2546
16792TIP3   OH271866   3.113   1.907   6.492  0.3502  0.0953  0.2922
16792TIP3    H171867   3.068   1.947   6.567  0.4957  1.4096 -0.3063
16792TIP3    H271868   3.137   1.820   6.523 -2.8695 -0.8373  0.5447
16793TIP3   OH271869   0.771   4.130  12.602 -0.2855  0.3742 -0.0379
16793TIP3    H171870   0.773   4.209  12.548  1.1409  0.2419 -0.2158
16793TIP3    H271871   0.831   4.149  12.674 -1.7135  0.3238  1.2222
16794TIP3   OH271872   0.413   4.246  41.348 -0.1509 -0.2865  0.0384
16794TIP3    H171873   0.355   4.322  41.342 -0.1632 -0.2932  0.0702
16794TIP3    H271874   0.497   4.282  41.377 -0.4300 -0.4127  1.0567
16795TIP3   OH271875   3.622   0.475  39.712 -0.5750 -0.4330  0.3728
16795TIP3    H171876   3.596   0.565  39.730 -1.7652 -0.8163  0.6556
16795TIP3    H271877   3.577   0.452  39.631  0.0250 -0.6592  0.0954
16796TIP3   OH271878   3.547   1.590  13.372 -0.2209 -0.6027  0.3019
16796TIP3    H171879   3.620   1.542  13.410  0.6845 -1.1419 -1.9609
16796TIP3    H271880   3.586   1.648  13.307 -1.6546  0.4553  0.3168
16797TIP3   OH271881   3.149   4.145  35.111 -0.5696  0.1904 -0.0367
16797TIP3    H171882   3.235   4.176  35.083 -0.7346  0.8676  0.2035
16797TIP3    H271883   3.094   4.223  35.113 -0.9952 -0.1158  0.5475
16798TIP3   OH271884   0.822   2.533  13.872  0.0526  0.4763 -0.6255
16798TIP3    H171885   0.749   2.564  13.924 -0.4540  1.2213 -1.7444
16798TIP3    H271886   0.900   2.563  13.918 -0.3109 -0.4758  0.6689
16799TIP3   OH271887   3.629   2.789  35.878  0.0588  0.2814  0.1577
16799TIP3    H171888   3.578   2.753  35.951 -0.2509  0.7615  0.1804
16799TIP3    H271889   3.564   2.811  35.812  0.2856  0.4146 -0.0202
16800TIP3   OH271890   4.096   1.275  41.242 -0.4995 -0.1364 -0.5394
16800TIP3    H171891   4.175   1.255  41.292 -0.6945  3.4018  1.4947
16800TIP3    H271892   4.024   1.243  41.296 -0.5960  0.7678 -0.1221
16801TIP3   OH271893   2.205   1.156   9.620  0.3963  0.2132  0.6285
16801TIP3    H171894   2.251   1.235   9.590 -1.8752  1.3223 -0.1814
16801TIP3    H271895   2.139   1.189   9.681 -2.1886 -0.6435 -1.4992
16802TIP3   OH271896   1.222   1.404   0.667 -0.3791  0.3166  0.2148
16802TIP3    H171897   1.146   1.357   0.702  0.0588 -0.7947 -0.3125
16802TIP3    H271898   1.186   1.458   0.597 -0.4974 -1.2093 -0.9270
16803TIP3   OH271899   0.066   1.834  11.086  0.2611  0.0184  0.0842
16803TIP3    H171900   0.086   1.748  11.048  0.1432 -1.2069  2.5467
16803TIP3    H271901   0.145   1.857  11.135 -0.3062  0.4924  0.7985
16804TIP3   OH271902   3.674   3.999  12.344 -0.1910  0.1572 -0.1472
16804TIP3    H171903   3.665   3.907  12.320 -1.1436  0.7966 -2.4815
16804TIP3    H271904   3.692   3.998  12.438  0.2260 -2.4113 -0.1991
16805TIP3   OH271905   1.269   1.283  13.815  0.6357  0.2895  0.0978
16805TIP3    H171906   1.226   1.220  13.872 -0.5074  1.5918  0.7462
16805TIP3    H271907   1.330   1.330  13.872  0.3065  0.8447  0.0028
16806TIP3   OH271908   1.581   2.635   1.430  0.1652  0.6072 -0.1581
16806TIP3    H171909   1.546   2.548   1.409  0.0022  1.0959 -2.0949
16806TIP3    H271910   1.506   2.694   1.418  0.0594  0.9529  1.9423
16807TIP3   OH271911   1.580   1.541  11.643  0.0709  0.5576  0.4610
16807TIP3    H171912   1.592   1.455  11.683  0.0035  0.3128 -0.0374
16807TIP3    H271913   1.668   1.578  11.638  0.0165  0.8431  1.3747
16808TIP3   OH271914   0.206   0.729  41.364  0.5151  0.8679 -0.6306
16808TIP3    H171915   0.221   0.807  41.417  0.6412  1.5899 -1.7072
16808TIP3    H271916   0.284   0.723  41.309  1.6555 -1.3949  1.0707
16809TIP3   OH271917   3.646   0.025  32.176  0.0657 -0.2838 -0.1958
16809TIP3    H171918   3.704  -0.028  32.121 -2.2737 -1.3815 -1.7485
16809TIP3    H271919   3.610  -0.037  32.239  1.8232  0.7387  1.9493
16810TIP3   OH271920   0.314   3.989   8.707 -0.5244  0.1183 -0.3193
16810TIP3    H171921   0.392   3.974   8.760 -0.8057  2.0344  0.7553
16810TIP3    H271922   0.341   3.971   8.617  1.0139  0.2512  0.0932
16811TIP3   OH271923   2.306   1.708   7.582  0.2174 -0.0025  0.0984
16811TIP3    H171924   2.218   1.711   7.621 -0.1908 -1.4784 -0.6376
16811TIP3    H271925   2.336   1.798   7.586 -0.9161  0.3668  1.3065
16812TIP3   OH271926   4.036   2.729  34.101 -0.0987 -0.0706  0.0462
16812TIP3    H171927   3.959   2.786  34.100 -0.1192 -0.0963  0.1068
16812TIP3    H271928   4.006   2.650  34.147  0.1361  0.1653  0.6215
16813TIP3   OH271929   3.906   3.296   5.965  0.2353 -0.0642  0.0910
16813TIP3    H171930   3.951   3.371   6.004 -0.4024 -0.1572  1.0422
16813TIP3    H271931   3.962   3.221   5.987 -0.8034 -0.3289  2.1685
16814TIP3   OH271932   4.056   1.002  12.132 -0.2137 -0.3674  0.0348
16814TIP3    H171933   4.098   1.085  12.109  0.0406 -0.7816 -1.0419
16814TIP3    H271934   3.970   1.006  12.090  0.4710 -1.3698 -1.5767
16815TIP3   OH271935   4.236   0.140   9.432  0.0363 -0.4838 -0.5782
16815TIP3    H171936   4.322   0.178   9.450 -0.6079  0.7444  0.0825
16815TIP3    H271937   4.246   0.094   9.349  0.6572  1.9717 -1.9501
16816TIP3   OH271938   2.762   3.539   4.993  0.1451  0.0237 -0.0324
16816TIP3    H171939   2.774   3.610   4.931 -0.8977  0.7728  0.5916
16816TIP3    H271940   2.729   3.466   4.941  1.1877  0.0068 -0.6710
16817TIP3   OH271941   3.902   2.848  24.419 -0.3148  0.2322 -0.2499
16817TIP3    H171942   3.837   2.917  24.405 -1.8470 -1.5158 -2.4592
16817TIP3    H271943   3.981   2.894  24.446 -1.7069  2.6841 -0.1084
16818TIP3   OH271944   1.074   3.990  38.086 -0.1419  0.0791  0.5104
16818TIP3    H171945   1.156   3.948  38.059  0.3811  2.2357 -1.5908
16818TIP3    H271946   1.008   3.956  38.025 -0.1831  0.5084  0.3056
16819TIP3   OH271947   3.237   0.722   6.295 -0.2547 -0.1759 -0.7960
16819TIP3    H171948   3.267   0.638   6.331 -2.9252  0.6513  4.2587
16819TIP3    H271949   3.308   0.783   6.317 -0.7756 -0.1577  0.9702
16820TIP3   OH271950   2.280   0.160  14.254 -0.4135  0.6113  0.6322
16820TIP3    H171951   2.286   0.244  14.209  0.7111  0.6285  0.7990
16820TIP3    H271952   2.336   0.101  14.203 -0.6013  0.1562  0.9467
16821TIP3   OH271953   1.883   3.285  12.943 -0.1656  0.4621  0.1379
16821TIP3    H171954   1.875   3.318  13.032  0.0183  1.4730 -0.2009
16821TIP3    H271955   1.952   3.218  12.948 -0.6511  0.0063  0.8722
16822TIP3   OH271956   2.183   0.756  39.577 -0.7028 -0.3583 -0.4998
16822TIP3    H171957   2.182   0.781  39.484 -0.3312  0.0634 -0.3981
16822TIP3    H271958   2.273   0.725  39.591 -0.7272 -0.3132 -0.2543
16823TIP3   OH271959   4.178   2.279  34.498  0.1248  0.3723  0.2080
16823TIP3    H171960   4.245   2.318  34.554  0.1419 -0.0109  0.4617
16823TIP3    H271961   4.208   2.189  34.486  0.8094  0.7975 -1.4977
16824TIP3   OH271962   4.295   2.417  31.241 -0.4170 -0.0718  0.8726
16824TIP3    H171963   4.380   2.459  31.225 -0.4098  0.0294  1.1715
16824TIP3    H271964   4.316   2.342  31.297 -0.4985 -0.1732  0.7686
16825TIP3   OH271965   3.851   0.187  33.437 -0.0489  0.3383  0.1204
16825TIP3    H171966   3.947   0.193  33.441  0.0132 -0.8906  1.9006
16825TIP3    H271967   3.824   0.188  33.529 -1.5478 -1.7452 -0.2305
16826TIP3   OH271968   0.680   3.256   0.535  0.4168  0.3687  0.9761
16826TIP3    H171969   0.591   3.289   0.548  0.3395  0.3254  0.5507
16826TIP3    H271970   0.696   3.265   0.441  0.0561 -1.6080  0.6770
16827TIP3   OH271971   2.247   1.807  30.774 -0.2485 -0.1893 -0.3405
16827TIP3    H171972   2.217   1.775  30.689 -1.4457 -1.2333  0.4369
16827TIP3    H271973   2.228   1.736  30.835  0.3549  0.6306  0.8569
16828TIP3   OH271974   3.749   2.555  34.939 -0.5089  0.3170  0.5701
16828TIP3    H171975   3.818   2.607  34.980  1.1785 -0.6798 -0.8311
16828TIP3    H271976   3.701   2.617  34.885  0.4684  0.7276  0.1422
16829TIP3   OH271977   4.250   2.049   5.472 -0.8143 -0.3776 -0.6684
16829TIP3    H171978   4.255   1.961   5.435 -0.3897 -0.6174 -0.0632
16829TIP3    H271979   4.202   2.036   5.555  0.6983 -0.3311  0.2488
16830TIP3   OH271980   1.593   2.496   9.903  0.7562  0.6545 -0.8276
16830TIP3    H171981   1.497   2.498   9.911  0.8559  0.1190  0.7928
16830TIP3    H271982   1.624   2.475   9.990  2.3608  0.3601 -1.4359
16831TIP3   OH271983   1.507   1.335  31.510  0.8184  0.0423 -0.0514
16831TIP3    H171984   1.590   1.334  31.463  0.9506  1.3668  0.1299
16831TIP3    H271985   1.443   1.308  31.444  1.2205  0.2891 -0.5522
16832TIP3   OH271986   0.835   1.247   9.999  0.0300  0.0012 -0.2668
16832TIP3    H171987   0.756   1.193  10.007 -0.3588  0.2956 -1.7386
16832TIP3    H271988   0.881   1.212   9.923  2.9793 -2.1164  2.2490
16833TIP3   OH271989   3.995   1.930   6.431  0.1274 -0.4630 -0.4106
16833TIP3    H171990   4.050   1.860   6.466  0.6711  0.8127  1.4331
16833TIP3    H271991   3.915   1.926   6.483  0.8743  1.3512  1.0109
16834TIP3   OH271992   0.132   2.447  34.943 -0.0760 -0.0699  0.3167
16834TIP3    H171993   0.211   2.500  34.931  0.2311 -0.6378 -0.2388
16834TIP3    H271994   0.166   2.359  34.964 -0.5719  0.1173  2.0694
16835TIP3   OH271995   0.144   2.813   9.508 -0.4134  0.5776  0.5428
16835TIP3    H171996   0.233   2.840   9.533 -0.4170  1.1967 -0.0648
16835TIP3    H271997   0.090   2.889   9.531 -0.7285  0.3411  0.5746
16836TIP3   OH271998   1.955   3.191   0.752 -0.2790 -0.2249 -0.9731
16836TIP3    H171999   2.022   3.257   0.738 -1.9799  1.4938 -1.5763
16836TIP3    H272000   1.912   3.183   0.666 -4.3328  2.8910  0.4297
16837TIP3   OH272001   0.376   2.796  27.976 -0.2765  0.0288 -0.1907
16837TIP3    H172002   0.441   2.866  27.974  0.4364 -0.5649  0.7974
16837TIP3    H272003   0.296   2.836  27.943  0.2210  1.1974 -0.0280
16838TIP3   OH272004   3.773   2.702  24.205 -0.2915  0.0652  0.0431
16838TIP3    H172005   3.709   2.763  24.168  0.3000 -0.7120 -2.3718
16838TIP3    H272006   3.806   2.748  24.283 -1.7536  1.6746 -0.2152
16839TIP3   OH272007   4.406   1.439   4.176 -0.5394  0.6296 -0.1890
16839TIP3    H172008   4.467   1.454   4.249 -2.0417 -3.0636  2.1352
16839TIP3    H272009   4.458   1.455   4.097  2.7810 -0.1213  1.6694
16840TIP3   OH272010   4.256   1.168  37.118 -0.2992 -0.4273 -0.7313
16840TIP3    H172011   4.207   1.221  37.180  1.5418 -0.0904  0.5215
16840TIP3    H272012   4.278   1.089  37.166  0.6732 -0.4095 -1.1139
16841TIP3   OH272013   1.278   1.745  30.299  0.3072  0.2003 -0.5654
16841TIP3    H172014   1.269   1.653  30.274  0.9972  0.1022 -0.4747
16841TIP3    H272015   1.286   1.792  30.216  2.3918 -0.1021 -0.5908
16842TIP3   OH272016   0.008   1.465   3.466  0.1492 -0.3394  0.2915
16842TIP3    H172017  -0.050   1.437   3.395  0.0834 -1.1005  0.6404
16842TIP3    H272018  -0.027   1.551   3.492 -0.2433 -0.3635 -0.1306
16843TIP3   OH272019   3.198   3.424  36.744 -0.0045  0.0221  0.0702
16843TIP3    H172020   3.282   3.384  36.764  0.7110  0.9341 -1.0158
16843TIP3    H272021   3.189   3.495  36.807 -0.9586 -1.3360  1.5526
16844TIP3   OH272022   0.370   3.311  31.856  0.2174 -0.1173 -0.0434
16844TIP3    H172023   0.427   3.238  31.832  2.1897  1.5545 -0.7571
16844TIP3    H272024   0.430   3.381  31.880 -1.6090  0.5120  3.2573
16845TIP3   OH272025   2.019   3.511  39.943  0.1466 -0.4249  0.0623
16845TIP3    H172026   1.962   3.544  39.874 -0.2994 -0.3475  0.4633
16845TIP3    H272027   1.969   3.524  40.024  0.5988 -0.6561  0.3811
16846TIP3   OH272028   3.075   1.345  38.162  0.0611  0.1840 -0.3773
16846TIP3    H172029   3.142   1.388  38.109  1.2257 -1.8103 -0.6389
16846TIP3    H272030   3.018   1.416  38.190  0.1725  1.5247 -3.1569
16847TIP3   OH272031   1.002   2.540  12.915  0.6879  0.1621 -0.3322
16847TIP3    H172032   1.006   2.494  12.831  1.3489  0.2272 -0.3468
16847TIP3    H272033   1.089   2.580  12.924  0.0064  1.7859 -0.5325
16848TIP3   OH272034   1.551   1.831  33.649 -0.1405 -0.1330  0.6466
16848TIP3    H172035   1.594   1.810  33.566  1.0835  0.4109  1.1219
16848TIP3    H272036   1.458   1.841  33.625 -0.0891 -1.6891 -0.3255
16849TIP3   OH272037   1.149   1.479  26.641  0.3729 -0.6267  0.5229
16849TIP3    H172038   1.073   1.498  26.586  1.9668  1.0636 -1.2735
16849TIP3    H272039   1.210   1.434  26.582  1.2166 -0.9096  1.5898
16850TIP3   OH272040   1.427   3.370   1.895 -0.3136  0.5295 -0.2830
16850TIP3    H172041   1.356   3.312   1.925  0.3200  0.4348  1.1263
16850TIP3    H272042   1.396   3.404   1.811 -1.4423 -0.5395 -0.3338
16851TIP3   OH272043   3.998   2.396  12.266  0.5355  0.0553  0.5236
16851TIP3    H172044   4.057   2.360  12.332  0.8295  0.3210  0.4092
16851TIP3    H272045   4.030   2.485  12.251  0.6214 -0.0810 -0.1529
16852TIP3   OH272046   3.583   0.549  34.750 -0.3995 -0.2792 -0.3014
16852TIP3    H172047   3.598   0.620  34.812 -0.8100  0.7882 -1.3942
16852TIP3    H272048   3.621   0.472  34.792 -0.2829  0.5001  1.0721
16853TIP3   OH272049   4.332   4.134  38.321 -0.0620  0.4818  0.4289
16853TIP3    H172050   4.361   4.078  38.393  1.0634 -0.0595 -0.4286
16853TIP3    H272051   4.323   4.075  38.247 -0.0827  1.2300 -0.1741
16854TIP3   OH272052   3.621   3.569  36.303 -0.1194 -0.0260  0.2077
16854TIP3    H172053   3.641   3.479  36.327 -2.3938 -1.2025 -1.9168
16854TIP3    H272054   3.706   3.609  36.286  0.8697 -2.2474 -0.3793
16855TIP3   OH272055   1.563   3.238   2.325  0.3294  0.3320 -0.3966
16855TIP3    H172056   1.554   3.261   2.417  0.1833  2.5899 -0.9269
16855TIP3    H272057   1.623   3.163   2.325  1.1700  0.9427  1.4738
16856TIP3   OH272058   0.206   3.632   1.130  0.2621 -0.4412 -0.1688
16856TIP3    H172059   0.156   3.707   1.096 -0.2643 -0.2605  0.9605
16856TIP3    H272060   0.176   3.558   1.078  1.4136  0.2423 -1.8903
16857TIP3   OH272061   1.660   4.257  17.977  0.0253  0.0312  0.2670
16857TIP3    H172062   1.602   4.274  18.051 -0.0560 -2.6146  0.8988
16857TIP3    H272063   1.748   4.252  18.016  0.2025  0.3409 -0.0908
16858TIP3   OH272064   3.122   2.648  10.940 -0.1201  0.1578 -0.8163
16858TIP3    H172065   3.157   2.559  10.931  0.7659  0.5002 -0.8332
16858TIP3    H272066   3.182   2.703  10.889  0.8092  1.1147  1.2208
16859TIP3   OH272067   4.342   2.529  40.119  0.5565 -0.0314 -0.3849
16859TIP3    H172068   4.373   2.615  40.091 -1.6512  0.8014 -0.4448
16859TIP3    H272069   4.353   2.529  40.214 -1.1558  1.1078 -0.1443
16860TIP3   OH272070   3.729   1.720   5.483 -0.0879 -0.1303  0.3713
16860TIP3    H172071   3.686   1.739   5.567 -1.5189 -0.5609 -0.2313
16860TIP3    H272072   3.662   1.675   5.432  0.9798 -0.4689 -0.7713
16861TIP3   OH272073   1.070   0.135   8.018  0.2380  0.1659  0.1684
16861TIP3    H172074   1.027   0.093   8.093 -1.1291  0.3414 -0.4862
16861TIP3    H272075   1.144   0.182   8.056 -0.4659  0.3038  1.4204
16862TIP3   OH272076   0.133   0.501  23.044 -0.3343 -0.5315 -0.4279
16862TIP3    H172077   0.068   0.461  23.101  0.9946 -0.4524  1.2315
16862TIP3    H272078   0.202   0.530  23.104  0.2060  1.3921 -1.8885
16863TIP3   OH272079   1.718   3.901  29.168  0.0931 -0.1783 -0.1780
16863TIP3    H172080   1.716   3.813  29.131  1.0211  0.6749 -2.4256
16863TIP3    H272081   1.807   3.932  29.150 -1.1298  2.3718 -2.3835
16864TIP3   OH272082   3.877   3.991   5.511 -0.6503 -0.5316  0.7020
16864TIP3    H172083   3.823   4.061   5.547  0.3155  0.4875  0.2104
16864TIP3    H272084   3.954   3.990   5.567 -0.4678 -0.9178  0.4461
16865TIP3   OH272085   1.586   3.284  28.178  0.4437  0.0781 -0.1834
16865TIP3    H172086   1.556   3.336  28.252 -3.8009 -0.0617 -1.4809
16865TIP3    H272087   1.614   3.201  28.216  0.6359  0.8518  1.4185
16866TIP3   OH272088   2.747   2.848  33.924  0.0432  0.3346 -0.1766
16866TIP3    H172089   2.834   2.834  33.961  0.7955  0.2417 -1.8979
16866TIP3    H272090   2.763   2.870  33.833 -1.7205  1.0054 -0.3630
16867TIP3   OH272091   1.892   0.358   4.754 -0.4631 -0.2268 -0.4359
16867TIP3    H172092   1.954   0.295   4.717  1.0673  1.7260 -1.3662
16867TIP3    H272093   1.855   0.403   4.678  1.4040  2.6344  0.2056
16868TIP3   OH272094   4.024   0.803  41.100  0.3232  0.2385 -0.0106
16868TIP3    H172095   4.095   0.741  41.112  1.2923  1.3050 -0.0815
16868TIP3    H272096   3.965   0.787  41.173 -0.0878 -1.5734 -0.6946
16869TIP3   OH272097   3.269   2.388  26.800  0.1450  0.2153  0.0505
16869TIP3    H172098   3.322   2.417  26.726  0.6059  0.4443  0.4624
16869TIP3    H272099   3.278   2.458  26.865 -1.2562  0.6189 -0.1386
16870TIP3   OH272100   3.264   0.684   2.790 -0.1928 -0.6053  0.2744
16870TIP3    H172101   3.245   0.595   2.760  1.0495 -0.2119 -1.9097
16870TIP3    H272102   3.180   0.731   2.782 -1.5409 -2.0602  3.8731
16871TIP3   OH272103   0.718   3.931  27.821  0.0227  0.1060  0.2820
16871TIP3    H172104   0.662   3.854  27.816 -1.8414  1.2738  1.9405
16871TIP3    H272105   0.755   3.928  27.909 -0.0513  1.0805  0.3530
16872TIP3   OH272106   0.417   1.648  27.018  0.0674 -0.0103 -0.6721
16872TIP3    H172107   0.398   1.684  27.105  0.2193 -0.4404 -0.4586
16872TIP3    H272108   0.498   1.599  27.031  0.5689  0.6448 -1.2499
16873TIP3   OH272109   1.317   0.558  18.260 -0.2467 -0.3881  0.1523
16873TIP3    H172110   1.251   0.621  18.231 -0.6814 -1.0438 -0.2955
16873TIP3    H272111   1.386   0.563  18.194 -0.1596 -0.2014  0.2553
16874TIP3   OH272112   2.508   4.300  40.955  0.7103  0.4053  0.5583
16874TIP3    H172113   2.506   4.345  41.039 -0.1951  1.5177 -0.0243
16874TIP3    H272114   2.491   4.208  40.977 -1.4198  0.9411  1.4671
16875TIP3   OH272115   1.747   2.417   3.946  0.2221  0.1540  0.2858
16875TIP3    H172116   1.667   2.401   3.896 -0.2500  1.3522  0.6252
16875TIP3    H272117   1.801   2.471   3.888 -0.1244  1.1401  0.8567
16876TIP3   OH272118   1.500   3.576  30.020  0.4397 -0.7833 -0.5660
16876TIP3    H172119   1.434   3.615  29.963  0.6754 -1.5342 -1.3798
16876TIP3    H272120   1.455   3.502  30.060 -0.1443  0.5161  1.3186
16877TIP3   OH272121   3.514   0.778  10.466  0.2126 -0.3236  0.7401
16877TIP3    H172122   3.436   0.829  10.442  1.1423  2.0098  2.2657
16877TIP3    H272123   3.511   0.701  10.409 -2.0288  0.7728 -0.7833
16878TIP3   OH272124   1.381   0.120  40.044 -0.0035 -0.3365  0.9069
16878TIP3    H172125   1.331   0.187  40.090  0.4729 -0.3571  1.4759
16878TIP3    H272126   1.336   0.107  39.961 -0.3051  0.4256  0.9559
16879TIP3   OH272127   4.272   3.471  28.225  0.7483 -0.4264 -0.0423
16879TIP3    H172128   4.261   3.538  28.293  1.8200  0.5359 -0.8010
16879TIP3    H272129   4.360   3.484  28.192 -0.1343 -0.0755 -2.4661
16880TIP3   OH272130   2.789   0.005   2.128  0.2892  0.5725  0.4543
16880TIP3    H172131   2.725   0.062   2.170  1.0695  2.4070 -0.7217
16880TIP3    H272132   2.868   0.014   2.181 -0.1370 -1.0398  1.4245
16881TIP3   OH272133   2.897   3.098  31.895  0.2328 -0.3910 -0.3923
16881TIP3    H172134   2.988   3.120  31.915  0.2634 -0.3895 -0.5312
16881TIP3    H272135   2.869   3.041  31.967 -0.1119  0.7834  0.4366
16882TIP3   OH272136   0.633   4.371  41.558  0.0967 -0.4215  0.1007
16882TIP3    H172137   0.717   4.407  41.527 -0.5608 -0.9552 -2.5288
16882TIP3    H272138   0.573   4.445  41.553 -0.0875 -0.5928 -0.2690
16883TIP3   OH272139   0.902   1.161  33.198 -0.1447 -0.2979  0.5018
16883TIP3    H172140   0.834   1.093  33.193 -0.8928  0.4376  0.5296
16883TIP3    H272141   0.867   1.234  33.147 -0.2411  0.8350  2.1384
16884TIP3   OH272142   3.416   1.286  27.424 -0.5239  0.0956 -0.5895
16884TIP3    H172143   3.412   1.324  27.337  1.2161  0.4952 -0.5344
16884TIP3    H272144   3.370   1.348  27.480  0.3172  0.9859 -0.8690
16885TIP3   OH272145   3.301   0.978   4.122 -0.2778  0.1834 -0.0004
16885TIP3    H172146   3.348   1.055   4.156 -0.6350  0.6512 -0.5339
16885TIP3    H272147   3.283   0.924   4.199  0.5820  0.3006  0.2927
16886TIP3   OH272148   2.037   3.168  13.675  0.2087  0.0393 -0.4766
16886TIP3    H172149   2.113   3.125  13.635 -0.1175 -0.9385 -0.0917
16886TIP3    H272150   1.973   3.174  13.604  0.0372 -0.6801 -0.3910
16887TIP3   OH272151   1.441   3.293  32.813 -0.4113 -0.3124 -0.2739
16887TIP3    H172152   1.508   3.224  32.817 -2.6559 -2.5809  0.8228
16887TIP3    H272153   1.412   3.304  32.904 -1.5155  0.6282 -0.7147
16888TIP3   OH272154   3.022   2.164   6.455  0.5948 -0.3556  0.7271
16888TIP3    H172155   3.093   2.100   6.444 -0.5178 -1.4302 -0.5596
16888TIP3    H272156   2.965   2.150   6.379 -1.9256 -0.7119  2.5709
16889TIP3   OH272157   0.208   2.707   8.826 -0.0141  0.3151  0.0286
16889TIP3    H172158   0.296   2.743   8.812 -0.6877  2.2061  0.4197
16889TIP3    H272159   0.179   2.680   8.739  0.1156  1.7037 -0.4664
16890TIP3   OH272160   3.086   2.448  28.633  0.1132  0.1361  0.4176
16890TIP3    H172161   3.174   2.410  28.638 -0.2330 -0.9710 -1.1217
16890TIP3    H272162   3.096   2.523  28.576  0.3376  1.0110  1.5616
16891TIP3   OH272163   2.500   0.551  35.570  0.3923  0.3384 -0.4902
16891TIP3    H172164   2.460   0.474  35.609  1.2743 -0.3008 -0.8206
16891TIP3    H272165   2.441   0.574  35.497 -0.3903  0.5832  0.1987
16892TIP3   OH272166   0.733   2.598   9.488 -0.2859 -0.0796 -0.8148
16892TIP3    H172167   0.818   2.566   9.519 -0.1152 -0.3847 -1.5711
16892TIP3    H272168   0.751   2.686   9.455 -0.1646 -0.3345 -1.4277
16893TIP3   OH272169   3.719   2.319  29.674  0.0938  0.5634  0.2534
16893TIP3    H172170   3.757   2.306  29.587  2.3539  0.1790  1.2190
16893TIP3    H272171   3.691   2.231  29.701  1.2999  0.2894  0.6931
16894TIP3   OH272172   0.437   0.745  37.623 -0.2250 -0.2954 -0.3466
16894TIP3    H172173   0.424   0.676  37.558  1.9054 -1.0163 -0.0910
16894TIP3    H272174   0.420   0.701  37.707 -1.2961  0.1749 -0.3080
16895TIP3   OH272175   2.179   2.450  19.072  0.0298  0.3216 -0.0291
16895TIP3    H172176   2.155   2.502  18.995  0.9637  2.1498  0.8420
16895TIP3    H272177   2.181   2.360  19.040  1.2875  1.0896 -2.3990
16896TIP3   OH272178   0.582   4.296  28.438 -0.4216  0.1475 -0.3839
16896TIP3    H172179   0.523   4.292  28.513 -1.3432 -0.5612 -1.1135
16896TIP3    H272180   0.577   4.387  28.408 -2.3750 -0.2051 -1.3371
16897TIP3   OH272181   0.322   2.638   9.395  0.1105 -0.0309 -0.4399
16897TIP3    H172182   0.355   2.706   9.337  0.6088  0.3611  0.2878
16897TIP3    H272183   0.242   2.675   9.433  0.3712  0.1443 -0.0588
16898TIP3   OH272184   0.976   1.291  28.772 -0.1000 -0.5346 -0.4593
16898TIP3    H172185   0.947   1.219  28.716  0.8794 -0.4745 -1.0688
16898TIP3    H272186   0.992   1.364  28.712  0.1503 -0.2063 -0.0029
16899TIP3   OH272187   4.317   1.717  29.697 -0.2698  0.2300 -0.2667
16899TIP3    H172188   4.401   1.763  29.702 -0.8201  1.4351 -1.5028
16899TIP3    H272189   4.256   1.773  29.745 -0.2775 -0.9226  1.1155
16900TIP3   OH272190   0.490   1.527  32.028 -0.2263 -0.1036 -0.0896
16900TIP3    H172191   0.513   1.601  32.084  0.6110 -1.0703  0.9150
16900TIP3    H272192   0.529   1.548  31.943 -1.0833  1.1622 -0.1991
16901TIP3   OH272193   2.676   2.039  29.523 -0.1950  1.5287  0.5589
16901TIP3    H172194   2.592   2.001  29.498 -0.2467  1.8282  0.2902
16901TIP3    H272195   2.739   1.999  29.463  0.3332 -0.9763  2.5825
16902TIP3   OH272196   1.726   0.991   8.420  0.5776  0.8731 -0.7606
16902TIP3    H172197   1.680   0.937   8.484  0.6067  1.5541 -0.1480
16902TIP3    H272198   1.666   1.064   8.402  2.1188  2.9020  1.6048
16903TIP3   OH272199   1.908   0.563  30.354 -0.1150  0.6665 -0.0706
16903TIP3    H172200   1.923   0.647  30.397 -1.5232  1.9364 -1.9092
16903TIP3    H272201   1.826   0.531  30.392  1.5334 -1.0463  2.2503
16904TIP3   OH272202   1.847   1.168  31.914  0.5552  0.2147  0.1597
16904TIP3    H172203   1.839   1.083  31.871 -0.3731 -0.4190  1.5245
16904TIP3    H272204   1.793   1.227  31.862  1.2540  0.0018 -0.8321
16905TIP3   OH272205   0.806   0.241  39.763  0.5282 -0.5177  0.2339
16905TIP3    H172206   0.876   0.284  39.813  0.3367 -0.2159  0.2482
16905TIP3    H272207   0.816   0.148  39.782  0.8118 -0.4581  0.3816
16906TIP3   OH272208   4.012   0.040   1.992  0.3135 -0.2737 -0.6969
16906TIP3    H172209   4.071  -0.001   1.929  0.1400  0.5760 -1.4281
16906TIP3    H272210   3.929   0.048   1.945  0.3570  0.9531 -0.5785
16907TIP3   OH272211   1.657   2.010  34.691  0.0744  0.1700  0.0525
16907TIP3    H172212   1.747   2.029  34.718  0.2893 -0.7260 -0.0060
16907TIP3    H272213   1.605   2.019  34.771  0.1028  1.3469 -0.0461
16908TIP3   OH272214   1.098   4.050  26.455  0.5754 -0.4550  0.4276
16908TIP3    H172215   1.190   4.051  26.481  0.1812 -0.9182  1.9108
16908TIP3    H272216   1.062   3.973  26.498 -0.4059 -0.5524 -0.5440
16909TIP3   OH272217   0.005   4.015  29.796 -0.3151  0.2796 -0.0651
16909TIP3    H172218   0.048   3.930  29.786 -1.6232 -0.3836 -0.1737
16909TIP3    H272219  -0.073   4.010  29.741  0.2821  2.0547 -1.1638
16910TIP3   OH272220   4.206   3.693  30.038 -0.0472 -0.3602 -0.2185
16910TIP3    H172221   4.294   3.722  30.062  0.1459  0.1836 -1.4933
16910TIP3    H272222   4.185   3.743  29.959 -1.4263 -0.6291 -0.0520
16911TIP3   OH272223   2.287   2.821  30.122 -0.7003 -0.3180 -0.1769
16911TIP3    H172224   2.280   2.749  30.185 -1.4616 -1.3809 -1.4306
16911TIP3    H272225   2.345   2.787  30.054 -0.5395  0.5212 -0.4691
16912TIP3   OH272226   1.694   2.825  11.550  0.2956 -0.0104 -0.4497
16912TIP3    H172227   1.732   2.756  11.496 -2.0660 -1.2929 -0.6168
16912TIP3    H272228   1.600   2.821  11.531 -0.1040  2.2333  0.7191
16913TIP3   OH272229   2.712   2.513  28.881  0.1631  0.4156 -0.0652
16913TIP3    H172230   2.798   2.535  28.915 -0.1423  0.9489  0.3814
16913TIP3    H272231   2.727   2.439  28.822  0.7025 -0.4884  1.1743
16914TIP3   OH272232   4.374   4.093   6.063  0.3234 -0.3542  0.2679
16914TIP3    H172233   4.369   4.091   6.159  0.7273  0.7158  0.3220
16914TIP3    H272234   4.376   4.186   6.041 -1.0057 -0.5691 -0.8631
16915TIP3   OH272235   1.750   1.001  32.553  0.4745 -0.0858 -0.1269
16915TIP3    H172236   1.741   0.908  32.532  1.4338 -0.5763  1.4903
16915TIP3    H272237   1.829   1.029  32.506 -0.1913  0.1110 -1.1615
16916TIP3   OH272238   0.318   3.865  12.001 -0.1955 -0.4286  0.3279
16916TIP3    H172239   0.324   3.874  12.096  1.0433 -0.3742  0.2507
16916TIP3    H272240   0.253   3.931  11.975  1.5331  1.5821  0.8482
16917TIP3   OH272241   1.542   0.000  36.145 -0.3909  0.1170 -0.7660
16917TIP3    H172242   1.483  -0.047  36.086 -0.9534 -0.1393 -0.0101
16917TIP3    H272243   1.620   0.016  36.093 -0.6707 -0.5800 -1.4126
16918TIP3   OH272244   3.284   2.784  36.596 -0.1694 -0.0698  0.5216
16918TIP3    H172245   3.296   2.722  36.524 -2.4224  0.2842 -0.2308
16918TIP3    H272246   3.250   2.731  36.668 -1.8166  0.1713 -0.0297
16919TIP3   OH272247   3.655   2.786   8.220  0.3799 -0.3019  0.0013
16919TIP3    H172248   3.722   2.845   8.256  0.7427 -1.9336  2.2151
16919TIP3    H272249   3.598   2.768   8.295 -1.9394  0.1600 -1.5613
16920TIP3   OH272250   2.469   3.172  11.879  0.6065  0.3624  0.5300
16920TIP3    H172251   2.427   3.088  11.859 -0.5724  0.8993  0.6592
16920TIP3    H272252   2.444   3.229  11.806 -0.3786  1.1889  1.4772
16921TIP3   OH272253   0.441   2.939   6.245 -0.1930 -0.0956 -0.0619
16921TIP3    H172254   0.457   2.993   6.323 -1.0330  0.7149 -0.4437
16921TIP3    H272255   0.369   2.881   6.270  0.9325 -1.3280  0.4668
16922TIP3   OH272256   3.713   0.302   5.857  0.1773 -0.1296  0.2533
16922TIP3    H172257   3.719   0.369   5.925 -1.1704 -0.3036  0.5893
16922TIP3    H272258   3.633   0.325   5.809 -0.0274 -1.2060  0.0616
16923TIP3   OH272259   1.092   0.540  38.878 -0.1833 -0.1968 -0.6901
16923TIP3    H172260   1.174   0.531  38.829 -0.1778  0.5168 -0.8139
16923TIP3    H272261   1.040   0.601  38.826 -0.3720  0.1860 -0.0523
16924TIP3   OH272262   1.811   3.999   8.901 -0.0145  0.1418  0.2873
16924TIP3    H172263   1.770   4.080   8.931  3.8403  2.1565  0.7246
16924TIP3    H272264   1.807   4.004   8.805 -1.0596  0.0714  0.3131
16925TIP3   OH272265   0.053   1.906   1.873 -0.3674 -0.3723 -0.1215
16925TIP3    H172266  -0.026   1.960   1.877 -1.6806 -2.1035 -0.9709
16925TIP3    H272267   0.037   1.847   1.799  2.4668  0.2881 -1.3665
16926TIP3   OH272268   1.200   2.262  39.112  0.4846  0.4405  0.2145
16926TIP3    H172269   1.204   2.187  39.052  1.3522 -1.5397  2.5878
16926TIP3    H272270   1.218   2.337  39.056 -0.1127 -1.1074 -2.2408
16927TIP3   OH272271   1.951   4.016  35.311  0.0088 -0.0241  0.2533
16927TIP3    H172272   2.007   3.942  35.335  0.3606  0.0427 -0.3398
16927TIP3    H272273   1.862   3.983  35.319  0.1509 -1.3294 -2.3591
16928TIP3   OH272274   0.534   0.386   1.535 -0.2909  0.4128  0.7179
16928TIP3    H172275   0.538   0.482   1.537 -1.6434  0.5609 -1.0760
16928TIP3    H272276   0.624   0.359   1.515 -0.2412  1.4383 -0.6390
16929TIP3   OH272277   2.476   1.164   2.240  0.2662  0.2869 -0.4427
16929TIP3    H172278   2.472   1.245   2.189 -2.1055  0.1679 -0.5348
16929TIP3    H272279   2.451   1.189   2.328 -1.2876 -0.4279 -0.6464
16930TIP3   OH272280   1.147   4.381  33.945  0.3429  0.1033 -0.0610
16930TIP3    H172281   1.185   4.302  33.983 -2.0321 -0.9884  0.2092
16930TIP3    H272282   1.122   4.434  34.021 -0.2086  0.0246 -0.1833
16931TIP3   OH272283   0.335   1.663   1.130 -0.1395  0.2723  0.1573
16931TIP3    H172284   0.403   1.597   1.148 -0.1481  0.3891  0.6298
16931TIP3    H272285   0.263   1.613   1.092 -0.0568  0.0410  0.2996
16932TIP3   OH272286   0.186   1.742   5.709 -0.0178 -0.1721 -0.2939
16932TIP3    H172287   0.123   1.799   5.753  0.5818  0.2314  0.0545
16932TIP3    H272288   0.193   1.666   5.765  1.3763  0.7049  0.7909
16933TIP3   OH272289   0.037   4.182  12.188 -0.1033  0.6521 -0.3012
16933TIP3    H172290   0.087   4.127  12.249 -0.9400 -1.2827 -1.2645
16933TIP3    H272291  -0.052   4.182  12.223  0.0369  2.0515  0.0882
16934TIP3   OH272292   0.823   1.725  17.009  0.8474 -0.3019  0.1896
16934TIP3    H172293   0.799   1.731  17.101  2.0141 -0.1995  0.5094
16934TIP3    H272294   0.778   1.647  16.976  1.7959 -1.3407  1.2929
16935TIP3   OH272295   3.021   3.805  36.315 -0.3244 -0.1623 -0.4559
16935TIP3    H172296   2.949   3.830  36.374 -0.1504  1.0293 -0.7175
16935TIP3    H272297   3.019   3.710  36.315 -0.6300 -0.1937  1.1169
16936TIP3   OH272298   2.057   1.289  28.153 -0.0921  0.2288  1.0705
16936TIP3    H172299   2.125   1.226  28.129 -0.3104  0.2867  0.2773
16936TIP3    H272300   1.975   1.240  28.143 -0.4412  1.1684 -1.5788
16937TIP3   OH272301   1.862   1.512  37.967  0.5816  0.3960 -0.0498
16937TIP3    H172302   1.871   1.440  37.906 -1.1065 -0.2680  0.4249
16937TIP3    H272303   1.835   1.587  37.913 -1.1037 -0.2354 -0.1578
16938TIP3   OH272304   0.576   3.676  27.978 -0.2909  0.2436  0.2096
16938TIP3    H172305   0.623   3.660  28.060 -0.8788 -1.2982  0.2707
16938TIP3    H272306   0.533   3.761  27.991 -0.6271 -0.1172  1.6164
16939TIP3   OH272307   0.719   1.594  36.251 -0.8146 -0.7129 -0.6682
16939TIP3    H172308   0.687   1.633  36.332 -0.3626  0.3909 -1.0055
16939TIP3    H272309   0.693   1.502  36.257  1.1082 -1.2123  1.7387
16940TIP3   OH272310   2.317   1.413  29.644  0.7868 -0.6693  0.4321
16940TIP3    H172311   2.367   1.457  29.575 -0.0454 -0.9333 -0.3623
16940TIP3    H272312   2.258   1.480  29.678 -1.7525 -1.4872 -1.9962
16941TIP3   OH272313   0.321   0.207  37.919  0.5209 -0.5489  0.7799
16941TIP3    H172314   0.401   0.224  37.968  2.4503 -0.0719 -2.2351
16941TIP3    H272315   0.324   0.113  37.900  0.0226 -0.6487  1.1843
16942TIP3   OH272316   2.995   1.295  11.699 -0.3805 -0.0434 -0.0716
16942TIP3    H172317   2.963   1.206  11.707 -0.5297 -0.0279 -0.5028
16942TIP3    H272318   3.066   1.291  11.635  0.8389 -0.1639  1.2273
16943TIP3   OH272319   2.020   0.528   1.150  0.0957  0.3940 -0.0146
16943TIP3    H172320   2.021   0.573   1.234 -2.7582 -0.5899  0.6887
16943TIP3    H272321   2.040   0.595   1.085  1.3096  1.4006  1.3484
16944TIP3   OH272322   0.205   1.570  23.301  0.2977  0.0460 -0.8442
16944TIP3    H172323   0.170   1.653  23.333  1.8832  1.3556 -2.3038
16944TIP3    H272324   0.289   1.561  23.346 -0.8541 -2.0224  1.0821
16945TIP3   OH272325   2.350   1.452  11.315 -0.7181 -0.2952 -0.1921
16945TIP3    H172326   2.257   1.457  11.336 -0.7533  0.2554 -0.4502
16945TIP3    H272327   2.385   1.537  11.342 -0.6986  0.3232 -2.0124
16946TIP3   OH272328   1.136   0.711  18.132 -0.5298  0.0009 -0.2471
16946TIP3    H172329   1.106   0.778  18.193  1.4167  0.6766  0.0208
16946TIP3    H272330   1.056   0.665  18.105 -1.9521  2.5071 -0.5567
16947TIP3   OH272331   1.235   2.198  27.606 -0.2029 -0.4458  0.4599
16947TIP3    H172332   1.177   2.130  27.638  0.4517 -1.6429 -0.8127
16947TIP3    H272333   1.184   2.279  27.615 -1.8237 -1.3654 -0.0014
16948TIP3   OH272334   0.229   2.321   7.475  0.3680 -0.3319 -0.0758
16948TIP3    H172335   0.312   2.299   7.433 -0.2631  0.4597 -1.8198
16948TIP3    H272336   0.249   2.399   7.527  1.1620 -1.3308  1.1806
16949TIP3   OH272337   1.593   2.679  35.590  0.1884  0.4179 -0.2132
16949TIP3    H172338   1.571   2.715  35.676  2.4560  3.1409 -0.6145
16949TIP3    H272339   1.667   2.620  35.606 -0.3140 -0.2040 -0.1522
16950TIP3   OH272340   2.958   0.102   6.020  0.0119 -0.2404  0.0531
16950TIP3    H172341   2.970   0.186   6.065  1.2786 -0.1857 -0.3441
16950TIP3    H272342   3.034   0.050   6.046  1.6558  0.3192 -3.1321
16951TIP3   OH272343   1.545   4.155  14.014  0.2876  0.1750 -0.1504
16951TIP3    H172344   1.456   4.135  14.044  0.0594  0.7796 -0.3967
16951TIP3    H272345   1.597   4.158  14.093  0.4251 -1.7276 -0.1175
16952TIP3   OH272346   0.443   3.083  36.791  0.0988 -0.1009  0.1415
16952TIP3    H172347   0.395   3.093  36.709  1.9780  1.2641 -0.8725
16952TIP3    H272348   0.433   2.990  36.814 -0.5602 -0.4814 -1.5846
16953TIP3   OH272349   1.413   1.715  40.208 -0.1758 -0.0374  0.0404
16953TIP3    H172350   1.420   1.620  40.194 -1.2781 -0.4912  2.2400
16953TIP3    H272351   1.331   1.727  40.256  0.9548  1.8012  1.6633
16954TIP3   OH272352   0.029   2.306  25.563  0.7602 -0.0313  0.7573
16954TIP3    H172353   0.031   2.310  25.468  1.7171 -0.8568  0.7284
16954TIP3    H272354   0.038   2.397  25.591 -2.6381  0.6494  0.0831
16955TIP3   OH272355   0.566   3.819  11.844 -0.0402 -0.1276  0.4663
16955TIP3    H172356   0.483   3.836  11.889 -0.3265 -2.8124  1.1020
16955TIP3    H272357   0.544   3.755  11.777  1.3726 -0.2930  0.1380
16956TIP3   OH272358   0.457   2.501   1.995 -0.0419  0.0594  0.1322
16956TIP3    H172359   0.442   2.434   1.929  2.4761 -1.9077  1.3719
16956TIP3    H272360   0.536   2.547   1.965 -0.3380  0.8376  0.5160
16957TIP3   OH272361   0.356   3.092  11.907 -0.7833  0.2481  0.4350
16957TIP3    H172362   0.432   3.145  11.885  0.1215 -0.9874  0.4843
16957TIP3    H272363   0.322   3.061  11.823 -3.4220  3.5712  0.0583
16958TIP3   OH272364   3.041   2.032  27.620  0.3359  0.1752 -0.2777
16958TIP3    H172365   2.965   1.980  27.594  1.1166 -0.4900 -1.3066
16958TIP3    H272366   3.018   2.068  27.706  0.4861 -3.4282  1.4240
16959TIP3   OH272367   0.094   1.276  37.006 -0.0919  0.0991  0.6610
16959TIP3    H172368   0.071   1.362  37.040 -2.0408 -0.5547  1.1097
16959TIP3    H272369   0.026   1.218  37.039  0.4616 -1.3915 -0.6961
16960TIP3   OH272370   0.632   3.776  33.811 -0.0966  0.2853 -0.1230
16960TIP3    H172371   0.630   3.690  33.769 -1.9347  0.9100 -1.4776
16960TIP3    H272372   0.611   3.758  33.903  0.1886 -0.7702 -0.2529
16961TIP3   OH272373   2.534   3.286  34.781  0.3389 -0.5500 -0.6298
16961TIP3    H172374   2.612   3.231  34.773  0.8439 -0.0225  0.4357
16961TIP3    H272375   2.464   3.224  34.802  0.7968 -0.8679  0.0210
16962TIP3   OH272376   2.409   0.138   8.787  0.1562 -0.3508  0.7096
16962TIP3    H172377   2.499   0.125   8.759  0.5090  1.9244  0.6165
16962TIP3    H272378   2.412   0.213   8.846 -1.8402  0.6602 -0.3598
16963TIP3   OH272379   2.164   4.184   3.223 -0.6609 -0.7945 -0.4715
16963TIP3    H172380   2.166   4.102   3.272 -0.6768  0.6397  2.0688
16963TIP3    H272381   2.232   4.174   3.156  0.5892 -2.1758  0.9414
16964TIP3   OH272382   2.883   1.646  29.939  0.7053  0.0188 -0.5826
16964TIP3    H172383   2.897   1.725  29.991 -1.0414  0.1921 -0.3345
16964TIP3    H272384   2.967   1.631  29.895  0.8507  2.4491 -1.2618
16965TIP3   OH272385   1.760   2.879  30.928  0.7001  0.3054 -0.1305
16965TIP3    H172386   1.822   2.879  30.855  1.3803  1.8491  0.4053
16965TIP3    H272387   1.815   2.874  31.006  0.0080 -0.7196  0.3091
16966TIP3   OH272388   1.994   2.736   9.661 -0.4712  0.0057 -0.3161
16966TIP3    H172389   1.914   2.789   9.659  0.1746  0.9897 -1.0328
16966TIP3    H272390   2.030   2.751   9.748 -1.0588 -0.4610  0.0203
16967TIP3   OH272391   1.078   1.105  27.487 -0.7807  0.0022  0.0202
16967TIP3    H172392   1.138   1.080  27.416  0.4745  0.9809  0.6802
16967TIP3    H272393   1.107   1.052  27.562 -2.5692 -1.5721 -0.3380
16968TIP3   OH272394   2.335   2.537  28.240 -0.4906  0.3119  0.4757
16968TIP3    H172395   2.353   2.591  28.163  1.2684  0.0659  0.6603
16968TIP3    H272396   2.415   2.543  28.292 -0.2443 -2.3843  0.5476
16969TIP3   OH272397   1.139   0.447  31.413 -0.9145 -0.0342  0.3294
16969TIP3    H172398   1.201   0.517  31.437 -0.6505  0.2315 -1.0344
16969TIP3    H272399   1.056   0.474  31.452 -0.0984 -0.6601  2.6458
16970TIP3   OH272400   0.738   1.066  39.148  0.2240 -0.1101  0.9128
16970TIP3    H172401   0.806   1.031  39.205 -0.0202 -0.6195  0.8961
16970TIP3    H272402   0.757   1.029  39.062  1.5997  1.9615  0.2306
16971TIP3   OH272403   1.312   3.416   8.625  0.3779 -0.2040  0.0317
16971TIP3    H172404   1.315   3.360   8.548 -0.0672 -0.3554  0.1194
16971TIP3    H272405   1.279   3.359   8.695  1.2634 -0.2103  0.4616
16972TIP3   OH272406   0.370   0.740  23.341 -0.0871 -0.5167  0.0699
16972TIP3    H172407   0.290   0.696  23.371 -1.2772  1.3957 -0.0729
16972TIP3    H272408   0.389   0.804  23.409  0.1481  0.4079 -0.8286
16973TIP3   OH272409   1.848   0.832  13.258  0.0058  0.1651 -0.5115
16973TIP3    H172410   1.920   0.782  13.220  0.5236  0.4940  0.0259
16973TIP3    H272411   1.770   0.801  13.211  0.2406 -1.4465  0.0968
16974TIP3   OH272412   0.463   3.372   6.610 -0.2683  0.4972  0.1727
16974TIP3    H172413   0.425   3.363   6.698  1.0956 -2.7627  0.5671
16974TIP3    H272414   0.546   3.417   6.624 -1.4018  2.7264  0.0588
16975TIP3   OH272415   0.041   3.926  39.912 -0.0919 -0.4816 -0.6342
16975TIP3    H172416   0.058   3.999  39.852  1.4574 -1.9537 -2.1095
16975TIP3    H272417  -0.054   3.917  39.912 -0.3061  1.3972 -0.5506
16976TIP3   OH272418   2.804   2.393  39.632  0.2559 -0.2259 -0.4919
16976TIP3    H172419   2.885   2.348  39.607  1.1016  0.2718  1.2271
16976TIP3    H272420   2.830   2.485  39.643 -1.1522  0.4968 -2.5929
16977TIP3   OH272421   2.104   2.933  33.456 -0.3493  0.2179 -0.0701
16977TIP3    H172422   2.189   2.966  33.426  0.5328 -3.0366 -1.6199
16977TIP3    H272423   2.121   2.899  33.544  0.2130 -0.9923 -0.6098
16978TIP3   OH272424   2.099   2.152  18.060  0.4393 -0.2115  0.1942
16978TIP3    H172425   2.056   2.199  18.132 -1.4504 -0.1556 -0.8956
16978TIP3    H272426   2.042   2.167  17.985  1.3248 -1.8743 -0.8634
16979TIP3   OH272427   4.099   0.860  11.288 -0.0892  0.4217 -0.1633
16979TIP3    H172428   4.029   0.864  11.353 -0.6500  0.2910 -0.7417
16979TIP3    H272429   4.170   0.813  11.331 -1.4746 -2.2008 -0.5554
16980TIP3   OH272430   0.815   2.391  27.683 -0.1779 -0.1626  0.2365
16980TIP3    H172431   0.735   2.443  27.677 -0.4471 -0.7496 -1.9017
16980TIP3    H272432   0.785   2.306  27.716 -0.2203  0.0146  0.6686
16981TIP3   OH272433   0.468   1.285  40.510  0.3878 -0.8872  0.4321
16981TIP3    H172434   0.561   1.264  40.508  0.4741 -0.4712 -0.4032
16981TIP3    H272435   0.459   1.358  40.448 -0.0017  1.0178  2.6140
16982TIP3   OH272436   2.422   2.726  35.630 -0.5038 -0.1755  0.2272
16982TIP3    H172437   2.402   2.672  35.554 -1.5389 -0.1271  0.4561
16982TIP3    H272438   2.381   2.811  35.611  0.0099  0.1316  0.4485
16983TIP3   OH272439   1.551   3.891  40.688  0.6401 -0.3668 -0.0863
16983TIP3    H172440   1.609   3.890  40.612 -0.4645 -2.7302 -1.0001
16983TIP3    H272441   1.522   3.800  40.698 -0.7314  0.2185  2.0235
16984TIP3   OH272442   2.818   3.386  36.490  0.4033  0.1755  0.1524
16984TIP3    H172443   2.880   3.362  36.559  1.3219 -3.1868 -1.6195
16984TIP3    H272444   2.738   3.337  36.510  0.6993 -0.8909 -1.1320
16985TIP3   OH272445   3.727   1.434   2.461 -0.3829 -0.7365 -0.4645
16985TIP3    H172446   3.776   1.397   2.388  0.2287 -1.4875  0.3148
16985TIP3    H272447   3.639   1.397   2.453  0.0152 -1.7662 -0.1287
16986TIP3   OH272448   2.122   3.604   2.642 -0.0019 -0.5155  0.3063
16986TIP3    H172449   2.035   3.611   2.681 -0.5264 -1.5967 -0.6167
16986TIP3    H272450   2.143   3.511   2.646  1.5983 -0.1326  1.4972
16987TIP3   OH272451   3.932   0.988  32.307  0.0362  0.5369 -0.2109
16987TIP3    H172452   4.014   0.943  32.329 -0.9097 -0.9993  0.3373
16987TIP3    H272453   3.916   1.046  32.381  1.0648  1.5274 -0.7307
16988TIP3   OH272454   2.748   2.858  35.541  0.0309  0.4597 -0.1311
16988TIP3    H172455   2.694   2.934  35.564 -1.0070 -0.2840 -0.0144
16988TIP3    H272456   2.768   2.871  35.448  0.6686  1.3432  0.1189
16989TIP3   OH272457   1.444   2.384   8.457  0.1361  0.2363  0.0779
16989TIP3    H172458   1.367   2.373   8.514  0.2850 -0.4033  0.1673
16989TIP3    H272459   1.421   2.336   8.378  0.5974 -0.2944  0.2606
16990TIP3   OH272460   1.438   2.640  13.339 -0.6789 -0.0407 -0.1477
16990TIP3    H172461   1.500   2.702  13.377 -1.0229  1.1041 -1.4218
16990TIP3    H272462   1.470   2.554  13.369  0.4722  0.6408  0.6735
16991TIP3   OH272463   2.826   4.215   4.603  0.3487 -0.5625 -0.4810
16991TIP3    H172464   2.762   4.152   4.572 -0.0698 -0.3288 -0.1005
16991TIP3    H272465   2.779   4.298   4.607  0.8662 -0.2439 -0.8763
16992TIP3   OH272466   1.454   3.080  13.397  0.3141  0.5622 -0.1833
16992TIP3    H172467   1.365   3.083  13.434  0.2474  0.4020 -0.3315
16992TIP3    H272468   1.441   3.076  13.303  0.4573 -0.3271 -0.1768
16993TIP3   OH272469   2.739   1.839   5.180 -0.2719 -0.1449  0.4951
16993TIP3    H172470   2.825   1.832   5.221 -0.5163  0.2825  1.0939
16993TIP3    H272471   2.730   1.932   5.157  0.3558 -0.5634 -1.6537
16994TIP3   OH272472   4.370   4.323  22.606  0.4121  0.7369  0.0824
16994TIP3    H172473   4.301   4.387  22.585 -0.2434  0.9688  2.5833
16994TIP3    H272474   4.421   4.315  22.526 -2.2734  0.8615 -1.7549
16995TIP3   OH272475   0.114   3.273  32.600  0.5979 -0.4016 -0.5135
16995TIP3    H172476   0.132   3.318  32.517  1.4036  1.0013  0.3731
16995TIP3    H272477   0.145   3.184  32.586  1.4532  0.0238 -1.4956
16996TIP3   OH272478   3.666   3.750  31.263 -0.8736  0.2365 -0.0312
16996TIP3    H172479   3.665   3.668  31.213 -0.0324 -0.1509  0.5660
16996TIP3    H272480   3.750   3.790  31.242 -1.0473  0.6798  0.1097
16997TIP3   OH272481   3.880   1.661  28.653  0.2739  0.5668  0.4396
16997TIP3    H172482   3.913   1.683  28.740 -0.0970 -1.2895  1.1046
16997TIP3    H272483   3.787   1.683  28.657 -0.2981 -1.6825  1.4049
16998TIP3   OH272484   0.948   3.832   3.678 -0.8243  0.2299  0.5627
16998TIP3    H172485   0.945   3.889   3.754 -0.0112  1.4036 -0.2590
16998TIP3    H272486   0.860   3.839   3.639 -0.2550  2.3038 -0.4807
16999TIP3   OH272487   0.779   1.090  28.644 -0.2133 -0.5290  0.9851
16999TIP3    H172488   0.828   1.012  28.671  0.0205 -0.5167  0.6091
16999TIP3    H272489   0.778   1.086  28.548  0.1675  0.1469  0.9452
17000TIP3   OH272490   2.533   2.195  10.422  0.3371  0.0798 -0.0423
17000TIP3    H172491   2.489   2.118  10.458  0.6911 -1.3050 -2.3775
17000TIP3    H272492   2.462   2.252  10.391  0.0944 -0.8162 -1.1889
17001TIP3   OH272493   3.919   4.161   6.051 -0.3484 -0.8141 -0.2784
17001TIP3    H172494   3.984   4.091   6.059 -0.5852 -1.1293 -1.0685
17001TIP3    H272495   3.846   4.122   6.003 -0.8760 -0.2893  0.0787
17002TIP3   OH272496   0.961   1.421   5.074  0.4413 -0.3967 -0.0423
17002TIP3    H172497   0.975   1.435   5.167 -1.3100  2.1410 -0.0722
17002TIP3    H272498   1.038   1.459   5.032 -0.1277  1.1763  0.2898
17003TIP3   OH272499   3.854   3.152  31.089  0.1746  0.3637 -0.6420
17003TIP3    H172500   3.919   3.103  31.138 -0.0972  0.8707  0.2648
17003TIP3    H272501   3.898   3.179  31.009  0.6240 -0.5115 -0.6898
17004TIP3   OH272502   3.416   3.947  10.335  0.3267 -0.0317 -0.1596
17004TIP3    H172503   3.475   3.945  10.410  0.9815  0.0198 -0.6599
17004TIP3    H272504   3.442   4.026  10.286 -1.5429  1.1591  0.6887
17005TIP3   OH272505   2.060   1.550  29.785 -0.3271  0.5017 -0.2353
17005TIP3    H172506   2.123   1.619  29.762  0.1726  0.3760  0.7255
17005TIP3    H272507   2.043   1.505  29.702  0.6247  0.7226 -0.5598
17006TIP3   OH272508   3.971   0.306   7.424  0.0112  0.1045 -1.0936
17006TIP3    H172509   3.964   0.385   7.370  1.6309  0.5265 -0.7433
17006TIP3    H272510   3.921   0.240   7.376 -0.6139  1.0913 -1.8565
17007TIP3   OH272511   1.357   1.912  38.110  0.1956  0.4152  0.2853
17007TIP3    H172512   1.346   1.846  38.042 -2.2275  1.2841 -0.2655
17007TIP3    H272513   1.450   1.909  38.132  0.6559 -1.2865 -1.6134
17008TIP3   OH272514   4.146   1.011  11.884  0.5166 -0.1048  0.7002
17008TIP3    H172515   4.070   0.965  11.921 -0.0742  0.1312 -0.1678
17008TIP3    H272516   4.213   1.006  11.952 -0.0455 -0.9222  1.2190
17009TIP3   OH272517   3.729   0.794  25.720 -0.5018  0.1053 -0.7404
17009TIP3    H172518   3.790   0.868  25.719 -0.0028 -0.1648  1.9702
17009TIP3    H272519   3.663   0.816  25.655 -0.5274  3.0673  0.1760
17010TIP3   OH272520   4.247   1.844   7.823  0.6328  0.3136  0.4475
17010TIP3    H172521   4.304   1.807   7.754  1.3850 -1.3360  1.8673
17010TIP3    H272522   4.251   1.938   7.810  2.8212  0.1854 -0.2127
17011TIP3   OH272523   2.098   3.536  37.390 -0.4417  0.5692 -0.2321
17011TIP3    H172524   2.168   3.470  37.384 -1.0618 -0.1066 -0.2162
17011TIP3    H272525   2.106   3.587  37.310 -0.0318  0.3959 -0.3063
17012TIP3   OH272526   3.659   3.968  10.538 -0.3411 -0.4986  0.0263
17012TIP3    H172527   3.724   3.979  10.607 -0.6138 -2.6154  0.7105
17012TIP3    H272528   3.610   4.050  10.537  2.0192  0.9933 -0.2285
17013TIP3   OH272529   0.731   1.457  32.164  0.1082 -0.1999  0.8245
17013TIP3    H172530   0.766   1.538  32.129  1.5154 -1.5507 -1.1334
17013TIP3    H272531   0.659   1.434  32.106 -0.4378 -0.2483  1.5058
17014TIP3   OH272532   3.091   1.665  37.308 -0.3467 -0.0880 -0.0031
17014TIP3    H172533   3.130   1.599  37.252 -2.6108 -0.9832 -0.6465
17014TIP3    H272534   3.158   1.732  37.317  0.3625 -0.1906 -3.3089
17015TIP3   OH272535   3.874   0.411  39.735  0.1682 -0.0044 -0.0884
17015TIP3    H172536   3.887   0.405  39.830  0.9576 -0.8255 -0.2364
17015TIP3    H272537   3.780   0.401  39.723  0.2113 -1.3952  0.5206
17016TIP3   OH272538   0.447   0.447  25.889 -0.8396 -0.5425  0.6910
17016TIP3    H172539   0.399   0.529  25.894 -0.7787 -0.3683 -0.9482
17016TIP3    H272540   0.429   0.414  25.801  1.4889 -0.7815  0.2243
17017TIP3   OH272541   3.581   0.780  39.439  0.0802 -0.1546 -0.2059
17017TIP3    H172542   3.597   0.686  39.454 -0.2237 -0.2127 -0.2463
17017TIP3    H272543   3.655   0.823  39.481  0.6808 -0.4626 -0.9181
17018TIP3   OH272544   4.037   0.875  30.869 -0.0840 -0.6350  0.0988
17018TIP3    H172545   4.073   0.822  30.798 -0.2203 -1.2096  0.4467
17018TIP3    H272546   3.995   0.811  30.927  0.4461 -0.2218  0.9475
17019TIP3   OH272547   0.313   3.156  10.309  0.4560  0.1671 -0.3435
17019TIP3    H172548   0.267   3.129  10.229 -1.5188  1.5386  0.2658
17019TIP3    H272549   0.376   3.222  10.279 -1.1613  1.6263 -0.6525
17020TIP3   OH272550   2.075   3.974  26.754 -0.0081  0.1807  0.3050
17020TIP3    H172551   2.045   3.955  26.843 -0.6053 -0.1629  0.0421
17020TIP3    H272552   2.062   4.068  26.744 -0.4562  0.1331  0.3984
17021TIP3   OH272553   0.738   2.838   1.154  0.2044  0.0005  0.4354
17021TIP3    H172554   0.759   2.760   1.206  1.1885  0.1773  0.3218
17021TIP3    H272555   0.645   2.854   1.171  0.1671 -0.7790  1.0168
17022TIP3   OH272556   2.466   1.150  35.189 -0.4034 -0.6697 -0.2774
17022TIP3    H172557   2.424   1.230  35.157  0.5404  0.4572  1.1549
17022TIP3    H272558   2.400   1.108  35.244 -0.2306  0.2430  0.6510
17023TIP3   OH272559   0.316   3.826  33.174 -0.5524  0.0163  0.0123
17023TIP3    H172560   0.367   3.847  33.252 -2.0353 -1.0254  1.3440
17023TIP3    H272561   0.322   3.730  33.167 -2.9779 -0.2651  0.7765
17024TIP3   OH272562   4.164   0.996  26.997  0.2886 -0.1115 -0.2561
17024TIP3    H172563   4.229   1.018  27.064 -0.5056  1.1619  0.1426
17024TIP3    H272564   4.139   1.081  26.960 -0.7510 -0.6183 -0.7616
17025TIP3   OH272565   3.412   1.699  29.239 -0.0062  0.3595  0.0956
17025TIP3    H172566   3.500   1.735  29.246 -0.1223  0.8742 -0.9831
17025TIP3    H272567   3.358   1.772  29.209 -0.5221 -0.3176 -0.6669
17026TIP3   OH272568   1.677   4.000  12.978  0.0654 -0.3490  0.3710
17026TIP3    H172569   1.595   3.951  12.979 -0.5107  0.5903  1.5137
17026TIP3    H272570   1.745   3.933  12.965 -0.9007 -1.0546 -1.4379
17027TIP3   OH272571   2.779   2.179  32.419 -0.2261  0.7187 -0.1011
17027TIP3    H172572   2.875   2.178  32.420 -0.2093  0.4490  1.5207
17027TIP3    H272573   2.755   2.224  32.500 -1.4788  0.7264 -0.4599
17028TIP3   OH272574   4.121   1.537   0.406 -0.2092  0.2097  0.8511
17028TIP3    H172575   4.176   1.519   0.483  0.1018  0.2831  0.6481
17028TIP3    H272576   4.157   1.618   0.370 -0.7112  0.4786  0.9507
17029TIP3   OH272577   4.079   1.712   8.942 -0.1959 -0.0371 -0.6538
17029TIP3    H172578   4.152   1.709   9.005  0.3455  2.1279 -1.0900
17029TIP3    H272579   4.024   1.637   8.966  0.8593 -0.2632  1.3104
17030TIP3   OH272580   0.261   1.161  33.210 -0.3609 -0.0089  0.0176
17030TIP3    H172581   0.214   1.211  33.277  1.2568  0.3728  0.9244
17030TIP3    H272582   0.273   1.224  33.138  0.0254  0.3551  0.3900
17031TIP3   OH272583   0.524   2.571   6.140 -0.4111 -0.6303  0.4060
17031TIP3    H172584   0.611   2.608   6.152 -0.5069 -0.4178  0.4391
17031TIP3    H272585   0.510   2.575   6.045 -0.0839 -1.3473  0.3156
17032TIP3   OH272586   1.662   3.026   9.566 -0.7820  0.0413 -0.0185
17032TIP3    H172587   1.735   3.072   9.608 -0.3416  0.6572 -1.4038
17032TIP3    H272588   1.584   3.065   9.604 -0.4000  0.5138  0.2941
17033TIP3   OH272589   0.559   1.279   0.744  0.2363  0.1087 -0.5782
17033TIP3    H172590   0.545   1.371   0.719 -0.6760 -0.2680 -1.5432
17033TIP3    H272591   0.512   1.270   0.826 -0.6523  0.2314 -1.0612
17034TIP3   OH272592   2.832   4.214  10.462 -0.4634 -0.3032 -0.4830
17034TIP3    H172593   2.770   4.280  10.429 -1.0515 -0.4436  0.3064
17034TIP3    H272594   2.895   4.265  10.513 -1.1794 -0.3910  0.5045
17035TIP3   OH272595   1.537   4.397   3.397  0.1527  0.0397 -0.0993
17035TIP3    H172596   1.554   4.314   3.441  1.3062  0.6246  0.5877
17035TIP3    H272597   1.475   4.442   3.455 -1.7735 -0.9784 -1.2760
17036TIP3   OH272598   3.676   1.139  26.001 -0.1591 -0.1837  0.1803
17036TIP3    H172599   3.589   1.120  26.036 -0.8020  0.8646 -0.7694
17036TIP3    H272600   3.733   1.074  26.041 -1.7042 -2.1031 -0.5774
17037TIP3   OH272601   1.665   0.226  30.922 -0.2909 -0.0619  0.1972
17037TIP3    H172602   1.662   0.148  30.978  0.3487 -0.2684 -0.0479
17037TIP3    H272603   1.682   0.298  30.982  1.7917 -0.4521  0.1485
17038TIP3   OH272604   1.334   2.498  34.899  0.4611  0.4194 -0.8628
17038TIP3    H172605   1.426   2.522  34.886  0.4319  1.1623  0.1294
17038TIP3    H272606   1.312   2.535  34.985 -0.7998  0.3576 -1.1389
17039TIP3   OH272607   2.834   2.673  40.487  0.4026 -0.0231 -0.3017
17039TIP3    H172608   2.837   2.594  40.541 -2.1546 -0.4778 -0.6645
17039TIP3    H272609   2.904   2.728  40.521  0.1355 -1.0747  2.1990
17040TIP3   OH272610   0.765   3.620  27.169 -0.2449  0.2942 -0.4927
17040TIP3    H172611   0.672   3.643  27.160 -0.4904 -0.5983 -0.3677
17040TIP3    H272612   0.771   3.532  27.131  0.3169 -0.1166  0.5189
17041TIP3   OH272613   4.110   2.731   7.383  0.9454 -0.4875  0.0060
17041TIP3    H172614   4.103   2.776   7.299  2.4951  0.2403  0.2224
17041TIP3    H272615   4.162   2.653   7.364 -1.0779 -1.8462 -0.2160
17042TIP3   OH272616   1.029   3.707   5.785  0.2248 -0.5375 -0.0125
17042TIP3    H172617   0.980   3.751   5.716  1.2155  0.1511 -0.2987
17042TIP3    H272618   1.105   3.763   5.800 -0.3558 -0.2216  2.2150
17043TIP3   OH272619   2.891   1.680   0.785  0.3874  0.2494  0.1923
17043TIP3    H172620   2.867   1.714   0.699  0.8372 -2.8416 -1.2737
17043TIP3    H272621   2.977   1.718   0.803  1.1359 -0.5122 -1.6230
17044TIP3   OH272622   3.455   0.170  27.066 -0.3703  0.2797 -0.1714
17044TIP3    H172623   3.360   0.169  27.070 -0.3671  1.2863  0.3590
17044TIP3    H272624   3.483   0.126  27.147 -0.3802  0.0892 -0.2715
17045TIP3   OH272625   3.360   1.651   1.952  0.1393 -0.2083  0.4467
17045TIP3    H172626   3.360   1.641   1.857 -0.2799 -0.2491  0.4458
17045TIP3    H272627   3.359   1.561   1.986 -1.9676 -0.2318  0.4562
17046TIP3   OH272628   1.265   3.378  37.409  0.5428 -0.6830  1.0181
17046TIP3    H172629   1.341   3.437  37.413  0.0580 -0.0618  1.1635
17046TIP3    H272630   1.248   3.368  37.315 -2.0965  3.0336  0.8428
17047TIP3   OH272631   2.706   4.143   1.000  0.2316  0.7747 -0.1366
17047TIP3    H172632   2.736   4.127   0.911 -1.2935 -0.1065 -0.5277
17047TIP3    H272633   2.761   4.088   1.055 -0.0514 -0.1157 -0.7333
17048TIP3   OH272634   3.386   3.324  39.010 -0.1802  0.5182  0.7646
17048TIP3    H172635   3.368   3.410  38.973 -0.6951 -0.1336 -0.5761
17048TIP3    H272636   3.301   3.280  39.012  0.3864 -0.7700 -0.7836
17049TIP3   OH272637   0.520   3.667  29.182 -0.3858  0.0095 -0.2223
17049TIP3    H172638   0.458   3.664  29.254  1.3831 -0.3608  1.3844
17049TIP3    H272639   0.514   3.756  29.148 -2.4384 -0.2933 -0.7809
17050TIP3   OH272640   2.978   2.465  30.879  0.2946  0.4893  0.7237
17050TIP3    H172641   2.933   2.454  30.795  0.9260  0.1544  0.4257
17050TIP3    H272642   3.070   2.477  30.855  0.5269  0.0588  1.3909
17051TIP3   OH272643   3.171   1.929   5.804  0.3539 -0.4797  0.2309
17051TIP3    H172644   3.122   1.980   5.740  0.4630 -1.4192 -0.6201
17051TIP3    H272645   3.126   1.946   5.887  0.6583  1.3381  0.0714
17052TIP3   OH272646   3.958   2.847  21.276  0.0331 -0.0479  0.1439
17052TIP3    H172647   3.929   2.823  21.364  0.5771 -0.0532  0.3244
17052TIP3    H272648   4.005   2.770  21.244 -0.7412 -0.3015 -0.4234
17053TIP3   OH272649   1.886   1.716  40.234  0.2484 -0.2188  0.1566
17053TIP3    H172650   1.966   1.763  40.209 -0.2711  0.7075  0.2025
17053TIP3    H272651   1.880   1.727  40.329 -0.7199  1.0119 -0.0284
17054TIP3   OH272652   1.375   3.792  14.196  0.1339 -0.3903 -0.4453
17054TIP3    H172653   1.423   3.737  14.134 -1.0917 -1.5984 -0.3428
17054TIP3    H272654   1.283   3.781  14.173 -0.1577  2.5122 -1.1557
17055TIP3   OH272655   1.356   0.109   1.300 -0.1343  0.5357  0.7473
17055TIP3    H172656   1.359   0.191   1.351 -0.0174 -0.0369  1.6790
17055TIP3    H272657   1.345   0.138   1.210 -0.4897  1.5762  1.1062
17056TIP3   OH272658   3.645   2.728  11.935  1.0963 -0.3448 -0.1567
17056TIP3    H172659   3.580   2.740  11.866  1.5942 -0.6557 -0.6964
17056TIP3    H272660   3.723   2.774  11.902  1.2694 -0.3105  0.2964
17057TIP3   OH272661   2.352   0.429  38.618  0.3435 -0.0218 -0.2076
17057TIP3    H172662   2.291   0.357  38.633  1.0341 -0.3111  1.5619
17057TIP3    H272663   2.296   0.507  38.610 -0.3353 -0.5487 -0.7020
17058TIP3   OH272664   1.739   3.818  13.621 -0.1130  0.5644 -0.6436
17058TIP3    H172665   1.771   3.744  13.671 -0.3634 -0.4615 -1.9406
17058TIP3    H272666   1.730   3.889  13.685 -0.1378 -0.5925  0.6733
17059TIP3   OH272667   1.981   4.181   4.460 -0.0119 -0.3291 -0.1126
17059TIP3    H172668   1.978   4.152   4.369 -3.8625  1.5077 -0.7714
17059TIP3    H272669   2.034   4.261   4.458  0.8911 -0.9277 -0.4937
17060TIP3   OH272670   4.171   3.966   4.873  0.6669 -0.1139 -0.3431
17060TIP3    H172671   4.126   4.012   4.943 -0.7562 -0.8410 -0.7416
17060TIP3    H272672   4.178   3.875   4.904  0.2479 -0.3862 -1.0299
17061TIP3   OH272673   2.807   1.998   6.060 -0.1626 -0.0936 -0.4477
17061TIP3    H172674   2.865   1.924   6.080  0.9197 -0.0176 -2.9718
17061TIP3    H272675   2.842   2.071   6.112  0.0470 -0.8071  0.4441
17062TIP3   OH272676   2.955   1.689   2.888  0.0374 -0.2738 -1.0465
17062TIP3    H172677   2.969   1.783   2.872 -1.9177  0.4931  1.1947
17062TIP3    H272678   2.918   1.657   2.806  0.0921  1.0814 -1.6400
17063TIP3   OH272679   0.451   3.008  32.209 -0.5359 -0.2477  0.0051
17063TIP3    H172680   0.466   3.087  32.261  1.0231  1.6030 -2.9446
17063TIP3    H272681   0.376   3.031  32.153  0.8396 -0.2042 -1.9003
17064TIP3   OH272682   4.053   3.028  29.530 -0.3086  0.2557 -0.2671
17064TIP3    H172683   4.056   2.960  29.598 -1.4695  0.2829 -0.1745
17064TIP3    H272684   4.059   3.110  29.577 -1.1131  0.2746 -0.1860
17065TIP3   OH272685   0.231   2.229   9.543 -0.6114  0.0615  0.5608
17065TIP3    H172686   0.149   2.182   9.527 -0.4551 -0.1818  0.4656
17065TIP3    H272687   0.237   2.291   9.470  0.0207 -0.9411 -0.2566
17066TIP3   OH272688   3.503   3.269  38.727 -0.6017  0.5749 -0.0410
17066TIP3    H172689   3.465   3.274  38.639 -2.2637  0.6354  0.6526
17066TIP3    H272690   3.459   3.339  38.776 -0.4321 -0.1097  1.1129
17067TIP3   OH272691   2.152   0.361  34.723  0.1855  0.8010  0.6830
17067TIP3    H172692   2.078   0.333  34.668  0.2634 -0.1877  1.0442
17067TIP3    H272693   2.151   0.299  34.796  1.6454  0.4958  0.4653
17068TIP3   OH272694   3.137   3.814  33.309 -0.0629  0.1131 -0.2328
17068TIP3    H172695   3.113   3.904  33.328 -1.4755 -0.2572 -0.1342
17068TIP3    H272696   3.105   3.764  33.384  1.0213 -0.4399 -0.1144
17069TIP3   OH272697   2.239   0.896   5.404  0.2633  0.1920 -0.2281
17069TIP3    H172698   2.309   0.860   5.349  0.5768  0.3666  0.0521
17069TIP3    H272699   2.282   0.916   5.487 -0.6156 -1.9760  0.8317
17070TIP3   OH272700   3.970   0.247  34.377 -0.2993  0.0324 -0.1172
17070TIP3    H172701   3.922   0.306  34.434  0.8717 -0.0887  1.0528
17070TIP3    H272702   3.975   0.165  34.426 -0.7072 -0.6072 -1.1208
17071TIP3   OH272703   3.411   2.637  27.051 -0.6034  0.3514  0.1979
17071TIP3    H172704   3.328   2.664  27.091  0.4689  1.8971  1.5238
17071TIP3    H272705   3.469   2.619  27.125  0.9300  1.5619 -0.6410
17072TIP3   OH272706   4.097   0.111   3.680  0.3710  0.6738 -0.0152
17072TIP3    H172707   4.014   0.133   3.722  0.6980  0.4574  0.7567
17072TIP3    H272708   4.075   0.037   3.623  0.0170  0.6753  0.1142
17073TIP3   OH272709   0.999   1.812  40.591 -0.0405 -0.6311  0.7706
17073TIP3    H172710   1.059   1.857  40.531 -1.1431 -1.6601 -1.2252
17073TIP3    H272711   1.028   1.721  40.590 -2.4888 -1.5055 -1.5614
17074TIP3   OH272712   2.571   2.756   7.389  0.4000  0.4686  0.3541
17074TIP3    H172713   2.627   2.763   7.466  0.6647  1.7103  0.0773
17074TIP3    H272714   2.513   2.832   7.395 -1.1318 -0.6849  0.5251
17075TIP3   OH272715   1.501   2.605  16.428  0.0450 -0.0840  0.2563
17075TIP3    H172716   1.505   2.544  16.354  0.3661 -0.8042  0.8598
17075TIP3    H272717   1.565   2.673  16.406 -0.4742  0.1677 -0.5222
17076TIP3   OH272718   1.393   0.647  34.264  0.3139  0.0054  0.4109
17076TIP3    H172719   1.420   0.739  34.271 -2.1704  1.0142 -1.6595
17076TIP3    H272720   1.312   0.642  34.315 -0.1870 -0.7369 -0.4331
17077TIP3   OH272721   2.540   0.779   7.663  0.2887  0.6753  0.1742
17077TIP3    H172722   2.576   0.847   7.721 -1.8735  0.9811  1.2702
17077TIP3    H272723   2.505   0.828   7.588 -0.2451  0.6595  0.4116
17078TIP3   OH272724   2.935   3.150  29.566 -0.0185 -0.6294  0.4885
17078TIP3    H172725   3.020   3.188  29.587  0.0970 -0.9309  0.5803
17078TIP3    H272726   2.872   3.212  29.601  0.1484  0.0425 -0.3636
17079TIP3   OH272727   2.433   1.088   4.537 -0.6493  0.1450  0.3347
17079TIP3    H172728   2.437   1.053   4.448 -2.3451  0.6390  0.0436
17079TIP3    H272729   2.525   1.103   4.560 -0.0976 -1.2216 -0.8174
17080TIP3   OH272730   3.267   0.801  35.991  0.5335  0.1768  0.1546
17080TIP3    H172731   3.179   0.801  35.953  0.1317  0.1891  1.0726
17080TIP3    H272732   3.320   0.754  35.927 -0.1513  0.1247 -0.3906
17081TIP3   OH272733   1.107   0.082  13.117  0.1569  0.2474  0.2206
17081TIP3    H172734   1.026   0.112  13.159 -1.2821 -1.9771 -0.8000
17081TIP3    H272735   1.103   0.117  13.028  1.0177  1.2350  0.5457
17082TIP3   OH272736   1.529   2.508  35.204  0.6082 -0.2856  0.2380
17082TIP3    H172737   1.592   2.457  35.152  1.2552  0.5067  0.2322
17082TIP3    H272738   1.541   2.598  35.175 -1.6395 -0.2861 -0.9112
17083TIP3   OH272739   3.553   1.692   1.436 -0.0742 -0.7297 -0.4873
17083TIP3    H172740   3.585   1.761   1.377 -0.6795 -0.8522 -0.9683
17083TIP3    H272741   3.493   1.641   1.382 -1.1473 -0.4537  0.4268
17084TIP3   OH272742   2.051   0.271  27.499  0.5688 -0.4057 -0.3831
17084TIP3    H172743   1.958   0.246  27.501  0.6144 -0.5852 -0.5308
17084TIP3    H272744   2.083   0.248  27.587  0.4168 -0.1235 -0.2536
17085TIP3   OH272745   3.405   0.641   9.376  0.3890 -0.5457 -0.6859
17085TIP3    H172746   3.356   0.573   9.330  0.5476 -1.5094  0.5077
17085TIP3    H272747   3.436   0.700   9.307 -0.6854 -1.0662 -1.6414
17086TIP3   OH272748   1.187   1.105  38.724 -0.1971 -0.0767  0.2470
17086TIP3    H172749   1.262   1.164  38.723 -0.3608  0.2879  2.9832
17086TIP3    H272750   1.141   1.123  38.642  2.2380  0.2213 -1.1566
17087TIP3   OH272751   2.698   1.014  40.832  0.4134 -0.1321 -0.4520
17087TIP3    H172752   2.787   1.044  40.854  0.8040 -1.5842  0.0065
17087TIP3    H272753   2.710   0.957  40.756  0.0305 -1.2234  0.2835
17088TIP3   OH272754   2.992   1.717   9.925  0.0082 -0.0776  0.1186
17088TIP3    H172755   3.085   1.696   9.917  0.0592  0.9383 -3.3425
17088TIP3    H272756   2.989   1.813   9.920 -1.1804  0.0003  1.6563
17089TIP3   OH272757   0.808   1.930  15.491  0.1900 -0.0649  0.1507
17089TIP3    H172758   0.854   1.890  15.565  4.5177  0.4086 -1.9957
17089TIP3    H272759   0.818   1.867  15.420 -2.6097  0.1246 -0.5166
17090TIP3   OH272760   2.810   1.552  37.694 -0.8569  0.0309  0.5782
17090TIP3    H172761   2.738   1.546  37.631  0.1878  1.4488 -0.8178
17090TIP3    H272762   2.888   1.529  37.644 -0.2492 -1.1742  1.9941
17091TIP3   OH272763   2.222   0.269  41.289 -0.0753  0.0076 -0.0011
17091TIP3    H172764   2.134   0.304  41.304 -0.6733 -1.4068 -0.0394
17091TIP3    H272765   2.240   0.216  41.366  0.7567  0.2797  0.0015
17092TIP3   OH272766   1.826   3.760   6.132  0.1216  0.0871 -0.9528
17092TIP3    H172767   1.802   3.731   6.044 -0.3021  0.1828 -0.8715
17092TIP3    H272768   1.868   3.683   6.172 -0.4697 -0.2345 -0.9399
17093TIP3   OH272769   3.225   3.044  33.110 -0.2837 -0.6322  0.1296
17093TIP3    H172770   3.133   3.039  33.138 -0.2919 -2.0013 -0.0303
17093TIP3    H272771   3.244   2.956  33.076  0.3579  0.3171 -2.1744
17094TIP3   OH272772   3.263   3.390  11.679 -0.6249  0.5007 -0.3027
17094TIP3    H172773   3.249   3.381  11.773 -1.2891  6.0138  0.4553
17094TIP3    H272774   3.175   3.402  11.642 -0.1830  1.7565 -1.0163
17095TIP3   OH272775   1.359   2.479  13.016  0.5384 -0.1049  0.2816
17095TIP3    H172776   1.357   2.406  12.953  0.6168 -0.2760  0.4776
17095TIP3    H272777   1.331   2.555  12.965 -0.9644 -0.5318  0.4249
17096TIP3   OH272778   2.198   1.046   1.434 -0.1410  0.3335  0.1810
17096TIP3    H172779   2.143   1.120   1.461  0.6068  0.2162  2.2001
17096TIP3    H272780   2.275   1.088   1.395 -0.2113  0.5904  0.3130
17097TIP3   OH272781   2.758   2.704  39.651  0.4717 -0.2418 -0.2530
17097TIP3    H172782   2.786   2.727  39.739 -1.8057 -0.3618  0.5718
17097TIP3    H272783   2.819   2.751  39.593 -0.2744  2.9803  1.3482
17098TIP3   OH272784   2.105   0.599   8.141 -0.0858 -0.0067 -0.0176
17098TIP3    H172785   2.014   0.571   8.142  0.2056 -1.0583 -1.2016
17098TIP3    H272786   2.119   0.634   8.053  0.6854  0.0186  0.1058
17099TIP3   OH272787   3.014   1.081   1.509 -0.6253 -0.2627 -0.2846
17099TIP3    H172788   2.952   1.046   1.445 -1.5427  0.2718  0.2800
17099TIP3    H272789   2.959   1.131   1.570  0.0659 -1.5474  1.4788
17100TIP3   OH272790   1.737   2.883   9.009 -0.2376 -0.1686 -0.3252
17100TIP3    H172791   1.652   2.843   8.994 -0.4433  0.1998 -0.1707
17100TIP3    H272792   1.744   2.887   9.105  1.0073 -2.4042 -0.2608
17101TIP3   OH272793   0.455   0.200  40.589 -0.0039 -0.4277 -0.3925
17101TIP3    H172794   0.460   0.200  40.494  2.7222  1.5765 -0.3417
17101TIP3    H272795   0.476   0.110  40.614  0.6451 -0.6349 -1.6359
17102TIP3   OH272796   0.580   3.914  39.374  0.6933 -0.1443  0.2402
17102TIP3    H172797   0.634   3.987  39.345  0.9034 -0.5158 -0.3047
17102TIP3    H272798   0.598   3.908  39.468  1.2073  0.0593  0.1583
17103TIP3   OH272799   2.713   2.317  32.703  0.1154 -0.4424 -0.5623
17103TIP3    H172800   2.618   2.326  32.697  0.1520  0.3085 -0.0157
17103TIP3    H272801   2.738   2.370  32.778  1.0249 -0.2149 -1.0131
17104TIP3   OH272802   1.060   2.912   3.645 -0.0634  0.4982 -0.3790
17104TIP3    H172803   1.012   2.964   3.710 -0.5309 -0.0318 -0.2977
17104TIP3    H272804   1.140   2.962   3.630  0.5246  0.1562  1.3287
17105TIP3   OH272805   2.770   2.998  29.391  0.3982  0.4741  0.1422
17105TIP3    H172806   2.683   2.971  29.420  0.6259  0.6784  1.0298
17105TIP3    H272807   2.805   3.049  29.463  0.9151  1.1391 -0.5625
17106TIP3   OH272808   0.213   1.446  29.506 -0.3277  0.1019 -0.6910
17106TIP3    H172809   0.243   1.391  29.578  0.8899  0.7989 -0.6446
17106TIP3    H272810   0.235   1.535  29.534  2.6371  0.2385 -2.9864
17107TIP3   OH272811   2.552   2.348   5.112 -0.1326 -0.1815  0.4794
17107TIP3    H172812   2.571   2.363   5.205 -1.9780  2.3520  0.5358
17107TIP3    H272813   2.636   2.357   5.068  0.1822  2.6388  1.5083
17108TIP3   OH272814   2.773   3.364   2.213 -0.2821  0.0411 -0.0051
17108TIP3    H172815   2.849   3.343   2.268  0.8617  0.2489 -1.4557
17108TIP3    H272816   2.724   3.429   2.263 -0.9749 -1.9874  2.1436
17109TIP3   OH272817   3.865   1.742   7.324 -0.1009  0.1859 -0.4312
17109TIP3    H172818   3.881   1.819   7.379 -1.0306  0.4513 -0.5079
17109TIP3    H272819   3.860   1.669   7.386  0.2708  0.2685 -0.3030
17110TIP3   OH272820   1.274   0.349  31.060  0.1695  0.0411 -0.0792
17110TIP3    H172821   1.340   0.372  30.994 -0.6850 -0.7484 -1.2516
17110TIP3    H272822   1.270   0.254  31.057 -0.4782  0.0469  0.5310
17111TIP3   OH272823   4.361   1.459   3.802 -0.0922  0.4575 -0.3151
17111TIP3    H172824   4.297   1.509   3.853 -1.8997 -0.9604 -1.0824
17111TIP3    H272825   4.310   1.389   3.761  1.6833  0.1738 -2.2138
17112TIP3   OH272826   2.339   2.959  10.689  0.4318 -0.2543  0.6859
17112TIP3    H172827   2.326   3.039  10.740  0.4908 -0.2454  0.6880
17112TIP3    H272828   2.373   2.990  10.605  0.2006 -0.2578  0.5893
17113TIP3   OH272829   1.217   2.007   9.309  0.5575  0.4493 -0.0041
17113TIP3    H172830   1.148   2.073   9.299 -0.0835 -0.4384 -1.8129
17113TIP3    H272831   1.212   1.982   9.402 -1.6623  0.3310 -0.0952
17114TIP3   OH272832   3.759   0.722  25.975 -0.0755 -0.1545  0.1967
17114TIP3    H172833   3.727   0.740  25.887 -0.0700  1.5631  0.5110
17114TIP3    H272834   3.686   0.679  26.020 -0.4014 -0.1931 -0.3692
17115TIP3   OH272835   4.055   0.823  38.826 -0.0773 -0.6423 -0.0453
17115TIP3    H172836   4.010   0.899  38.790  0.3261 -1.1351 -1.6670
17115TIP3    H272837   4.037   0.826  38.920 -2.4429 -0.1402 -0.4702
17116TIP3   OH272838   1.755   4.272  30.608  0.1459 -0.1471 -0.4085
17116TIP3    H172839   1.813   4.250  30.535  0.3671  0.3394 -0.3858
17116TIP3    H272840   1.735   4.188  30.650  1.8630 -0.2276  0.3460
17117TIP3   OH272841   3.337   1.562  35.546 -0.1471 -0.2421 -0.1654
17117TIP3    H172842   3.259   1.540  35.496  0.3564 -0.6107 -0.8090
17117TIP3    H272843   3.396   1.488  35.533 -0.1779 -0.5721  1.3660
17118TIP3   OH272844   2.258   2.935   5.957  0.4685  0.3011 -0.3169
17118TIP3    H172845   2.267   2.949   5.862 -1.2132  2.6741 -0.2152
17118TIP3    H272846   2.195   3.001   5.985  0.3005 -0.8751  2.3619
17119TIP3   OH272847   3.668   1.681  33.266 -0.6086 -0.2275  1.0005
17119TIP3    H172848   3.694   1.611  33.326  1.5095 -1.3049 -1.0089
17119TIP3    H272849   3.748   1.733  33.254 -1.6194  1.3621  0.8769
17120TIP3   OH272850   0.326   1.134   7.153  0.1535 -0.9268 -0.1392
17120TIP3    H172851   0.334   1.057   7.209  0.6705 -0.2921  0.6942
17120TIP3    H272852   0.414   1.173   7.154 -0.1638 -0.1914 -0.3454
17121TIP3   OH272853   2.344   0.082  29.811  0.0855 -0.2688  0.1331
17121TIP3    H172854   2.249   0.067  29.812 -0.4210  2.2068 -1.4559
17121TIP3    H272855   2.373   0.050  29.725  0.6311 -0.6205  0.4409
17122TIP3   OH272856   2.216   4.024  39.935 -0.3251 -0.3736 -0.2244
17122TIP3    H172857   2.241   4.116  39.940  1.9105 -0.9849  1.6028
17122TIP3    H272858   2.140   4.016  39.994 -1.4983  0.5226 -1.5584
17123TIP3   OH272859   1.892   1.426  10.939 -0.4418  0.1109 -0.1990
17123TIP3    H172860   1.860   1.380  11.017  1.2287 -0.0401  0.4347
17123TIP3    H272861   1.816   1.428  10.880 -0.8306 -2.7925  0.0404
17124TIP3   OH272862   2.222   2.310  35.948 -0.1727 -0.2669 -0.3208
17124TIP3    H172863   2.263   2.396  35.938  0.3646 -0.5581 -0.6888
17124TIP3    H272864   2.269   2.269  36.020 -0.4956 -0.2159 -0.0819
17125TIP3   OH272865   2.586   1.271  31.524 -0.2442  0.2010 -0.0309
17125TIP3    H172866   2.581   1.175  31.526 -0.7168  0.2342  0.9206
17125TIP3    H272867   2.624   1.295  31.608 -0.7781  0.8772  0.0257
17126TIP3   OH272868   0.663   4.085  29.577  0.3747  0.4446  0.1385
17126TIP3    H172869   0.702   4.086  29.489 -0.3338  2.7567 -0.2018
17126TIP3    H272870   0.735   4.061  29.635  0.7868 -1.4427 -1.0492
17127TIP3   OH272871   1.196   0.784  32.344 -0.1482 -0.1268  0.2596
17127TIP3    H172872   1.224   0.709  32.396  3.7471  0.5951 -0.5342
17127TIP3    H272873   1.236   0.770  32.258 -1.1746  1.8084 -0.6056
17128TIP3   OH272874   3.344   0.759   3.740  0.1219 -0.2614  0.3852
17128TIP3    H172875   3.312   0.682   3.786 -2.0800  0.5961  0.3974
17128TIP3    H272876   3.298   0.758   3.656 -2.4121  2.5742  1.5441
17129TIP3   OH272877   0.579   0.324  28.615 -0.5861 -0.1211  0.0777
17129TIP3    H172878   0.491   0.363  28.619 -0.1579  0.8086  1.2114
17129TIP3    H272879   0.571   0.243  28.667 -0.6633  0.2022  0.5764
17130TIP3   OH272880   0.137   3.212  22.352 -0.1395 -0.4803  0.1612
17130TIP3    H172881   0.228   3.187  22.340 -0.6128 -2.0076 -0.5287
17130TIP3    H272882   0.094   3.189  22.269 -1.4490 -1.2826  1.0162
17131TIP3   OH272883   4.052   2.753   9.405 -0.5374 -0.2456  0.0874
17131TIP3    H172884   4.140   2.719   9.390 -0.6734 -0.7569  0.4194
17131TIP3    H272885   4.037   2.741   9.499 -0.6158  0.6818  0.2064
17132TIP3   OH272886   0.308   3.631  11.013  0.2804  0.3716  0.9028
17132TIP3    H172887   0.231   3.574  11.008 -0.4094  1.3446 -0.1244
17132TIP3    H272888   0.372   3.590  10.955  0.5038 -0.3878  1.6797
17133TIP3   OH272889   3.076   1.996  31.920 -0.0983  0.2465 -0.6103
17133TIP3    H172890   2.997   1.968  31.873 -1.5402  0.3021  1.5981
17133TIP3    H272891   3.091   1.927  31.985 -0.7836  2.0832  1.6472
17134TIP3   OH272892   3.988   0.521  32.927 -0.3118 -0.5333  0.6462
17134TIP3    H172893   4.041   0.447  32.897  0.9947  0.1592  1.1266
17134TIP3    H272894   4.017   0.594  32.871 -1.1131 -0.2406  0.6034
17135TIP3   OH272895   1.985   2.834  31.106  0.0152 -0.0617  0.1941
17135TIP3    H172896   2.011   2.747  31.135  0.7502  0.1105  0.0599
17135TIP3    H272897   2.062   2.870  31.063 -0.4159  0.4926 -0.1375
17136TIP3   OH272898   1.727   0.965   7.324  0.5988  0.4976 -0.3762
17136TIP3    H172899   1.649   0.968   7.269  0.7235  1.0059 -0.5287
17136TIP3    H272900   1.742   0.872   7.339  0.8074  0.3306 -1.5517
17137TIP3   OH272901   3.571   2.341   2.510  0.2457  0.4825 -0.1473
17137TIP3    H172902   3.662   2.342   2.480  0.3599 -0.8897  0.0785
17137TIP3    H272903   3.520   2.359   2.432  0.6657 -0.1827 -0.5918
17138TIP3   OH272904   2.114   3.158  13.247  0.0060 -0.3521  0.5502
17138TIP3    H172905   2.028   3.196  13.227  0.2877  0.9582  1.7274
17138TIP3    H272906   2.174   3.233  13.248  0.8343 -1.0064  1.5733
17139TIP3   OH272907   2.592   4.198  37.075  0.2188 -0.1036  0.1997
17139TIP3    H172908   2.523   4.133  37.086  1.4086 -1.1361  2.0516
17139TIP3    H272909   2.603   4.206  36.980 -1.1198 -1.3202 -0.0898
17140TIP3   OH272910   3.366   0.043   6.445  0.0807  0.2168  0.2834
17140TIP3    H172911   3.352   0.012   6.535  0.3767  0.8350  0.5573
17140TIP3    H272912   3.397   0.134   6.457  3.5056 -0.7235 -0.2530
17141TIP3   OH272913   2.902   0.408  37.553 -0.3450 -0.9265 -0.2305
17141TIP3    H172914   2.989   0.372  37.572  0.2877 -0.4775 -2.0670
17141TIP3    H272915   2.853   0.333  37.519  0.2883 -0.5718 -1.9997
17142TIP3   OH272916   1.153   2.780  30.490 -0.3928 -0.2378 -0.5216
17142TIP3    H172917   1.098   2.858  30.489 -1.0487 -0.6877 -0.3703
17142TIP3    H272918   1.223   2.799  30.427 -0.9489  0.1865 -1.0256
17143TIP3   OH272919   2.488   0.032  12.908  0.0101  0.0777 -0.4335
17143TIP3    H172920   2.451   0.114  12.874  1.1848  1.8958  2.3259
17143TIP3    H272921   2.583   0.047  12.907  0.1550  0.1083  2.9554
17144TIP3   OH272922   2.555   3.289  11.316 -0.1681 -0.6686 -0.3784
17144TIP3    H172923   2.519   3.292  11.404 -0.4709  0.2441 -0.5268
17144TIP3    H272924   2.580   3.379  11.297 -0.1886 -0.8407 -1.2603
17145TIP3   OH272925   2.500   2.682  33.824  0.0440 -0.2405  0.0798
17145TIP3    H172926   2.527   2.712  33.911 -3.4178 -2.3727  2.0831
17145TIP3    H272927   2.558   2.609  33.805 -0.9780 -1.6497  2.0499
17146TIP3   OH272928   2.050   2.443  17.182  0.1596  0.3351 -0.0217
17146TIP3    H172929   2.063   2.348  17.186 -0.4887  0.2687  0.7018
17146TIP3    H272930   1.984   2.461  17.249  2.6925  1.7394  2.2760
17147TIP3   OH272931   2.692   1.748  35.088  0.1798 -0.4880 -0.0495
17147TIP3    H172932   2.690   1.767  35.181 -1.3362  0.0339 -0.1557
17147TIP3    H272933   2.760   1.682  35.078  0.2905 -0.6286  1.4270
17148TIP3   OH272934   3.422   3.722  11.039  0.1007  1.0764 -0.0516
17148TIP3    H172935   3.329   3.703  11.049  0.1813  1.6237  2.3063
17148TIP3    H272936   3.445   3.771  11.118  2.7549 -0.4363  0.2366
17149TIP3   OH272937   3.365   3.522   0.163  0.1694 -0.0274  0.6608
17149TIP3    H172938   3.385   3.601   0.112  0.3358  2.3791  4.1315
17149TIP3    H272939   3.290   3.483   0.118  0.6256  1.5565 -1.6718
17150TIP3   OH272940   2.253   4.002  18.715  0.5837  0.5251  0.2111
17150TIP3    H172941   2.245   4.096  18.726  1.1889  0.4719  1.1483
17150TIP3    H272942   2.320   3.975  18.777  0.1223 -0.5894  0.2575
17151TIP3   OH272943   3.521   2.355   0.389  0.6436  0.2358 -0.0432
17151TIP3    H172944   3.576   2.352   0.467 -1.3474 -1.1830  1.3898
17151TIP3    H272945   3.501   2.264   0.369  2.3883  0.4335 -3.2547
17152TIP3   OH272946   0.419   3.500  12.426 -0.0299 -0.5798  0.4863
17152TIP3    H172947   0.449   3.589  12.442 -0.6053  0.0642 -1.7122
17152TIP3    H272948   0.405   3.496  12.331 -1.4079 -2.5642  0.7156
17153TIP3   OH272949   2.121   3.130  10.566  0.4589  0.5097 -0.1395
17153TIP3    H172950   2.092   3.175  10.645  2.0341  0.4752  0.5067
17153TIP3    H272951   2.060   3.058  10.556 -0.9730  1.6668 -0.1156
17154TIP3   OH272952   2.004   3.156   1.520  0.1738 -0.3413  0.6652
17154TIP3    H172953   1.932   3.101   1.552  1.2716 -2.8015 -0.8246
17154TIP3    H272954   1.988   3.164   1.426  0.2098  1.7724  0.7743
17155TIP3   OH272955   0.998   3.519  27.981  0.2805 -0.4291 -0.3868
17155TIP3    H172956   1.049   3.485  27.908 -0.0859 -1.9150  0.0022
17155TIP3    H272957   1.013   3.456  28.052 -0.4868  0.2022  0.3633
17156TIP3   OH272958   1.925   2.524  34.396 -0.2783  0.0472  0.0446
17156TIP3    H172959   1.990   2.584  34.358 -0.9605  0.8661  0.1286
17156TIP3    H272960   1.962   2.500  34.481  2.1820 -3.3058 -1.7627
17157TIP3   OH272961   1.309   0.059  27.647 -0.6703 -0.3429  0.1484
17157TIP3    H172962   1.350   0.004  27.714  1.1833  0.0790 -0.5957
17157TIP3    H272963   1.220   0.073  27.680 -0.6334 -2.2510  1.2557
17158TIP3   OH272964   3.125   1.009  36.582  0.6001 -0.0658  0.2148
17158TIP3    H172965   3.106   1.062  36.659 -0.1357  0.4163 -0.2804
17158TIP3    H272966   3.220   0.993  36.586  0.4849 -0.5391  1.5055
17159TIP3   OH272967   1.449   1.560  32.452 -0.5434 -0.1676  0.3487
17159TIP3    H172968   1.502   1.504  32.395 -0.3047  0.0676  0.3401
17159TIP3    H272969   1.360   1.525  32.443 -0.2291 -1.2095  1.1486
17160TIP3   OH272970   2.723   0.424   6.639  0.8938  0.1115 -0.7681
17160TIP3    H172971   2.775   0.499   6.610 -0.0113  1.4143  0.8022
17160TIP3    H272972   2.787   0.355   6.654  1.7978  0.6743 -1.8837
17161TIP3   OH272973   3.495   0.275  33.125  0.0871 -0.0402 -0.2529
17161TIP3    H172974   3.532   0.272  33.213  2.1470  0.9281 -0.9984
17161TIP3    H272975   3.401   0.283  33.138  0.4393  1.7291  1.9239
17162TIP3   OH272976   3.606   3.487   3.197 -0.1709 -0.1792  0.6003
17162TIP3    H172977   3.685   3.458   3.152 -0.1110 -0.5623  0.9400
17162TIP3    H272978   3.537   3.482   3.130 -0.1618 -1.1265  0.6408
17163TIP3   OH272979   2.099   0.070  32.034  0.0478  0.9188 -0.1575
17163TIP3    H172980   2.170   0.133  32.033  0.1162  0.8379 -0.8043
17163TIP3    H272981   2.045   0.096  32.109  1.0235  0.6700  0.6555
17164TIP3   OH272982   2.165   3.837  39.722 -0.5155 -0.5304 -0.1527
17164TIP3    H172983   2.211   3.762  39.759  0.8085 -0.1052 -0.8631
17164TIP3    H272984   2.190   3.910  39.778 -0.3266 -0.3001 -0.5299
17165TIP3   OH272985   3.735   1.669  36.254 -0.1348 -0.3689 -0.4013
17165TIP3    H172986   3.672   1.736  36.227 -0.1826  0.3007  1.2640
17165TIP3    H272987   3.818   1.699  36.216  0.0299  1.1765  1.0707
17166TIP3   OH272988   1.871   2.111  13.359  0.0798 -0.7400  0.5801
17166TIP3    H172989   1.933   2.180  13.338  0.3647 -1.0068  0.5444
17166TIP3    H272990   1.810   2.109  13.285  0.3208 -0.8126  0.3836
17167TIP3   OH272991   0.791   0.668   5.455 -0.1228 -0.1306 -0.6691
17167TIP3    H172992   0.862   0.636   5.400  1.0557  1.1962 -0.0068
17167TIP3    H272993   0.835   0.696   5.536 -1.3506  0.9903 -0.3514
17168TIP3   OH272994   2.347   2.907   7.387 -0.6346  0.4829 -0.7263
17168TIP3    H172995   2.262   2.901   7.432  0.1472 -2.6924  0.6113
17168TIP3    H272996   2.329   2.959   7.309 -3.4359  1.2298  0.2833
17169TIP3   OH272997   2.841   3.845  38.650  0.3496 -0.1314  0.2375
17169TIP3    H172998   2.796   3.880  38.573  2.1259 -0.2808 -0.9193
17169TIP3    H272999   2.907   3.910  38.672  0.9635 -0.8593  0.5982
17170TIP3   OH273000   3.852   2.433  22.624  0.0933 -0.6434 -0.3354
17170TIP3    H173001   3.869   2.527  22.631 -2.1080  0.0040 -2.3034
17170TIP3    H273002   3.834   2.405  22.714  3.1915  0.1951  0.6625
17171TIP3   OH273003   0.271   0.909  23.760 -0.6798  0.6211  0.9223
17171TIP3    H173004   0.257   0.816  23.780  1.8777  0.2292  1.2669
17171TIP3    H273005   0.236   0.920  23.671 -0.2261 -0.9098  0.5218
17172TIP3   OH273006   2.235   3.839  41.193  0.4160  0.3144 -0.3095
17172TIP3    H173007   2.170   3.819  41.126 -1.7272  1.7557  1.2028
17172TIP3    H273008   2.245   3.934  41.190  0.5630  0.3702  1.1246
17173TIP3   OH273009   0.127   0.071  12.207  0.7131  0.0607 -0.1319
17173TIP3    H173010   0.071  -0.007  12.212 -1.5065  1.4400 -1.7121
17173TIP3    H273011   0.143   0.083  12.114  1.1603  1.3735  0.0943
17174TIP3   OH273012   3.823   4.207  40.021 -0.5395 -0.4192  0.1721
17174TIP3    H173013   3.804   4.252  39.939  2.0590 -0.4213 -0.5063
17174TIP3    H273014   3.852   4.275  40.081  0.3240 -0.7548  0.1539
17175TIP3   OH273015   4.006   1.752  22.261 -0.1193  0.2605 -0.0259
17175TIP3    H173016   4.020   1.832  22.210  2.2961  0.9313  1.5443
17175TIP3    H273017   3.964   1.782  22.341  1.0555  0.0293  0.6949
17176TIP3   OH273018   0.772   1.698  41.225 -0.2423  0.0408  0.0534
17176TIP3    H173019   0.679   1.675  41.224 -0.0985 -1.0737  2.7047
17176TIP3    H273020   0.783   1.747  41.306  1.7596 -1.3022  0.6637
17177TIP3   OH273021   2.921   3.917   9.608 -0.1800 -0.2993 -0.1072
17177TIP3    H173022   2.857   3.893   9.675  0.4319  0.2781  0.7121
17177TIP3    H273023   3.000   3.868   9.632 -0.6725 -2.0890 -1.8972
17178TIP3   OH273024   4.118   2.280  33.143  0.5281  0.6462  0.1484
17178TIP3    H173025   4.112   2.239  33.229  1.0309 -0.4727 -0.3206
17178TIP3    H273026   4.028   2.281  33.111  0.3381  1.0759  0.6874
17179TIP3   OH273027   1.380   4.203  39.331  0.3510 -0.0217  0.3718
17179TIP3    H173028   1.421   4.200  39.245  1.2918 -0.4544  0.8125
17179TIP3    H273029   1.438   4.150  39.387 -1.0934 -1.0978  0.9151
17180TIP3   OH273030   1.381   1.495   4.986 -0.1514 -0.1779 -0.1555
17180TIP3    H173031   1.435   1.484   4.907 -0.4028 -0.7029 -0.2588
17180TIP3    H273032   1.291   1.499   4.953 -0.2669 -0.5184  0.1079
17181TIP3   OH273033   4.211   0.192  34.030  0.8876  0.3074 -0.3244
17181TIP3    H173034   4.145   0.216  33.966  0.4523 -2.1619 -0.9254
17181TIP3    H273035   4.195   0.249  34.105 -1.5021  0.2093 -0.7047
17182TIP3   OH273036   2.547   1.988  33.490 -0.1370  0.3053 -0.1522
17182TIP3    H173037   2.574   2.024  33.574 -1.1491  0.6067  0.0633
17182TIP3    H273038   2.479   2.048  33.459  0.6353  0.5349 -1.4748
17183TIP3   OH273039   3.253   1.906  29.167  0.1052  0.3132 -0.4187
17183TIP3    H173040   3.230   1.999  29.170 -0.8089  0.0820  0.2913
17183TIP3    H273041   3.172   1.862  29.142  1.0486 -0.1500 -2.9800
17184TIP3   OH273042   3.882   3.573  28.024 -0.1163  0.2670  0.3500
17184TIP3    H173043   3.817   3.640  28.045 -0.3658  0.6498 -1.5101
17184TIP3    H273044   3.965   3.621  28.017  0.0813  0.0403  1.0628
17185TIP3   OH273045   2.793   0.467  37.111 -0.1918 -0.7039 -0.2947
17185TIP3    H173046   2.723   0.403  37.103 -1.5973  0.8244 -0.8176
17185TIP3    H273047   2.865   0.419  37.151 -1.5651 -2.3207  0.3654
17186TIP3   OH273048   2.486   2.660  32.023  0.0903  0.3478 -0.3809
17186TIP3    H173049   2.439   2.658  31.940  0.2237 -0.3084 -0.4411
17186TIP3    H273050   2.471   2.574  32.061 -0.0650  0.6829  0.3326
17187TIP3   OH273051   3.164   3.803  32.206 -0.1650  0.3321  0.0682
17187TIP3    H173052   3.142   3.710  32.212  0.9353 -0.0391 -1.2765
17187TIP3    H273053   3.208   3.812  32.122 -0.2641  2.0845  0.1755
17188TIP3   OH273054   4.406   3.129  26.158 -0.1316  0.3537  0.0823
17188TIP3    H173055   4.394   3.178  26.240 -0.6137  0.0872  0.1775
17188TIP3    H273056   4.346   3.170  26.096 -1.0757 -0.5459  0.3609
17189TIP3   OH273057   3.229   3.736  40.903 -0.0575  0.2092  0.0613
17189TIP3    H173058   3.233   3.694  40.988  1.4437 -2.8539 -1.3672
17189TIP3    H273059   3.305   3.794  40.902  0.2221 -0.1417  0.6195
17190TIP3   OH273060   3.331   4.381  39.023 -0.2888 -0.1840  0.3216
17190TIP3    H173061   3.293   4.464  39.051  0.6162  0.3026  0.1260
17190TIP3    H273062   3.262   4.317  39.039 -0.2132  0.2309  2.5816
17191TIP3   OH273063   3.216   1.071  28.050  0.1424  0.1666 -0.0605
17191TIP3    H173064   3.147   1.086  27.984 -0.3557  0.6230  0.5461
17191TIP3    H273065   3.250   0.984  28.030  0.6295  0.6564 -1.4801
17192TIP3   OH273066   1.145   1.199  32.108  0.0029  0.5848  0.4138
17192TIP3    H173067   1.144   1.269  32.043 -0.3517  0.2235  0.0290
17192TIP3    H273068   1.061   1.154  32.097  0.3943 -0.1525  0.3893
17193TIP3   OH273069   3.644   1.439   9.119 -0.2342  0.4214 -0.2188
17193TIP3    H173070   3.677   1.367   9.172 -1.2567  0.0575 -0.0436
17193TIP3    H273071   3.552   1.417   9.103 -0.2555  1.1136 -1.1424
17194TIP3   OH273072   0.133   1.340  10.671 -0.3702  0.3966  0.3408
17194TIP3    H173073   0.124   1.246  10.690 -3.0463  0.6940  0.9215
17194TIP3    H273074   0.131   1.382  10.757 -0.0084  1.0539  0.0377
17195TIP3   OH273075   0.600   3.966  34.382  0.3765 -0.1540  0.2393
17195TIP3    H173076   0.593   4.060  34.368 -1.8912 -0.3836 -0.5807
17195TIP3    H273077   0.573   3.953  34.472 -1.0788 -0.1485 -0.1746
17196TIP3   OH273078   3.290   2.657  31.194 -0.5670 -0.6283  0.2931
17196TIP3    H173079   3.375   2.684  31.158 -2.2342  0.2859 -3.4698
17196TIP3    H273080   3.285   2.702  31.279  2.8304 -1.1356  0.9063
17197TIP3   OH273081   2.285   0.130  31.663 -0.2393 -0.4694  0.0374
17197TIP3    H173082   2.290   0.035  31.670  0.4529 -0.4407 -0.0656
17197TIP3    H273083   2.201   0.147  31.621  0.0213 -1.0682 -0.7306
17198TIP3   OH273084   0.003   3.091  32.067  0.1248 -0.4329 -0.5896
17198TIP3    H173085  -0.002   3.157  31.997  0.9762 -0.1607 -0.4052
17198TIP3    H273086   0.058   3.022  32.031  0.2812 -0.4510 -0.3163
17199TIP3   OH273087   0.258   2.559  33.465 -0.1011  0.1581 -0.0490
17199TIP3    H173088   0.183   2.553  33.524 -0.6954 -2.2717 -0.9511
17199TIP3    H273089   0.316   2.489  33.492  1.9990  2.0553  0.6935
17200TIP3   OH273090   1.026   3.463   0.601 -0.4249  0.3764 -0.9927
17200TIP3    H173091   0.966   3.465   0.676  1.5012 -1.9269  0.7629
17200TIP3    H273092   0.980   3.512   0.533 -3.3996  0.4496  0.8649
17201TIP3   OH273093   0.081   3.569  35.016 -0.0019  0.7854 -0.0024
17201TIP3    H173094   0.022   3.494  35.008  0.5041  0.2972  0.8091
17201TIP3    H273095   0.051   3.615  35.094  1.7890 -0.4833  1.5118
17202TIP3   OH273096   1.302   0.273  15.822  0.0184  0.0946  0.3283
17202TIP3    H173097   1.288   0.179  15.805 -1.4436  0.2498  0.5590
17202TIP3    H273098   1.215   0.307  15.841  0.4862  1.5911 -0.0994
17203TIP3   OH273099   2.201   0.957   0.592  0.2026  0.2798 -0.1223
17203TIP3    H173100   2.259   0.917   0.656 -1.0108  0.3688  1.0789
17203TIP3    H273101   2.131   0.892   0.579 -0.4866  0.9817  0.0002
17204TIP3   OH273102   1.807   1.631  28.986 -0.5633 -0.3551  0.6652
17204TIP3    H173103   1.836   1.719  29.010  0.0026 -0.5846  0.8642
17204TIP3    H273104   1.713   1.632  29.000 -0.4012 -0.1483  1.8830
17205TIP3   OH273105   0.321   2.470  32.557 -0.2398 -0.3921 -0.3160
17205TIP3    H173106   0.226   2.467  32.544 -0.3280  1.3059 -0.2519
17205TIP3    H273107   0.337   2.411  32.630 -1.1224 -1.4554 -0.9511
17206TIP3   OH273108   2.518   1.323  29.958  0.2141 -0.1197 -0.8260
17206TIP3    H173109   2.516   1.317  30.053 -0.9387 -2.0568 -0.9127
17206TIP3    H273110   2.564   1.405  29.940  0.9446  0.0237  1.3710
17207TIP3   OH273111   0.994   4.079  33.010 -0.2376  0.4675 -0.7116
17207TIP3    H173112   0.963   4.076  32.919  2.0204  0.1502 -1.5454
17207TIP3    H273113   0.972   3.994  33.046  0.1229  0.0605 -1.4363
17208TIP3   OH273114   3.999   1.125   0.879  0.1810  0.5007 -0.2677
17208TIP3    H173115   3.981   1.083   0.963 -0.6501 -0.4685 -0.9077
17208TIP3    H273116   3.914   1.127   0.835  0.6750  0.6534 -1.2251
17209TIP3   OH273117   3.956   2.351   0.624  0.1287  0.6743 -0.2401
17209TIP3    H173118   4.006   2.293   0.681  0.2604  1.5852  0.6014
17209TIP3    H273119   4.001   2.435   0.629 -0.5694  1.0918 -0.7233
17210TIP3   OH273120   2.286   0.799  12.589  0.4143 -0.1437 -0.0959
17210TIP3    H173121   2.242   0.872  12.544  0.5966 -0.9321 -1.6070
17210TIP3    H273122   2.351   0.842  12.644 -0.2882  0.9003 -0.0405
17211TIP3   OH273123   3.202   2.306   0.146  0.2121 -0.4305  0.0171
17211TIP3    H173124   3.116   2.290   0.107 -0.6178  2.4162  0.5123
17211TIP3    H273125   3.235   2.384   0.101  1.5462 -0.1621  1.3954
17212TIP3   OH273126   1.897   3.148  30.667 -0.8188  0.4159 -0.2734
17212TIP3    H173127   1.848   3.208  30.723 -0.6926  1.2700 -1.0601
17212TIP3    H273128   1.972   3.199  30.637  1.3876 -1.2269  1.9607
17213TIP3   OH273129   2.623   0.740  39.001 -0.4998  0.4324 -0.2132
17213TIP3    H173130   2.566   0.678  38.955  1.7821 -0.8373 -1.5165
17213TIP3    H273131   2.572   0.769  39.076 -1.5223 -3.4770  0.8156
17214TIP3   OH273132   4.018   2.299  11.596  0.0870  0.1379 -0.1276
17214TIP3    H173133   4.063   2.320  11.514  0.3354  0.4172  0.0764
17214TIP3    H273134   3.981   2.383  11.625 -0.5572 -0.0838 -0.2867
17215TIP3   OH273135   2.031   2.013  29.130 -0.3008  0.5499  0.5644
17215TIP3    H173136   1.986   2.015  29.046 -0.1508 -2.1797  0.3197
17215TIP3    H273137   2.122   2.032  29.109 -0.6078  2.0112  0.4649
17216TIP3   OH273138   3.173   3.848   1.976  0.9751  0.3435 -0.1093
17216TIP3    H173139   3.168   3.853   2.072  0.8298 -0.7971 -0.0382
17216TIP3    H273140   3.082   3.854   1.948  0.4702 -3.4323  0.1319
17217TIP3   OH273141   1.302   4.131   4.232 -0.5976  0.0913  0.0075
17217TIP3    H173142   1.252   4.134   4.151  0.3118  1.2611 -0.5337
17217TIP3    H273143   1.239   4.156   4.300 -0.4431  3.3103 -0.8596
17218TIP3   OH273144   0.397   2.148  10.968  0.0056  0.1566  0.2770
17218TIP3    H173145   0.460   2.079  10.951  0.8674  1.2247 -1.0815
17218TIP3    H273146   0.421   2.218  10.908 -3.3002  0.1115 -1.3454
17219TIP3   OH273147   1.892   3.721  36.140  0.0451  0.1477 -0.0697
17219TIP3    H173148   1.910   3.643  36.087  0.8441  0.3909 -0.1824
17219TIP3    H273149   1.922   3.794  36.085  1.1128  0.3881  0.7865
17220TIP3   OH273150   1.202   4.217   7.295  0.1714  0.6459 -0.3772
17220TIP3    H173151   1.250   4.137   7.315  1.1366  1.0319 -1.1118
17220TIP3    H273152   1.115   4.187   7.270  0.2284 -0.1041  0.2811
17221TIP3   OH273153   3.820   0.656   1.375  0.2313 -0.1969 -0.3718
17221TIP3    H173154   3.877   0.656   1.298 -0.5450 -0.7342 -0.9697
17221TIP3    H273155   3.770   0.738   1.368 -0.2718 -0.5321 -0.7840
17222TIP3   OH273156   1.422   2.960  37.746  0.0316 -0.2380  0.0614
17222TIP3    H173157   1.327   2.968  37.737  0.2517  1.7220 -0.9764
17222TIP3    H273158   1.452   2.933  37.660  0.7899  4.2842 -1.3831
17223TIP3   OH273159   0.602   0.091  27.816 -0.1519 -0.2113  0.8746
17223TIP3    H173160   0.647   0.123  27.894  0.6881  0.1421  0.2568
17223TIP3    H273161   0.553   0.014  27.846  1.3085 -0.9463  1.4403
17224TIP3   OH273162   0.204   2.097  13.300 -0.0630 -0.2525 -0.4842
17224TIP3    H173163   0.245   2.010  13.306  0.5999  0.1727  2.4113
17224TIP3    H273164   0.264   2.155  13.347 -1.2993  1.4802 -0.9682
17225TIP3   OH273165   0.472   2.037  35.193 -0.4171 -0.2290  0.0984
17225TIP3    H173166   0.528   1.960  35.200 -1.2199 -0.6719  2.2845
17225TIP3    H273167   0.530   2.110  35.214 -0.2124 -0.4800  0.4162
17226TIP3   OH273168   0.124   0.514  11.037 -0.1351 -0.4307 -0.2115
17226TIP3    H173169   0.062   0.521  11.110 -2.2821  1.0935 -2.0576
17226TIP3    H273170   0.147   0.421  11.035 -1.1247 -0.7633  1.5064
17227TIP3   OH273171   4.317   0.202  36.666  0.1078 -0.9393  0.1009
17227TIP3    H173172   4.333   0.190  36.572  0.1852  0.9354 -0.1705
17227TIP3    H273173   4.243   0.145  36.685 -0.7515 -0.4033 -1.4108
17228TIP3   OH273174   2.139   1.637   8.601  0.3842  0.6746 -0.0466
17228TIP3    H173175   2.063   1.674   8.556  0.2655  1.1642  0.5347
17228TIP3    H273176   2.131   1.669   8.691  1.0719  0.4128  0.1127
17229TIP3   OH273177   4.388   2.673  10.862  0.6287 -0.2153 -0.2434
17229TIP3    H173178   4.391   2.745  10.800  0.4772 -0.3890 -0.4523
17229TIP3    H273179   4.407   2.595  10.810  1.1666 -0.2816  0.0535
17230TIP3   OH273180   1.367   3.516  37.923 -0.2933 -0.0856 -0.4262
17230TIP3    H173181   1.362   3.469  37.839 -1.1560  0.4081 -0.6647
17230TIP3    H273182   1.312   3.464  37.982  1.2011 -1.0486  0.1603
17231TIP3   OH273183   2.090   1.745  35.235 -0.2438  0.0922  0.0925
17231TIP3    H173184   2.056   1.720  35.149 -0.4663 -0.7019  0.4081
17231TIP3    H273185   2.016   1.786  35.280 -0.9646 -2.0185  0.9399
17232TIP3   OH273186   3.051   1.093  28.277  0.6346 -0.7174  0.5296
17232TIP3    H173187   3.107   1.144  28.219  1.2866 -0.6323  1.2315
17232TIP3    H273188   2.996   1.041  28.217  1.8597 -1.2467 -0.1665
17233TIP3   OH273189   2.251   0.636  28.775  0.3532  0.0317  0.2284
17233TIP3    H173190   2.185   0.678  28.720 -0.8126 -0.7694  0.9720
17233TIP3    H273191   2.332   0.643  28.725 -0.4508  0.3273 -1.0727
17234TIP3   OH273192   0.985   1.144   3.922 -0.3645  0.9279  0.6040
17234TIP3    H173193   1.069   1.190   3.927  0.4241 -0.2845 -0.5819
17234TIP3    H273194   0.932   1.197   3.862  0.8284 -0.0313 -1.4212
17235TIP3   OH273195   0.814   3.751  15.880 -0.1135  0.4806 -0.0401
17235TIP3    H173196   0.853   3.663  15.875 -2.3035 -0.7686  2.3067
17235TIP3    H273197   0.863   3.795  15.949  1.7879  1.6463 -2.0380
17236TIP3   OH273198   2.117   0.510  36.003  0.1772  0.2490 -0.1285
17236TIP3    H173199   2.128   0.467  35.919 -0.1120  0.1759 -0.1301
17236TIP3    H273200   2.024   0.535  36.005  0.3226  0.7946 -0.0910
17237TIP3   OH273201   0.112   3.705  26.999  0.6342 -0.0007  0.0988
17237TIP3    H173202   0.024   3.680  27.030  0.2084 -0.6113 -1.5168
17237TIP3    H273203   0.134   3.782  27.051  0.6294 -1.7685  3.0141
17238TIP3   OH273204   1.891   3.823  36.957 -0.5325 -0.5454  0.2297
17238TIP3    H173205   1.975   3.838  36.913 -0.4768 -2.2986 -0.3296
17238TIP3    H273206   1.835   3.895  36.927 -0.0502 -0.8760 -1.5879
17239TIP3   OH273207   2.425   1.527  30.578  0.0484 -0.6457 -0.2679
17239TIP3    H173208   2.483   1.502  30.507  1.4763 -0.8929  0.9238
17239TIP3    H273209   2.484   1.543  30.652 -1.4502 -1.6799  1.2282
17240TIP3   OH273210   1.304   1.052   1.550  0.1433  0.0619  0.2271
17240TIP3    H173211   1.386   1.044   1.600  0.9536 -1.4446 -1.2607
17240TIP3    H273212   1.236   1.027   1.613  0.6023  2.6412  1.9086
17241TIP3   OH273213   0.085   0.720  29.619  0.0214 -0.1583 -0.0924
17241TIP3    H173214   0.009   0.680  29.663 -0.1309  1.1141  0.8512
17241TIP3    H273215   0.142   0.646  29.598 -0.5274 -0.9406  1.0670
17242TIP3   OH273216   1.639   1.828   9.877 -0.5254  0.3780 -0.7415
17242TIP3    H173217   1.711   1.891   9.867 -0.1408 -0.0166 -0.4733
17242TIP3    H273218   1.614   1.835   9.969  1.5927 -2.0505  0.1363
17243TIP3   OH273219   4.120   3.993   3.484 -0.3805 -0.0817  0.4233
17243TIP3    H173220   4.109   3.899   3.474  0.4849 -0.4989  2.8438
17243TIP3    H273221   4.213   4.008   3.469 -0.6842  0.5738 -0.9500
17244TIP3   OH273222   2.069   2.313  36.811  0.2700  0.1561  0.6472
17244TIP3    H173223   2.031   2.328  36.724 -1.5682 -1.1657  1.1589
17244TIP3    H273224   2.117   2.231  36.802 -0.6334 -0.4356  1.0507
17245TIP3   OH273225   2.470   0.349  33.392  0.2946 -0.0830 -0.4243
17245TIP3    H173226   2.511   0.412  33.451  1.8972 -0.6973 -0.8425
17245TIP3    H273227   2.421   0.291  33.450 -2.1920  2.1335 -0.1024
17246TIP3   OH273228   2.910   2.315  36.553  0.2187 -0.4620 -0.1846
17246TIP3    H173229   2.891   2.376  36.482 -2.6949  0.1459  0.9598
17246TIP3    H273230   2.850   2.242  36.539 -0.9302 -0.0175  1.9263
17247TIP3   OH273231   3.820   3.888   8.534  0.3176 -0.1099  0.5961
17247TIP3    H173232   3.788   3.951   8.599  0.2096 -0.1801  0.6105
17247TIP3    H273233   3.744   3.835   8.512  0.2563  0.1646  0.1192
17248TIP3   OH273234   1.928   2.956   5.789  0.4584  0.2548 -0.0932
17248TIP3    H173235   1.982   3.034   5.802  0.7891  0.1616 -0.8343
17248TIP3    H273236   1.971   2.888   5.840  0.0524  0.5979  0.7226
17249TIP3   OH273237   4.390   2.910  40.524 -0.1379  0.2519 -0.1019
17249TIP3    H173238   4.315   2.936  40.577 -0.8913 -0.3633 -0.8351
17249TIP3    H273239   4.417   2.826  40.561 -0.7713 -0.2610 -0.7766
17250TIP3   OH273240   1.359   1.704  13.159  0.5694 -0.0075  0.0828
17250TIP3    H173241   1.446   1.668  13.143  0.4063  0.6895 -2.9808
17250TIP3    H273242   1.315   1.698  13.074 -0.5851  4.3473  0.1419
17251TIP3   OH273243   0.408   1.712  11.106 -0.1865  0.4696  0.2825
17251TIP3    H173244   0.345   1.687  11.038  1.7448  0.1441 -1.4686
17251TIP3    H273245   0.359   1.773  11.162 -2.7989 -1.6304  0.4874
17252TIP3   OH273246   3.264   2.461  40.097  0.5789  0.2463  0.8475
17252TIP3    H173247   3.186   2.475  40.152  0.2347 -0.2611  0.5013
17252TIP3    H273248   3.314   2.542  40.106 -1.0159  1.4691 -0.5596
17253TIP3   OH273249   1.875   0.023  17.663 -0.3839 -0.0841  0.3864
17253TIP3    H173250   1.961  -0.018  17.665 -1.0860 -1.6930 -0.6088
17253TIP3    H273251   1.813  -0.049  17.675 -1.7042  0.4162 -2.6170
17254TIP3   OH273252   1.012   1.757  30.003  0.3656 -0.2947  0.4399
17254TIP3    H173253   1.022   1.669  30.039  0.7190 -0.5520 -0.2823
17254TIP3    H273254   0.987   1.811  30.079  0.0551 -1.0267  0.8657
17255TIP3   OH273255   4.081   3.124  33.245 -0.2051  0.0985  0.4547
17255TIP3    H173256   4.104   3.092  33.332 -1.2663 -1.2837  0.2610
17255TIP3    H273257   3.985   3.131  33.246 -0.1708  0.8993 -0.3256
17256TIP3   OH273258   2.103   3.824  13.742  0.6558  0.2185  0.2481
17256TIP3    H173259   2.054   3.742  13.735  2.5878 -0.9717 -0.1595
17256TIP3    H273260   2.146   3.833  13.657 -0.5990  2.4237 -0.2168
17257TIP3   OH273261   1.410   2.383   4.687  0.2072 -0.5693 -0.3021
17257TIP3    H173262   1.397   2.456   4.626  0.3622 -0.1243  0.1946
17257TIP3    H273263   1.338   2.392   4.750  2.1131  1.2081  1.7856
17258TIP3   OH273264   1.506   2.020   4.876  0.1799  0.6273 -0.5325
17258TIP3    H173265   1.427   2.026   4.823 -0.8762 -0.2549  0.8571
17258TIP3    H273266   1.475   1.989   4.961  2.1802 -0.9704 -0.3189
17259TIP3   OH273267   0.395   3.394   6.878 -1.0105 -0.2828 -0.3291
17259TIP3    H173268   0.488   3.399   6.900 -1.0242 -1.4795  0.0808
17259TIP3    H273269   0.350   3.421   6.959 -1.0255 -1.7112  0.1640
17260TIP3   OH273270   3.075   0.707   7.667 -0.0399  1.0528 -0.6590
17260TIP3    H173271   3.004   0.769   7.648 -0.4053  0.5259 -1.0665
17260TIP3    H273272   3.086   0.659   7.585 -0.6233 -0.2688  0.0075
17261TIP3   OH273273   2.480   0.415   3.065  0.1235 -0.4056  0.1921
17261TIP3    H173274   2.560   0.398   3.115 -0.7735 -2.8835  0.9626
17261TIP3    H273275   2.412   0.426   3.132 -0.4174  0.2831 -0.4590
17262TIP3   OH273276   1.675   1.236  31.063  0.4182 -0.2831  0.2220
17262TIP3    H173277   1.731   1.238  30.985 -0.8032 -0.9401 -0.7144
17262TIP3    H273278   1.698   1.315  31.111  0.4341  0.7356 -1.3819
17263TIP3   OH273279   2.046   1.962  33.249  0.1140  0.2532  0.5392
17263TIP3    H173280   2.032   2.010  33.331 -1.3840  0.6871  0.0580
17263TIP3    H273281   2.059   1.871  33.276  2.7870  0.8274  1.4568
17264TIP3   OH273282   0.971   2.889   5.336  0.0439  0.1630  0.2063
17264TIP3    H173283   1.019   2.957   5.384 -0.1573  0.4407  0.0220
17264TIP3    H273284   0.884   2.926   5.323 -0.2068 -0.3251  0.5034
17265TIP3   OH273285   0.090   2.943  30.680 -0.0979 -0.4404 -0.0717
17265TIP3    H173286   0.038   2.867  30.707 -1.3305  0.1417 -0.7196
17265TIP3    H273287   0.141   2.966  30.757 -0.7852 -1.0606  0.5812
17266TIP3   OH273288   4.181   2.664  25.529 -0.3622 -0.2526 -0.4536
17266TIP3    H173289   4.196   2.628  25.441  1.5087  1.8004 -1.0457
17266TIP3    H273290   4.258   2.636  25.579 -0.5665  0.0788  0.0448
17267TIP3   OH273291   3.036   1.929  28.755 -0.3818 -0.1464  0.5727
17267TIP3    H173292   3.079   1.853  28.794 -0.5665 -0.5582 -0.0109
17267TIP3    H273293   3.090   2.003  28.781  0.1389 -0.5467  0.6429
17268TIP3   OH273294   4.161   3.821  34.521  0.2968 -0.3461  0.7252
17268TIP3    H173295   4.165   3.725  34.515 -1.4188 -0.5642  2.2039
17268TIP3    H273296   4.131   3.849  34.435  0.4226 -1.1665  0.4023
17269TIP3   OH273297   4.288   3.942  35.807 -0.1123 -1.0453  0.4814
17269TIP3    H173298   4.285   3.974  35.897  0.0618 -0.6266  0.3350
17269TIP3    H273299   4.311   4.018  35.754 -1.0680 -1.0865 -0.0198
17270TIP3   OH273300   1.971   1.427  34.426  0.2695 -0.0982  0.5146
17270TIP3    H173301   1.899   1.420  34.488 -3.3649 -0.3217 -3.3066
17270TIP3    H273302   1.998   1.337  34.409 -0.1624 -0.1751  0.2454
17271TIP3   OH273303   3.698   1.909  30.054 -0.4472 -0.0006  0.4482
17271TIP3    H173304   3.779   1.857  30.054 -0.0222  0.5772 -1.7396
17271TIP3    H273305   3.635   1.854  30.007 -0.6905  0.4495  0.2448
17272TIP3   OH273306   2.699   2.702  31.399  0.2286  0.3804  0.2747
17272TIP3    H173307   2.737   2.692  31.312  3.3666  0.4614  1.4973
17272TIP3    H273308   2.672   2.614  31.424  0.4095  0.1537 -0.3294
17273TIP3   OH273309   2.153   2.685  36.755  0.0287  0.5242 -0.3910
17273TIP3    H173310   2.232   2.695  36.703  0.2497 -0.4337 -0.2490
17273TIP3    H273311   2.176   2.622  36.823 -1.1685 -0.6435 -1.0262
17274TIP3   OH273312   2.432   1.224  10.098  0.3334  0.3009  0.0117
17274TIP3    H173313   2.493   1.180  10.158 -1.2314 -1.3770  0.4738
17274TIP3    H273314   2.486   1.248  10.022  1.9468  0.6867  1.2066
17275TIP3   OH273315   0.573   4.142   6.020  0.1844 -0.1699  0.5731
17275TIP3    H173316   0.521   4.077   5.974  1.6746 -0.4026 -0.8946
17275TIP3    H273317   0.655   4.147   5.971  0.3449  2.4373  0.9268
17276TIP3   OH273318   1.554   3.318  34.172 -0.9805 -0.1759  0.0442
17276TIP3    H173319   1.548   3.300  34.078 -1.3665 -3.3310  0.5670
17276TIP3    H273320   1.480   3.376  34.191 -1.4782 -0.2921 -1.4360
17277TIP3   OH273321   1.203   2.587  16.199 -0.7046 -0.3124 -0.4791
17277TIP3    H173322   1.134   2.652  16.192 -0.9639 -0.1674  2.2885
17277TIP3    H273323   1.283   2.637  16.214 -0.7146 -0.5578  0.4831
17278TIP3   OH273324   2.192   3.842  35.124  0.2234  1.3155  0.1953
17278TIP3    H173325   2.152   3.811  35.205  0.9002  0.9566  0.4034
17278TIP3    H273326   2.118   3.859  35.065 -0.2102 -0.5434  0.1337
17279TIP3   OH273327   4.211   2.713  37.001 -0.0115  0.2969 -0.1265
17279TIP3    H173328   4.141   2.762  36.958  1.0027  2.2715  0.3436
17279TIP3    H273329   4.226   2.637  36.945 -0.9119  1.0873 -1.4790
17280TIP3   OH273330   0.871   0.637  39.000  0.4447  0.2497 -0.7351
17280TIP3    H173331   0.862   0.726  38.965 -0.0016  0.5073  0.0142
17280TIP3    H273332   0.959   0.609  38.975 -0.1927  0.0374 -2.9311
17281TIP3   OH273333   1.711   2.318  29.808 -0.1033 -0.5118  0.1302
17281TIP3    H173334   1.787   2.272  29.844  0.3150  0.3869  0.4388
17281TIP3    H273335   1.717   2.305  29.713  2.5109  2.4466 -0.2995
17282TIP3   OH273336   1.213   2.708   8.910 -0.0595 -0.1804 -0.1101
17282TIP3    H173337   1.129   2.752   8.900 -0.6869 -1.7022 -2.1735
17282TIP3    H273338   1.193   2.615   8.897  2.2610 -0.3751 -3.3029
17283TIP3   OH273339   2.144   1.456  30.125  0.1890  0.1464 -1.0265
17283TIP3    H173340   2.159   1.361  30.125  0.4046  0.1800 -1.7621
17283TIP3    H273341   2.231   1.494  30.118 -0.0348  0.3653 -3.1494
17284TIP3   OH273342   3.983   4.290  24.415  0.5238  0.0001  0.2643
17284TIP3    H173343   4.030   4.216  24.378  0.5624  0.1184  0.0748
17284TIP3    H273344   4.046   4.362  24.414  0.8408 -0.2264  1.4328
17285TIP3   OH273345   1.325   0.558  10.249 -0.0470  0.1556  0.3267
17285TIP3    H173346   1.399   0.617  10.258 -0.8659  0.9660  2.3212
17285TIP3    H273347   1.310   0.524  10.337 -0.6276 -1.8016 -0.4603
17286TIP3   OH273348   4.023   2.255   2.324 -0.1173 -0.3229  1.1146
17286TIP3    H173349   4.031   2.231   2.232 -4.7194 -2.2526  0.9768
17286TIP3    H273350   4.023   2.172   2.372  1.1231  0.5853  2.8530
17287TIP3   OH273351   0.494   0.390   7.269  0.1378 -0.2220 -0.2214
17287TIP3    H173352   0.405   0.378   7.236 -0.2247  0.1753  0.5665
17287TIP3    H273353   0.550   0.353   7.202 -0.3236  3.4590 -2.9215
17288TIP3   OH273354   2.885   0.989   8.084  0.1336 -0.1119 -0.3473
17288TIP3    H173355   2.869   0.929   8.011 -2.2361  1.6687 -1.4435
17288TIP3    H273356   2.829   0.957   8.155 -0.1653  0.0737 -0.4980
17289TIP3   OH273357   3.549   0.135   0.027 -0.5390 -0.1337  0.3549
17289TIP3    H173358   3.517   0.153  -0.061 -0.0157 -0.1909  0.1471
17289TIP3    H273359   3.643   0.119   0.016 -0.8458 -2.5638  0.5544
17290TIP3   OH273360   1.809   2.212   1.023 -0.7112 -0.1544 -0.1493
17290TIP3    H173361   1.799   2.293   0.973 -0.5692 -0.0792 -0.0547
17290TIP3    H273362   1.835   2.240   1.110  0.7520 -0.3632 -0.5004
17291TIP3   OH273363   2.133   3.044  40.573 -0.0711  0.8486 -0.2120
17291TIP3    H173364   2.144   2.963  40.523 -0.5366  0.6999 -0.0845
17291TIP3    H273365   2.038   3.056  40.577 -0.1347  0.0882  1.8695
17292TIP3   OH273366   2.219   1.113   1.042 -0.0674  0.0255  0.4696
17292TIP3    H173367   2.124   1.101   1.047 -0.1414  0.1146 -0.5211
17292TIP3    H273368   2.231   1.193   0.991  0.5364  0.1383  0.7815
17293TIP3   OH273369   3.688   0.353  40.325 -0.0369 -0.0790  0.2686
17293TIP3    H173370   3.748   0.295  40.372 -0.7475 -0.2335  1.0217
17293TIP3    H273371   3.638   0.294  40.268 -0.5219 -0.1679  0.7805
17294TIP3   OH273372   1.305   1.555   2.028  0.3806  0.0116 -0.1625
17294TIP3    H173373   1.223   1.531   2.072  0.7864  1.2993  1.4065
17294TIP3    H273374   1.280   1.570   1.937 -0.7597 -1.4237 -0.1362
17295TIP3   OH273375   1.136   1.499   0.408 -0.0714  0.3273 -0.7086
17295TIP3    H173376   1.212   1.495   0.350 -0.1565 -0.2739 -0.7850
17295TIP3    H273377   1.061   1.483   0.350 -0.1989  0.2156 -0.5125
17296TIP3   OH273378   1.731   0.199   5.161  0.1351  0.3086 -0.4775
17296TIP3    H173379   1.655   0.182   5.106  0.6511 -2.9500 -0.3353
17296TIP3    H273380   1.806   0.171   5.108  0.8032 -0.9223  1.0473
17297TIP3   OH273381   0.795   1.017  10.571  0.3035 -0.4769  0.1594
17297TIP3    H173382   0.866   1.028  10.507 -0.0858  0.9442 -0.0818
17297TIP3    H273383   0.729   0.967  10.525 -0.5448  1.6548 -1.1025
17298TIP3   OH273384   3.456   0.521  12.143  0.3407 -0.2160 -0.0342
17298TIP3    H173385   3.447   0.491  12.234 -2.9821  0.0329 -0.1374
17298TIP3    H273386   3.403   0.459  12.093  1.5324  0.0815 -1.7355
17299TIP3   OH273387   3.973   3.402  28.533 -0.2220 -0.0978  0.2231
17299TIP3    H173388   4.040   3.467  28.509  1.0813 -2.0539 -1.9057
17299TIP3    H273389   4.016   3.348  28.599 -1.6668  1.6316  2.7817
17300TIP3   OH273390   0.626   1.852   4.548  0.2818 -0.3156  0.3176
17300TIP3    H173391   0.587   1.921   4.602 -1.4365 -0.3175 -0.8679
17300TIP3    H273392   0.632   1.889   4.461  2.8869 -0.3780  0.3802
17301TIP3   OH273393   2.112   2.788  28.482 -0.2833 -0.0977  0.2730
17301TIP3    H173394   2.097   2.695  28.498 -0.7806  0.0752  0.8391
17301TIP3    H273395   2.207   2.799  28.490 -0.3638 -0.2750  1.7925
17302TIP3   OH273396   3.592   1.861  36.111 -0.0874  0.3457 -0.0197
17302TIP3    H173397   3.526   1.794  36.098  0.3279 -0.2073  0.6443
17302TIP3    H273398   3.543   1.937  36.142 -0.4061 -0.1064  0.6186
17303TIP3   OH273399   2.092   3.364   2.029 -0.2140 -0.4590 -0.0337
17303TIP3    H173400   2.112   3.293   2.089 -1.4367 -1.0437 -0.2751
17303TIP3    H273401   2.176   3.390   1.992  0.2562 -1.7530  0.0942
17304TIP3   OH273402   1.639   2.429  17.912 -0.4572 -0.4042  0.5580
17304TIP3    H173403   1.711   2.455  17.970 -0.1346  1.6376 -0.6538
17304TIP3    H273404   1.682   2.382  17.841 -0.6306 -1.2816  1.0233
17305TIP3   OH273405   1.670   3.970   9.601  0.0195 -0.3095 -0.3070
17305TIP3    H173406   1.616   3.900   9.563 -1.2919 -0.3990  1.5840
17305TIP3    H273407   1.613   4.047   9.601  0.5315  0.0738  0.0452
17306TIP3   OH273408   3.606   1.126   3.756 -0.8229  0.2196  0.1442
17306TIP3    H173409   3.608   1.061   3.826 -1.8937  0.0765  0.0705
17306TIP3    H273410   3.515   1.158   3.756 -0.8012  0.3395 -1.0546
17307TIP3   OH273411   3.314   4.016   6.843 -0.1066 -0.0931 -0.3938
17307TIP3    H173412   3.220   4.003   6.859 -0.2610  0.7709 -0.5058
17307TIP3    H273413   3.354   4.005   6.929 -0.0792 -2.1438 -0.6250
17308TIP3   OH273414   0.472   0.507  29.229 -0.3425  0.6909  0.3800
17308TIP3    H173415   0.477   0.470  29.141 -1.0075 -0.5098  0.8218
17308TIP3    H273416   0.437   0.436  29.283  2.1055  0.6615  2.0788
17309TIP3   OH273417   4.276   2.395   9.650 -0.2268 -0.7456  0.0525
17309TIP3    H173418   4.365   2.397   9.685 -0.8263  0.7669  1.6299
17309TIP3    H273419   4.225   2.447   9.712 -1.8078  0.1587 -1.9034
17310TIP3   OH273420   2.940   0.571  37.939  0.1947  0.6305 -0.7863
17310TIP3    H173421   3.021   0.620  37.950  0.8292 -0.3626 -0.8495
17310TIP3    H273422   2.966   0.479  37.948 -1.0794  0.3210  0.1362
17311TIP3   OH273423   1.072   1.697  32.939 -0.1447  0.2801  0.1667
17311TIP3    H173424   1.131   1.773  32.944 -0.3687  0.5933 -1.3331
17311TIP3    H273425   1.127   1.627  32.903  0.2069 -0.4671  2.0542
17312TIP3   OH273426   3.041   2.496  13.162  0.0210  0.3096  0.3719
17312TIP3    H173427   3.048   2.513  13.256 -1.1995  1.9220  0.2346
17312TIP3    H273428   2.976   2.426  13.155  1.8293 -1.4880  0.7844
17313TIP3   OH273429   3.893   3.444  37.525 -0.2482 -0.1889  0.7766
17313TIP3    H173430   3.817   3.387  37.512  1.2364 -2.4793  1.4054
17313TIP3    H273431   3.915   3.475  37.438 -0.7854 -1.0413  0.3207
17314TIP3   OH273432   2.879   4.008  38.399  0.5275 -0.3356 -0.3078
17314TIP3    H173433   2.888   4.102  38.384  1.4003 -0.1062  1.4148
17314TIP3    H273434   2.947   3.987  38.463  0.1550 -2.0898 -0.4351
17315TIP3   OH273435   2.677   0.779  27.550 -0.3867 -0.0444 -0.6345
17315TIP3    H173436   2.645   0.785  27.639 -2.1894  0.4548 -1.2770
17315TIP3    H273437   2.722   0.695  27.545  1.0189  0.5561  1.1127
17316TIP3   OH273438   0.342   4.041  11.477  0.2046 -0.5131 -0.2453
17316TIP3    H173439   0.387   4.042  11.562  0.5812 -1.6863 -0.4134
17316TIP3    H273440   0.407   4.077  11.416  0.3206 -0.6788 -0.2193
17317TIP3   OH273441   0.070   0.945   7.213 -0.9181 -0.0821 -0.0282
17317TIP3    H173442   0.154   0.901   7.204 -1.3372 -0.6676 -1.3294
17317TIP3    H273443   0.060   0.959   7.307  1.1831  1.1143  0.0648
17318TIP3   OH273444   3.235   3.223  27.606  0.4986 -0.6328 -0.0285
17318TIP3    H173445   3.202   3.303  27.565  2.0046  0.6043  1.0625
17318TIP3    H273446   3.157   3.169  27.619 -0.3823  0.0644 -1.9751
17319TIP3   OH273447   3.411   0.432  35.996  0.3625  0.4235 -0.1272
17319TIP3    H173448   3.462   0.353  35.978  0.3864  0.6289 -1.0310
17319TIP3    H273449   3.400   0.433  36.091 -1.6349 -1.9307 -0.2332
17320TIP3   OH273450   1.732   1.883   3.125  0.2956  0.3241 -0.2762
17320TIP3    H173451   1.711   1.975   3.135 -0.3210  0.2866 -1.0697
17320TIP3    H273452   1.827   1.878   3.134  0.1645  0.7362  1.8382
17321TIP3   OH273453   4.035   0.015  27.265 -0.1700 -0.0426 -0.4534
17321TIP3    H173454   4.028  -0.064  27.318  1.6153 -1.3171 -1.9720
17321TIP3    H273455   4.106   0.065  27.306 -1.3956  0.8963  0.5925
17322TIP3   OH273456   1.437   2.050  16.135 -0.0276 -0.1329 -0.2454
17322TIP3    H173457   1.482   1.986  16.079  0.5665  0.2837 -0.2475
17322TIP3    H273458   1.484   2.047  16.218 -0.9133 -0.7569  0.2559
17323TIP3   OH273459   0.419   2.622  34.777  0.1619  0.1000 -0.1301
17323TIP3    H173460   0.368   2.628  34.696 -0.7226 -2.8377  0.1092
17323TIP3    H273461   0.509   2.608  34.747  0.0280  0.1482 -0.5727
17324TIP3   OH273462   1.602   0.071  36.624 -0.1678 -0.3345  0.1950
17324TIP3    H173463   1.626   0.042  36.536  0.3972  0.4297  0.0927
17324TIP3    H273464   1.507   0.081  36.621  0.0530  1.9115 -1.0384
17325TIP3   OH273465   3.083   0.952  29.981 -0.0624  0.5824  0.2459
17325TIP3    H173466   3.134   1.026  30.011 -0.1016  0.6192  0.2229
17325TIP3    H273467   2.996   0.988  29.962  0.3901  0.8919 -1.4397
17326TIP3   OH273468   1.720   0.113   7.849  0.2326  0.0708 -0.5556
17326TIP3    H173469   1.687   0.201   7.834  0.4186 -0.0373 -1.6821
17326TIP3    H273470   1.649   0.055   7.821  0.9478 -0.1475 -2.0409
17327TIP3   OH273471   3.032   4.111   1.014  0.6633 -0.0152 -0.3483
17327TIP3    H173472   3.024   4.112   1.109  0.7960 -0.5079 -0.3336
17327TIP3    H273473   3.073   4.195   0.993  2.2941 -0.6413  0.1685
17328TIP3   OH273474   3.588   3.677  35.271  0.3181 -0.1194 -0.2434
17328TIP3    H173475   3.558   3.622  35.343 -2.7139 -0.0939 -1.3591
17328TIP3    H273476   3.580   3.766  35.305 -0.2155 -0.1457 -0.2955
17329TIP3   OH273477   3.452   3.410  40.424  0.1156  0.0215  0.1962
17329TIP3    H173478   3.396   3.336  40.400  3.9387 -2.3746 -2.5452
17329TIP3    H273479   3.435   3.476  40.356 -0.5495  0.0613  0.3914
17330TIP3   OH273480   1.692   2.746   9.830 -0.2672 -0.1089 -0.1238
17330TIP3    H173481   1.628   2.816   9.833  0.4692  0.5663  0.1793
17330TIP3    H273482   1.640   2.666   9.828 -1.1132  0.4147  0.3842
17331TIP3   OH273483   1.581   1.047  17.078 -0.0151 -0.2341 -0.1439
17331TIP3    H173484   1.549   1.137  17.074 -0.5840 -0.4384 -0.2248
17331TIP3    H273485   1.665   1.050  17.032  0.0016  0.2660 -0.0920
17332TIP3   OH273486   3.508   3.381   2.954 -0.3373  0.5260  0.5577
17332TIP3    H173487   3.506   3.285   2.951 -1.7647  0.5401  0.5951
17332TIP3    H273488   3.601   3.403   2.942 -0.0729 -0.8283 -0.1121
17333TIP3   OH273489   3.199   3.637   2.764  0.3541 -0.0790 -0.4497
17333TIP3    H173490   3.106   3.619   2.755  0.5995 -1.0290 -1.2389
17333TIP3    H273491   3.241   3.551   2.760  1.1216  0.0473  2.4849
17334TIP3   OH273492   1.697   3.542  32.132  0.1408 -0.1803  0.0593
17334TIP3    H173493   1.664   3.565  32.045  1.2714  1.6415  0.0615
17334TIP3    H273494   1.619   3.519  32.182 -0.5674 -0.8217 -1.2992
17335TIP3   OH273495   0.109   3.458  40.660 -0.2762 -0.0297 -0.3832
17335TIP3    H173496   0.146   3.546  40.671 -0.1363 -0.0388 -0.7701
17335TIP3    H273497   0.094   3.450  40.566 -0.0744 -0.5087 -0.3770
17336TIP3   OH273498   3.905   1.861   3.401 -0.2955 -0.1874  0.0086
17336TIP3    H173499   3.829   1.905   3.363 -0.5603  0.5190  1.3012
17336TIP3    H273500   3.868   1.793   3.457  0.1035 -1.8325 -1.6248
17337TIP3   OH273501   2.298   3.252   4.151 -0.0711  0.1100 -0.3072
17337TIP3    H173502   2.259   3.280   4.234  2.1277  0.1828  0.7681
17337TIP3    H273503   2.356   3.180   4.175  0.2090 -0.2170 -1.8829
17338TIP3   OH273504   4.053   4.370  34.242  0.4085 -0.0969  0.6051
17338TIP3    H173505   4.039   4.462  34.220 -0.3147  0.1932  2.1701
17338TIP3    H273506   4.135   4.370  34.292  0.2719 -0.2701  0.8277
17339TIP3   OH273507   3.879   0.058   5.510 -0.9224 -0.1430  0.2203
17339TIP3    H173508   3.865   0.079   5.602 -1.3574  2.0922 -0.2775
17339TIP3    H273509   3.799   0.088   5.467  0.7232  2.5289 -1.3070
17340TIP3   OH273510   0.934   2.546   2.458  0.1892 -0.1244 -0.3128
17340TIP3    H173511   0.910   2.462   2.497 -0.7662  0.5162  0.5497
17340TIP3    H273512   1.020   2.566   2.495 -0.5132  0.2690  1.1918
17341TIP3   OH273513   1.360   3.258   4.804  0.1433  0.0043  0.0997
17341TIP3    H173514   1.403   3.189   4.855 -0.8167  0.4733  1.6217
17341TIP3    H273515   1.267   3.237   4.808 -0.1562  1.3186  0.5131
17342TIP3   OH273516   0.328   1.843  41.555 -0.0796 -0.1673  1.0411
17342TIP3    H173517   0.380   1.771  41.520  0.1617  0.0232  1.0074
17342TIP3    H273518   0.388   1.894  41.609  0.4873  1.5490 -1.0529
17343TIP3   OH273519   1.423   0.164  38.483 -0.3955  0.1486  0.5305
17343TIP3    H173520   1.500   0.148  38.428  0.5852  0.5842  1.7132
17343TIP3    H273521   1.422   0.089  38.544 -0.9759  0.0959  0.4611
17344TIP3   OH273522   1.962   3.332  12.671  0.1159 -0.0630 -0.5117
17344TIP3    H173523   1.945   3.319  12.764  1.1604 -2.0520 -0.5492
17344TIP3    H273524   1.997   3.248  12.641  0.8493  0.8796 -2.4556
17345TIP3   OH273525   0.353   3.543  30.385 -0.1366 -0.6923  0.1229
17345TIP3    H173526   0.438   3.576  30.356  0.7470 -0.2815  2.9188
17345TIP3    H273527   0.290   3.587  30.329  1.3976  0.2907 -0.9042
17346TIP3   OH273528   2.533   4.133  37.895  0.3852 -0.0976 -0.1937
17346TIP3    H173529   2.562   4.043  37.877  0.0451 -0.2442 -0.0124
17346TIP3    H273530   2.605   4.188  37.864  0.4571 -0.4191 -0.5986
17347TIP3   OH273531   1.371   4.028  29.775  0.3745 -0.5414  0.4977
17347TIP3    H173532   1.278   4.008  29.783  0.2511 -0.9375 -1.4037
17347TIP3    H273533   1.373   4.115  29.735  0.8423 -0.0786  1.5032
17348TIP3   OH273534   4.288   1.898   0.674 -0.3544 -0.5476  0.0272
17348TIP3    H173535   4.218   1.832   0.673 -0.7914 -0.1035  0.4608
17348TIP3    H273536   4.253   1.971   0.622  0.1920 -0.7115 -0.5884
17349TIP3   OH273537   1.297   1.787  33.796 -0.3268  0.6159  0.4609
17349TIP3    H173538   1.272   1.843  33.870  0.3552  1.2654  0.2097
17349TIP3    H273539   1.364   1.728  33.831  0.3317  1.2287  0.2645
17350TIP3   OH273540   4.402   0.888  30.939 -0.1496 -0.9782 -0.0106
17350TIP3    H173541   4.364   0.808  30.974  0.5515 -2.1913 -1.8650
17350TIP3    H273542   4.330   0.951  30.939 -0.2186 -0.9168  3.3229
17351TIP3   OH273543   2.971   1.046  33.184  0.5442  0.5755 -0.2091
17351TIP3    H173544   2.888   1.010  33.151  0.5549  0.7116 -0.3817
17351TIP3    H273545   2.945   1.124  33.233  0.7572  1.8364 -2.0353
17352TIP3   OH273546   2.336   1.052  29.343  0.1132 -0.0625  0.2732
17352TIP3    H173547   2.310   1.135  29.384  2.1500  0.7467  0.0407
17352TIP3    H273548   2.428   1.042  29.367  0.4737 -1.1837 -1.4590
17353TIP3   OH273549   3.028   2.720   3.648 -0.1541  0.0068  0.3922
17353TIP3    H173550   3.056   2.810   3.665 -0.2848 -0.0495  0.9240
17353TIP3    H273551   3.091   2.666   3.695  0.4950 -0.2168 -0.7211
17354TIP3   OH273552   2.762   3.841   7.007  0.2314  0.5945 -0.0849
17354TIP3    H173553   2.757   3.884   7.092 -0.3017  1.0310 -0.3295
17354TIP3    H273554   2.752   3.748   7.026  0.6590  0.6395  0.3788
17355TIP3   OH273555   1.688   2.290  31.976 -0.6622 -0.2660  0.7413
17355TIP3    H173556   1.592   2.296  31.978 -0.6198  0.3547  2.3932
17355TIP3    H273557   1.711   2.251  32.060  0.6286  1.5095  1.2581
17356TIP3   OH273558   4.266   1.564  38.291  0.2449  0.6181  0.0423
17356TIP3    H173559   4.176   1.595  38.281  0.7459  2.1211  0.0122
17356TIP3    H273560   4.289   1.531  38.204 -0.3520  0.0012  0.1127
17357TIP3   OH273561   2.711   1.971  28.296 -0.3371 -0.0042 -0.3115
17357TIP3    H173562   2.616   1.961  28.299 -0.2276 -0.8489  0.7356
17357TIP3    H273563   2.736   1.994  28.385  0.5015 -0.2767 -0.4652
17358TIP3   OH273564   2.586   4.178   9.091 -0.3966  0.0498 -0.0023
17358TIP3    H173565   2.600   4.188   8.997  0.4815 -0.8493  0.0203
17358TIP3    H273566   2.559   4.087   9.102 -0.2726  0.0818  0.6338
17359TIP3   OH273567   3.971   4.386   5.039 -0.7584  0.4865 -0.1463
17359TIP3    H173568   3.924   4.418   4.961 -0.4572 -0.1038 -0.5784
17359TIP3    H273569   3.902   4.368   5.102 -1.3516 -2.0807 -1.3839
17360TIP3   OH273570   3.861   0.916  29.743  0.1286  0.8512  0.2700
17360TIP3    H173571   3.875   1.001  29.787  0.9515  1.2216 -0.6663
17360TIP3    H273572   3.884   0.932  29.652 -2.9335  0.4664 -0.6815
17361TIP3   OH273573   3.206   0.861  27.336 -0.1566  0.1122 -0.0237
17361TIP3    H173574   3.215   0.787  27.277 -0.8182  0.7070 -0.9049
17361TIP3    H273575   3.131   0.839  27.391  0.7122 -0.6235  0.8834
17362TIP3   OH273576   1.609   1.021  37.389  0.3984  0.3278 -0.2781
17362TIP3    H173577   1.701   1.021  37.359  0.0428  0.0462 -1.4404
17362TIP3    H273578   1.615   1.006  37.483  1.5093 -1.7408 -0.5950
17363TIP3   OH273579   0.881   1.323   3.440 -0.4746  0.5085  0.1276
17363TIP3    H173580   0.831   1.385   3.494 -0.8314 -1.6065  2.3850
17363TIP3    H273581   0.818   1.292   3.375 -1.5379 -0.4544  1.5479
17364TIP3   OH273582   2.347   0.921   5.674 -0.1281  0.2452  0.5523
17364TIP3    H173583   2.329   0.873   5.755  1.2647 -0.2504  0.5900
17364TIP3    H273584   2.434   0.956   5.686  0.2618 -0.1637 -0.8877
17365TIP3   OH273585   1.643   3.313  35.563  0.1503 -0.6241  0.0317
17365TIP3    H173586   1.557   3.277  35.544  0.1399 -1.4931  1.4959
17365TIP3    H273587   1.648   3.393  35.512 -0.7207 -1.5723 -1.6249
17366TIP3   OH273588   2.082   3.112   6.394 -0.8457 -0.1040  0.1504
17366TIP3    H173589   1.995   3.123   6.355 -0.9916 -1.1670  0.1505
17366TIP3    H273590   2.064   3.095   6.487 -0.5175  2.0184  0.6577
17367TIP3   OH273591   1.529   4.105  27.964  0.1586 -0.0769  0.3465
17367TIP3    H173592   1.563   4.063  27.885 -1.4762 -0.9010  0.0450
17367TIP3    H273593   1.586   4.075  28.034  0.2535 -1.1782 -0.1849
17368TIP3   OH273594   3.910   2.496  40.134  0.0978  0.1152 -0.1110
17368TIP3    H173595   3.886   2.501  40.041 -0.2448 -0.6254 -0.0731
17368TIP3    H273596   3.829   2.470  40.178  0.5205 -0.5963  0.2654
17369TIP3   OH273597   1.546   1.438   4.282  0.0716  0.1540 -0.2094
17369TIP3    H173598   1.518   1.446   4.191  1.1301 -1.1053 -0.6869
17369TIP3    H273599   1.633   1.397   4.277  0.2576  0.2857  1.3542
17370TIP3   OH273600   1.986   0.932  38.045 -0.7324 -0.4387 -0.4528
17370TIP3    H173601   1.979   0.843  38.010  3.2855 -1.6681  1.3109
17370TIP3    H273602   1.943   0.928  38.130  0.5831 -1.1005  0.1937
17371TIP3   OH273603   2.573   2.594   1.858  0.5827  0.3741  0.4990
17371TIP3    H173604   2.645   2.532   1.850  1.8226  1.7129  0.9148
17371TIP3    H273605   2.609   2.666   1.909 -0.3663  2.0888 -1.1270
17372TIP3   OH273606   3.843   1.098  35.709 -0.5056 -0.4645 -0.3566
17372TIP3    H173607   3.893   1.151  35.770  0.0553 -1.6167  0.2091
17372TIP3    H273608   3.848   1.009  35.743 -0.5924 -1.0649 -1.8038
17373TIP3   OH273609   4.102   0.664   4.935  0.2905 -0.4125 -0.0604
17373TIP3    H173610   4.025   0.649   4.990  0.3267 -0.3535  0.0067
17373TIP3    H273611   4.071   0.650   4.846 -0.0121  0.4657 -0.0951
17374TIP3   OH273612   1.498   0.844  14.616 -0.2018 -0.1832 -0.0959
17374TIP3    H173613   1.571   0.801  14.659  1.2378  1.0178 -1.2450
17374TIP3    H273614   1.462   0.903  14.683  2.4071  2.1492 -0.5543
17375TIP3   OH273615   1.652   0.469  41.439  0.1565  0.2940  0.4792
17375TIP3    H173616   1.630   0.489  41.348 -1.2992 -0.3885  0.6436
17375TIP3    H273617   1.645   0.553  41.484 -1.8556  0.2290  0.4182
17376TIP3   OH273618   1.782   1.213  40.778  0.1262 -0.2008  0.3993
17376TIP3    H173619   1.833   1.237  40.856  0.0932  0.0864  0.3328
17376TIP3    H273620   1.822   1.132  40.747 -0.3055 -0.7125  1.1321
17377TIP3   OH273621   2.048   0.780  31.992  0.1421 -0.3100  0.2842
17377TIP3    H173622   2.109   0.719  31.949  0.8967  1.3854 -1.1790
17377TIP3    H273623   1.988   0.807  31.922 -1.7102 -1.1547  1.4738
17378TIP3   OH273624   4.038   2.803  22.145  0.8297 -0.0845 -0.0319
17378TIP3    H173625   4.024   2.888  22.187  1.5455  0.1900 -0.3495
17378TIP3    H273626   4.100   2.820  22.075  0.7128 -0.8081 -0.3205
17379TIP3   OH273627   3.510   0.761  26.203  0.1789 -0.5851 -0.1863
17379TIP3    H173628   3.568   0.697  26.244  1.7089  0.7960 -0.0556
17379TIP3    H273629   3.448   0.709  26.152  0.0920 -2.2290  1.4725
17380TIP3   OH273630   0.121   3.552  23.005 -0.8825 -0.0813 -0.5816
17380TIP3    H173631   0.099   3.643  23.028 -0.6371 -0.0626 -0.4212
17380TIP3    H273632   0.216   3.553  22.992 -0.2996 -1.0054  2.7000
17381TIP3   OH273633   3.852   1.613  12.327  0.1573 -0.1795  0.0600
17381TIP3    H173634   3.769   1.569  12.311  0.2915 -0.5899  0.4762
17381TIP3    H273635   3.890   1.627  12.240 -0.8606  1.0356 -0.2227
17382TIP3   OH273636   1.434   0.648  38.002  0.3531  0.0243  0.1926
17382TIP3    H173637   1.359   0.590  37.986  1.1420 -1.5803  1.8676
17382TIP3    H273638   1.397   0.725  38.045 -0.3620 -0.8414  1.1959
17383TIP3   OH273639   2.122   0.188   5.833 -0.1998  0.0849  0.0169
17383TIP3    H173640   2.199   0.244   5.842 -0.3591  1.0795 -3.3274
17383TIP3    H273641   2.050   0.240   5.870  0.4536 -0.2056  1.7522
17384TIP3   OH273642   1.708   0.330   7.414 -0.2105 -1.2231 -0.2805
17384TIP3    H173643   1.693   0.367   7.501  0.2867 -1.3950 -0.1192
17384TIP3    H273644   1.624   0.341   7.369 -0.0714  0.1327 -0.2507
17385TIP3   OH273645   0.693   3.936   1.957  0.5508  0.0161 -0.6545
17385TIP3    H173646   0.786   3.928   1.981  0.8021  0.3156 -1.5006
17385TIP3    H273647   0.693   3.990   1.878 -0.3390 -0.1039 -0.7476
17386TIP3   OH273648   2.795   1.321   8.514  0.4943 -0.3176  0.1480
17386TIP3    H173649   2.827   1.367   8.436  0.6593 -0.2183  0.2740
17386TIP3    H273650   2.808   1.384   8.585  0.3956 -0.4307  0.2657
17387TIP3   OH273651   1.692   1.414  33.804  0.2195 -0.2119 -0.2942
17387TIP3    H173652   1.705   1.508  33.814 -0.1751 -0.4063  3.0941
17387TIP3    H273653   1.626   1.407  33.734 -0.5213  2.1034  0.0726
17388TIP3   OH273654   2.439   1.767   1.463  0.0567  0.6971  0.4945
17388TIP3    H173655   2.356   1.772   1.417  0.7377 -1.6049 -1.1603
17388TIP3    H273656   2.503   1.748   1.395  1.1636 -2.6931  2.2783
17389TIP3   OH273657   3.919   4.319  33.714 -0.4619 -0.4399  0.2256
17389TIP3    H173658   3.868   4.350  33.789 -1.7083 -0.8671 -0.4012
17389TIP3    H273659   3.852   4.297  33.648  0.6258  1.2016 -1.5155
17390TIP3   OH273660   3.682   3.002  24.346  0.1604  0.1394  0.3390
17390TIP3    H173661   3.677   3.096  24.330  1.3056 -0.1535 -2.3099
17390TIP3    H273662   3.655   2.962  24.264 -1.6533 -1.9342  1.8366
17391TIP3   OH273663   3.633   0.964  32.469  0.1920  0.3187  0.5599
17391TIP3    H173664   3.710   1.020  32.469  2.2290 -2.2687  1.7189
17391TIP3    H273665   3.625   0.934  32.560  0.4667 -2.7670 -0.2981
17392TIP3   OH273666   3.658   1.027  28.090  0.1697  0.3014  0.1270
17392TIP3    H173667   3.750   1.052  28.079 -0.0225 -0.0577 -2.9169
17392TIP3    H273668   3.614   1.061  28.013 -2.1639 -0.1748  1.1603
17393TIP3   OH273669   3.625   2.247  27.375 -0.9465 -0.0544 -0.3474
17393TIP3    H173670   3.606   2.231  27.467 -0.5803  1.1514 -0.0538
17393TIP3    H273671   3.637   2.341  27.368 -1.4795 -0.0566 -1.7295
17394TIP3   OH273672   3.712   0.223  30.830  0.1643  0.3138  0.0665
17394TIP3    H173673   3.661   0.185  30.759 -0.2135  2.0948 -0.6580
17394TIP3    H273674   3.651   0.229  30.903  0.1057 -0.0815  0.0489
17395TIP3   OH273675   1.900   1.191   3.255 -0.1193 -0.2341  0.1665
17395TIP3    H173676   1.864   1.209   3.342  0.5168 -0.7677  0.5451
17395TIP3    H273677   1.861   1.108   3.229 -0.3388 -0.0564 -0.0810
17396TIP3   OH273678   1.072   3.591   5.436  0.3775  0.6843  0.4720
17396TIP3    H173679   1.085   3.686   5.443  0.9439  0.8311 -1.8264
17396TIP3    H273680   0.988   3.575   5.481 -0.5095  2.5168 -0.4294
17397TIP3   OH273681   3.989   1.804  34.741 -0.2594  0.1313 -0.5539
17397TIP3    H173682   3.916   1.807  34.680  0.0317 -2.5639 -1.1337
17397TIP3    H273683   3.951   1.774  34.824  0.0180 -0.2639 -0.5679
17398TIP3   OH273684   2.687   1.908  37.420 -0.0725 -0.2883  0.3132
17398TIP3    H173685   2.598   1.878  37.403 -0.8592  2.2736 -0.4430
17398TIP3    H273686   2.677   1.990  37.468  1.8738  0.0751  0.2034
17399TIP3   OH273687   4.186   0.576  41.008 -0.8195  0.0117  0.3597
17399TIP3    H173688   4.200   0.483  41.027 -2.4168 -0.6243 -1.2207
17399TIP3    H273689   4.269   0.606  40.973 -0.1742 -0.7112  1.2062
17400TIP3   OH273690   1.237   3.778   6.520 -0.0877  0.2048 -0.4653
17400TIP3    H173691   1.314   3.782   6.464 -0.1084  0.0674 -0.5049
17400TIP3    H273692   1.249   3.848   6.584 -0.2854  0.6659 -0.9257
17401TIP3   OH273693   3.898   0.167  31.937 -0.4613  0.4368  0.2002
17401TIP3    H173694   3.954   0.137  31.865 -1.2876  0.1395 -0.3276
17401TIP3    H273695   3.931   0.121  32.014 -1.0947 -1.1229 -0.4278
17402TIP3   OH273696   1.704   2.233  12.217 -0.1438 -0.5113  0.1117
17402TIP3    H173697   1.714   2.232  12.312  0.1209  0.1646  0.0924
17402TIP3    H273698   1.793   2.239  12.183 -0.2544  4.4964 -0.0674
17403TIP3   OH273699   1.670   2.806  17.594  0.1128  0.2395  0.8271
17403TIP3    H173700   1.590   2.841  17.554  2.3120  3.8965 -0.8514
17403TIP3    H273701   1.692   2.729  17.540 -1.1728  0.3812  0.0516
17404TIP3   OH273702   1.036   2.494   5.503 -0.6917  0.1029 -0.1619
17404TIP3    H173703   1.121   2.462   5.472 -0.7838  0.2986 -0.6168
17404TIP3    H273704   1.005   2.425   5.562  0.1850  0.4355  0.7147
17405TIP3   OH273705   0.438   3.686  35.920  0.3025 -0.0721  0.2947
17405TIP3    H173706   0.409   3.603  35.881  1.9787 -0.8256  0.5601
17405TIP3    H273707   0.489   3.728  35.851 -0.4020  0.6820  0.2180
17406TIP3   OH273708   2.920   1.266   0.541 -0.4270  0.5781  0.2377
17406TIP3    H173709   2.997   1.322   0.533 -0.7527  0.8179 -1.5739
17406TIP3    H273710   2.853   1.321   0.581  0.1544  0.5308  1.3079
17407TIP3   OH273711   1.348   2.978  38.257  0.0755 -0.1116  0.0957
17407TIP3    H173712   1.351   2.887  38.288 -1.8152 -0.4917 -0.6678
17407TIP3    H273713   1.265   3.011  38.290  0.9969  1.5729  0.8442
17408TIP3   OH273714   0.421   3.926   9.812 -0.5746 -1.0943  0.7554
17408TIP3    H173715   0.345   3.886   9.855 -3.1517  2.3907 -0.1358
17408TIP3    H273716   0.458   3.984   9.879 -0.1464 -1.0074  0.4472
17409TIP3   OH273717   0.729   3.409  37.351 -0.3453  0.2327 -0.4459
17409TIP3    H173718   0.726   3.495  37.308  0.0363 -0.0368 -1.0172
17409TIP3    H273719   0.812   3.371  37.323 -1.2861 -1.0511 -1.6218
17410TIP3   OH273720   1.483   4.360  10.422 -0.1920  0.2970  0.2195
17410TIP3    H173721   1.499   4.354  10.516  2.4369 -0.4002 -0.1907
17410TIP3    H273722   1.484   4.454  10.403  1.0985  0.3932  0.6582
17411TIP3   OH273723   1.255   4.221  30.139 -0.4416  0.1891 -0.1347
17411TIP3    H173724   1.281   4.294  30.082  0.1171 -0.6110 -0.9415
17411TIP3    H273725   1.197   4.260  30.204  0.1958  1.4322 -0.2865
17412TIP3   OH273726   4.308   1.497  37.259 -0.0352  0.5069 -0.4536
17412TIP3    H173727   4.237   1.557  37.238 -1.0105 -0.4181  0.1226
17412TIP3    H273728   4.319   1.444  37.180 -0.0046  0.6390 -0.5369
17413TIP3   OH273729   2.373   0.903   1.007 -0.3676 -0.1242 -0.6441
17413TIP3    H173730   2.377   0.870   0.917  0.0412  0.4325 -0.8298
17413TIP3    H273731   2.301   0.966   1.006  0.6618  1.0729 -0.9792
17414TIP3   OH273732   1.413   2.999  18.338  0.5660  0.1158  0.2035
17414TIP3    H173733   1.398   3.017  18.246  0.0528  1.0521  0.4508
17414TIP3    H273734   1.385   3.080  18.383 -0.9414 -0.9531  1.3096
17415TIP3   OH273735   0.537   0.895  34.058 -0.0249 -0.1396 -0.1475
17415TIP3    H173736   0.624   0.925  34.082 -1.9183  3.2644  3.5048
17415TIP3    H273737   0.509   0.840  34.132 -0.7599 -1.9536 -1.6839
17416TIP3   OH273738   2.352   2.496  12.685  0.4710  0.0889  0.0132
17416TIP3    H173739   2.352   2.498  12.781 -0.4581  0.5805  0.0170
17416TIP3    H273740   2.266   2.529  12.661  0.1082 -1.4938 -0.9724
17417TIP3   OH273741   3.852   2.017  39.552  0.4148  0.0969 -0.0667
17417TIP3    H173742   3.871   2.077  39.625 -2.5174  0.7204  0.3292
17417TIP3    H273743   3.768   1.978  39.575  0.0760 -0.7584 -2.4778
17418TIP3   OH273744   3.834   3.432   7.714 -0.1736 -0.2743  0.0538
17418TIP3    H173745   3.891   3.499   7.676  0.8533 -1.2872 -0.2351
17418TIP3    H273746   3.752   3.479   7.733  0.1847  0.8465 -1.0158
17419TIP3   OH273747   0.095   3.437  26.860 -0.3621  0.4708 -0.3256
17419TIP3    H173748   0.010   3.394  26.870  0.2214 -1.0529 -1.5036
17419TIP3    H273749   0.119   3.464  26.949 -1.3969 -0.4077  0.2476
17420TIP3   OH273750   3.029   0.701   7.351  0.3232 -0.0931 -0.3786
17420TIP3    H173751   3.043   0.634   7.284 -2.5491 -0.8702 -0.3628
17420TIP3    H273752   2.933   0.707   7.357  0.5152  1.3159  2.3267
17421TIP3   OH273753   0.176   1.947   2.811  0.0186  0.2611  0.1911
17421TIP3    H173754   0.222   1.898   2.880 -1.4426 -0.3059  0.7848
17421TIP3    H273755   0.195   1.898   2.730  3.5293  2.0995 -0.2926
17422TIP3   OH273756   1.070   3.704  36.239 -0.7528 -0.1443  0.2808
17422TIP3    H173757   1.050   3.680  36.329  1.2008 -0.2233  0.7452
17422TIP3    H273758   1.046   3.797  36.233 -2.1899 -0.4773  0.4292
17423TIP3   OH273759   1.814   4.272   1.841  0.1434 -0.2695  0.1317
17423TIP3    H173760   1.808   4.177   1.853 -1.3675 -0.4066 -1.3489
17423TIP3    H273761   1.864   4.283   1.760 -0.7423  0.1211 -0.3835
17424TIP3   OH273762   3.724   0.219  12.488  0.0023 -0.5647  0.0758
17424TIP3    H173763   3.774   0.176  12.419  1.6359  2.0937 -0.5369
17424TIP3    H273764   3.727   0.158  12.562  1.7477 -1.6915 -0.8740
17425TIP3   OH273765   4.166   0.703  24.740  0.2572  0.0842  0.1709
17425TIP3    H173766   4.252   0.680  24.774  1.1530  1.4866 -1.0694
17425TIP3    H273767   4.156   0.650  24.661  0.1484  0.2260  0.0895
17426TIP3   OH273768   3.451   2.618  39.323 -0.1798  0.1440  0.1996
17426TIP3    H173769   3.363   2.654  39.321 -0.5876 -0.6947  1.4578
17426TIP3    H273770   3.484   2.640  39.411  0.2886 -0.8003  0.2767
17427TIP3   OH273771   0.932   0.307  26.597  0.5324 -0.6261  0.6062
17427TIP3    H173772   0.963   0.219  26.617  2.4241 -0.0767  0.2879
17427TIP3    H273773   0.872   0.296  26.523  0.0933 -1.7229  1.1152
17428TIP3   OH273774   0.681   3.618  10.160  0.4263  0.0244  0.6534
17428TIP3    H173775   0.644   3.706  10.165 -0.4438 -0.1989 -1.1058
17428TIP3    H273776   0.751   3.617  10.226  1.1776  2.3858 -0.0108
17429TIP3   OH273777   2.082   1.963  31.939 -0.0578  0.0480 -0.3566
17429TIP3    H173778   2.147   2.011  31.991 -0.1261 -1.1248  0.8938
17429TIP3    H273779   2.004   1.960  31.995  0.1146 -1.9218 -0.1269
17430TIP3   OH273780   0.911   1.923  35.176 -0.3701 -0.1840  0.1049
17430TIP3    H173781   0.989   1.900  35.227 -1.0522  0.6997  1.6243
17430TIP3    H273782   0.906   1.856  35.108 -0.3838 -2.5236  2.2719
17431TIP3   OH273783   2.881   2.060  28.119  0.0975 -0.0718  0.0352
17431TIP3    H173784   2.921   2.118  28.183 -0.4998  1.0165 -0.5497
17431TIP3    H273785   2.803   2.025  28.163 -1.3618  2.1171 -0.6627
17432TIP3   OH273786   2.780   0.202   9.114 -0.5806 -0.1820 -0.0974
17432TIP3    H173787   2.817   0.287   9.137 -0.6033  0.3722 -1.8962
17432TIP3    H273788   2.843   0.138   9.146 -0.4711  0.5144  1.1121
17433TIP3   OH273789   3.091   1.361  41.231  0.0921 -0.4163  0.2953
17433TIP3    H173790   3.178   1.340  41.265 -0.8307 -2.4201  1.5842
17433TIP3    H273791   3.033   1.351  41.306 -1.3777  0.0757 -0.7274
17434TIP3   OH273792   0.459   0.653  30.691 -0.3523 -0.5719 -0.2395
17434TIP3    H173793   0.452   0.561  30.716 -0.4817  0.1537  2.7992
17434TIP3    H273794   0.376   0.671  30.646 -0.3523 -1.9072 -0.8285
17435TIP3   OH273795   2.116   2.050  40.158 -0.1737  0.4995 -0.1351
17435TIP3    H173796   2.052   2.114  40.191 -0.9573 -0.3006 -0.0414
17435TIP3    H273797   2.130   2.076  40.067  1.3673  2.2242  0.5319
17436TIP3   OH273798   4.149   2.626  30.575 -0.2571  0.7995 -0.3218
17436TIP3    H173799   4.184   2.647  30.488 -0.3856  1.7085 -0.1650
17436TIP3    H273800   4.059   2.599  30.558 -0.3245  1.1043 -0.4595
17437TIP3   OH273801   1.091   1.292   9.402 -0.3185  0.0488 -0.3413
17437TIP3    H173802   1.007   1.286   9.447 -0.1266  1.7936  0.3460
17437TIP3    H273803   1.088   1.376   9.357  0.6564 -0.3522 -1.1948
17438TIP3   OH273804   2.769   2.888   2.385 -0.3330 -0.3433 -0.0655
17438TIP3    H173805   2.855   2.913   2.351 -0.5080 -0.0598 -0.3131
17438TIP3    H273806   2.774   2.907   2.479  0.5663 -2.2799  0.3360
17439TIP3   OH273807   2.623   0.247   5.450 -0.4691 -0.2604  0.2383
17439TIP3    H173808   2.534   0.231   5.483 -0.4823 -0.2384  0.2137
17439TIP3    H273809   2.678   0.246   5.528 -0.4505 -0.5636  0.2246
17440TIP3   OH273810   2.693   3.034  40.564  0.4635 -0.0681  0.0778
17440TIP3    H173811   2.734   3.038  40.478  0.0399 -0.3367 -0.1396
17440TIP3    H273812   2.646   2.951  40.565 -0.8552  0.6437 -0.0442
17441TIP3   OH273813   1.591   0.656  16.792 -0.1656 -0.2438 -0.3415
17441TIP3    H173814   1.500   0.685  16.791  0.3278  1.4506 -1.4242
17441TIP3    H273815   1.587   0.562  16.779 -1.7468 -0.0478 -1.4911
17442TIP3   OH273816   1.434   0.212  11.280 -1.0307  0.2294 -0.5523
17442TIP3    H173817   1.393   0.126  11.272  1.5785 -1.1267 -0.4896
17442TIP3    H273818   1.422   0.252  11.194 -1.1835 -0.7260 -0.9942
17443TIP3   OH273819   2.520   2.108  30.597 -0.0586 -0.0359 -0.3766
17443TIP3    H173820   2.520   2.185  30.540  1.0707  0.8236  0.7325
17443TIP3    H273821   2.433   2.108  30.638  0.2097  1.1307  0.2182
17444TIP3   OH273822   3.943   0.422   2.828 -0.4231  0.2722 -0.4281
17444TIP3    H173823   3.876   0.485   2.802  0.5082  1.9774  1.0961
17444TIP3    H273824   3.895   0.342   2.849 -1.9824  1.4442  0.6392
17445TIP3   OH273825   2.698   3.876   0.097  0.1202 -0.2605 -0.3176
17445TIP3    H173826   2.665   3.805   0.151 -1.8056  0.7314 -0.1147
17445TIP3    H273827   2.763   3.920   0.151  0.0131 -0.7735  0.2326
17446TIP3   OH273828   1.979   4.222  18.614 -0.3745 -0.3485 -0.0983
17446TIP3    H173829   2.038   4.204  18.687 -2.1737  0.2708  1.5665
17446TIP3    H273830   1.891   4.214  18.651 -1.3305  1.1342 -1.9040
17447TIP3   OH273831   4.256   0.306  27.756 -0.2802 -0.3322  0.2436
17447TIP3    H173832   4.206   0.312  27.837 -0.4102 -2.3492  0.3419
17447TIP3    H273833   4.341   0.270  27.782 -0.3029 -0.9445 -0.4918
17448TIP3   OH273834   0.869   0.072  31.382  0.5422 -0.1517  0.0749
17448TIP3    H173835   0.950   0.025  31.403  0.7125  0.3035  0.4521
17448TIP3    H273836   0.864   0.142  31.447 -0.7673 -0.8872  0.8197
17449TIP3   OH273837   0.434   1.044  28.594  0.5228  0.1018  0.0094
17449TIP3    H173838   0.429   0.948  28.596 -0.0209  0.1350  1.4970
17449TIP3    H273839   0.343   1.073  28.597  0.5920  0.6968 -2.1083
17450TIP3   OH273840   2.457   3.343   0.122 -0.6557  1.0072 -0.5734
17450TIP3    H173841   2.474   3.363   0.214 -2.1174  1.3216 -0.3363
17450TIP3    H273842   2.449   3.429   0.080  1.5123  0.8905 -1.3494
17451TIP3   OH273843   3.014   2.414   4.184  0.6031 -0.5057  0.3088
17451TIP3    H173844   3.002   2.321   4.203 -0.4394 -0.1153  1.7586
17451TIP3    H273845   3.107   2.430   4.196  1.2873 -1.8332 -2.4439
17452TIP3   OH273846   1.534   3.809  32.718 -0.2825 -0.0395 -0.1178
17452TIP3    H173847   1.624   3.840  32.722  0.0341 -0.9770  0.0242
17452TIP3    H273848   1.519   3.788  32.626 -1.5655  3.5906 -0.9176
17453TIP3   OH273849   3.213   0.696  35.244  0.6166 -0.4187 -0.4349
17453TIP3    H173850   3.265   0.761  35.290  3.7978 -2.1869 -1.2345
17453TIP3    H273851   3.217   0.618  35.300 -1.4414 -0.6035 -0.4445
17454TIP3   OH273852   1.826   2.023   9.868  0.6883 -0.7003 -0.5011
17454TIP3    H173853   1.787   2.092   9.814  1.3485 -0.4100 -0.6226
17454TIP3    H273854   1.861   2.069   9.945 -0.5459 -1.1517  0.3614
17455TIP3   OH273855   4.291   3.563  41.272 -0.2989 -0.4011  0.1547
17455TIP3    H173856   4.352   3.633  41.293 -1.4253  0.8394 -0.5029
17455TIP3    H273857   4.299   3.552  41.177 -1.3291  0.0373  0.0025
17456TIP3   OH273858   2.393   3.823  12.997 -0.0510  0.2305  0.4434
17456TIP3    H173859   2.380   3.864  13.083 -1.3260  0.6486  0.0689
17456TIP3    H273860   2.378   3.730  13.013  0.4077  0.2114  0.8006
17457TIP3   OH273861   1.409   1.299  29.588  0.4578  1.2012 -0.1562
17457TIP3    H173862   1.314   1.311  29.594  0.4911  0.7025  2.1492
17457TIP3    H273863   1.426   1.220  29.638  2.1611  1.5524 -0.1423
17458TIP3   OH273864   0.965   3.726  39.013  0.2639  0.1483  0.0415
17458TIP3    H173865   0.905   3.701  38.943  1.5027 -0.1750 -0.9453
17458TIP3    H273866   1.049   3.689  38.987  0.6345 -0.5798  2.0561
17459TIP3   OH273867   0.992   1.379  29.397  0.1190  0.5000 -0.1752
17459TIP3    H173868   0.936   1.336  29.462 -1.4753 -0.0287 -1.8062
17459TIP3    H273869   0.931   1.426  29.341  1.5026  1.4260 -0.9468
17460TIP3   OH273870   3.432   3.643  32.484  0.1715 -0.0731 -0.1834
17460TIP3    H173871   3.357   3.630  32.542 -0.6523  0.1769 -1.1382
17460TIP3    H273872   3.457   3.555  32.457  1.7865 -0.3386  1.9823
17461TIP3   OH273873   1.330   0.049  39.774  0.2634  0.3350  0.3243
17461TIP3    H173874   1.367  -0.039  39.765  0.2550  0.3870 -0.2631
17461TIP3    H273875   1.241   0.041  39.742  0.3053  0.5892  0.1384
17462TIP3   OH273876   1.867   0.449   5.773  0.0412  0.0930 -0.4288
17462TIP3    H173877   1.791   0.446   5.715 -0.7306  0.0221  0.5649
17462TIP3    H273878   1.930   0.389   5.734 -1.2240 -1.4778 -0.1628
17463TIP3   OH273879   4.014   0.501   5.759 -0.2656  0.1195 -0.0008
17463TIP3    H173880   4.024   0.465   5.848 -0.4946 -0.5326 -0.2331
17463TIP3    H273881   3.942   0.451   5.722 -0.1324  0.3559 -0.5758
17464TIP3   OH273882   3.251   4.323  31.158  1.0153  0.2063 -0.2938
17464TIP3    H173883   3.265   4.396  31.217 -0.2896  0.5877 -0.4130
17464TIP3    H273884   3.182   4.353  31.098 -2.1455 -2.2324  1.7856
17465TIP3   OH273885   3.062   3.760  27.773  0.5171  0.2705  0.3300
17465TIP3    H173886   3.143   3.811  27.776  0.7543  0.0128 -1.1483
17465TIP3    H273887   3.081   3.688  27.713 -1.0827  0.6950 -0.7543
17466TIP3   OH273888   3.325   0.639  37.533 -0.1859  0.2343 -0.0959
17466TIP3    H173889   3.331   0.614  37.625  0.6740  0.2429 -0.1406
17466TIP3    H273890   3.254   0.703  37.530  0.6715  1.2565  0.7933
17467TIP3   OH273891   1.806   0.222   0.260  0.1273  0.4617  0.3007
17467TIP3    H173892   1.713   0.243   0.255  0.0583  0.0069 -0.6279
17467TIP3    H273893   1.820   0.197   0.351 -0.6604  0.5317  0.4524
17468TIP3   OH273894   2.824   2.955   4.317 -0.0527 -0.3362 -0.2485
17468TIP3    H173895   2.816   2.988   4.228 -0.0426  0.3561  0.0018
17468TIP3    H273896   2.876   2.874   4.308  1.6588  0.7567 -0.6540
17469TIP3   OH273897   1.254   1.845  30.037 -0.2230 -0.2549  0.3527
17469TIP3    H173898   1.229   1.937  30.028  1.1724  0.0097 -1.1298
17469TIP3    H273899   1.190   1.798  29.983  1.2363  0.2496 -1.9493
17470TIP3   OH273900   0.168   3.830   9.644 -0.4623 -0.3090 -0.0596
17470TIP3    H173901   0.240   3.781   9.684 -1.3563 -0.9549  0.8185
17470TIP3    H273902   0.147   3.781   9.565 -0.5286 -0.6307  0.1560
17471TIP3   OH273903   2.908   1.438  28.233 -0.1597 -0.0675  0.2685
17471TIP3    H173904   2.949   1.512  28.188 -1.4660  0.8444  0.5051
17471TIP3    H273905   2.863   1.389  28.165 -1.8695  1.1316  0.4856
17472TIP3   OH273906   2.793   1.493  33.836  0.2219 -0.4260 -0.2511
17472TIP3    H173907   2.872   1.525  33.791  0.8714 -1.9832 -0.2812
17472TIP3    H273908   2.817   1.492  33.928  0.6939 -2.0155 -0.3604
17473TIP3   OH273909   3.472   3.808   3.047  0.9288  0.0382 -0.2072
17473TIP3    H173910   3.481   3.883   3.105 -0.8182  0.8022 -0.8492
17473TIP3    H273911   3.556   3.801   3.003  1.3838  1.1104  0.4731
17474TIP3   OH273912   3.599   2.712  32.968 -0.4613 -0.1862 -0.0011
17474TIP3    H173913   3.609   2.643  33.034 -1.9672 -0.1094  0.3339
17474TIP3    H273914   3.505   2.725  32.960 -0.2585  0.7861 -1.1695
17475TIP3   OH273915   1.266   2.867  33.487 -0.2934  0.1013  0.5740
17475TIP3    H173916   1.273   2.790  33.431  0.1070  0.2417  0.4187
17475TIP3    H273917   1.340   2.859  33.548 -0.6118  0.0500  0.9553
17476TIP3   OH273918   3.486   0.814   9.186 -0.2360 -0.4684  0.2871
17476TIP3    H173919   3.529   0.762   9.118 -0.5387 -1.1596  0.6145
17476TIP3    H273920   3.500   0.905   9.160  0.2924 -0.7159 -0.2993
17477TIP3   OH273921   1.707   1.655   6.017 -0.0228 -0.3345 -0.3754
17477TIP3    H173922   1.797   1.672   5.990 -0.2631  0.5445 -0.6324
17477TIP3    H273923   1.686   1.570   5.976  1.2944 -1.4948  1.2212
17478TIP3   OH273924   2.343   2.365  40.512 -0.6483 -0.0936 -0.5854
17478TIP3    H173925   2.252   2.336  40.501  0.2476 -2.2765 -3.4654
17478TIP3    H273926   2.380   2.302  40.573 -1.2232  1.4070  1.4119
17479TIP3   OH273927   3.980   2.831  33.039  0.2076 -0.4865 -0.1912
17479TIP3    H173928   4.064   2.808  33.080  0.2891 -0.6484 -0.4476
17479TIP3    H273929   3.938   2.747  33.022  0.1937 -0.4196 -0.4818
17480TIP3   OH273930   1.149   0.065  41.084 -0.1262  0.0099 -0.2539
17480TIP3    H173931   1.232   0.099  41.118  0.0346 -0.3746 -0.2601
17480TIP3    H273932   1.082   0.111  41.135  0.1085 -0.9619  1.0116
17481TIP3   OH273933   4.083   0.237   6.823 -0.2815  0.5140  0.0372
17481TIP3    H173934   4.110   0.151   6.790 -0.2564  0.9909 -1.2182
17481TIP3    H273935   3.994   0.224   6.855 -0.8138  0.3244 -1.4558
17482TIP3   OH273936   1.100   0.654  33.470  0.0885 -0.2166  0.3554
17482TIP3    H173937   1.051   0.685  33.394  0.8334 -1.0926 -0.5132
17482TIP3    H273938   1.101   0.728  33.530 -0.4654  0.5231 -0.5181
17483TIP3   OH273939   1.717   3.360  35.260 -0.6207  0.2277  0.1246
17483TIP3    H173940   1.697   3.270  35.288 -0.3728  0.2232  0.2909
17483TIP3    H273941   1.676   3.416  35.326  0.6622  0.2037  0.9837
17484TIP3   OH273942   4.081   1.433  26.239 -0.5501  0.3092  0.1551
17484TIP3    H173943   4.034   1.350  26.245  0.3576 -0.2438 -0.2081
17484TIP3    H273944   4.014   1.497  26.216 -1.0482 -0.5426 -0.8405
17485TIP3   OH273945   1.072   1.788   1.290  0.1033  0.1876 -0.3644
17485TIP3    H173946   1.118   1.719   1.339 -0.1937  0.2328 -0.0224
17485TIP3    H273947   1.138   1.821   1.229  0.4991  0.1812  0.0546
17486TIP3   OH273948   0.061   3.468  36.894  0.1423 -0.5975 -0.1915
17486TIP3    H173949   0.133   3.477  36.831 -1.0870  2.1618 -1.3750
17486TIP3    H273950   0.087   3.395  36.949  2.8378 -1.0751 -1.8767
17487TIP3   OH273951   1.324   0.032   9.940  0.3077  0.4856 -0.3849
17487TIP3    H173952   1.370  -0.010  10.013  0.2669  0.5769 -0.3055
17487TIP3    H273953   1.246   0.071   9.981  0.4933  0.8829 -0.4084
17488TIP3   OH273954   3.847   1.497  37.160 -0.0752 -0.2078 -0.8125
17488TIP3    H173955   3.874   1.492  37.069 -2.0568  0.4803 -1.4920
17488TIP3    H273956   3.801   1.580  37.167 -0.8784 -0.7239  0.5308
17489TIP3   OH273957   2.481   3.196  35.179  0.0173 -0.1390 -0.2775
17489TIP3    H173958   2.568   3.226  35.154 -0.0969 -0.2863 -0.8694
17489TIP3    H273959   2.421   3.256  35.135 -0.1893  1.3258  1.8274
17490TIP3   OH273960   2.965   1.070  37.499 -0.4020 -1.1056 -0.5218
17490TIP3    H173961   2.879   1.061  37.541  0.0178  1.0742  0.9627
17490TIP3    H273962   2.960   1.153  37.452  0.7409 -1.1967 -0.8236
17491TIP3   OH273963   4.404   2.876  10.662 -0.3094 -0.7095  0.3111
17491TIP3    H173964   4.496   2.863  10.639 -0.1525  0.7208  0.0157
17491TIP3    H273965   4.400   2.966  10.694 -1.4945 -0.9724  0.9531
17492TIP3   OH273966   2.854   4.227  41.231  0.1767  0.2354 -0.4450
17492TIP3    H173967   2.765   4.261  41.236  0.0507 -0.1025 -0.3928
17492TIP3    H273968   2.905   4.299  41.193 -0.0696  0.5201 -0.2454
17493TIP3   OH273969   0.413   3.959  33.828  0.5105 -0.0728 -0.0327
17493TIP3    H173970   0.507   3.940  33.835  0.3615 -0.8150  0.0202
17493TIP3    H273971   0.372   3.895  33.886 -0.2036 -1.3530 -1.8492
17494TIP3   OH273972   0.475   3.465  13.189  0.5570  0.1933 -0.1579
17494TIP3    H173973   0.507   3.421  13.110  0.9688 -0.6468  0.4573
17494TIP3    H273974   0.393   3.420  13.210  0.9153 -0.2130  0.4036
17495TIP3   OH273975   1.659   3.017  18.237 -0.0486  0.3756  0.4389
17495TIP3    H173976   1.590   3.020  18.303 -0.2848  1.0567  0.1746
17495TIP3    H273977   1.709   2.938  18.258 -1.1477 -0.3598  0.3942
17496TIP3   OH273978   1.060   2.974  11.994  0.1043 -0.4256 -0.5975
17496TIP3    H173979   1.063   3.018  12.078 -2.5692  0.8852 -1.0855
17496TIP3    H273980   1.150   2.944  11.979  0.8232  0.0446  2.2842
17497TIP3   OH273981   3.737   0.574   7.531  0.1584 -0.0122  0.1799
17497TIP3    H173982   3.647   0.605   7.541  0.2901  0.3098  0.3918
17497TIP3    H273983   3.758   0.533   7.615  0.8203  1.5244  0.8107
17498TIP3   OH273984   4.362   0.487  37.884 -0.3850 -0.4883  0.7035
17498TIP3    H173985   4.374   0.554  37.817  0.6143  0.2261  1.5786
17498TIP3    H273986   4.301   0.526  37.946  0.2553 -0.3606  1.2529
17499TIP3   OH273987   0.916   0.065   3.703 -0.3157  0.5655 -0.2503
17499TIP3    H173988   0.916   0.056   3.798  0.6750  0.9026 -0.2067
17499TIP3    H273989   0.917  -0.025   3.671 -2.3701  0.3994  0.0119
17500TIP3   OH273990   1.531   3.361  39.993  0.0670  0.2702 -0.2325
17500TIP3    H173991   1.612   3.329  40.032  0.0174  2.1653  1.6357
17500TIP3    H273992   1.559   3.405  39.913  0.5288 -1.2633 -0.9548
17501TIP3   OH273993   1.499   0.259  15.408 -0.3670 -0.0504  0.1185
17501TIP3    H173994   1.563   0.205  15.455  1.1766  0.5921 -1.1477
17501TIP3    H273995   1.420   0.205  15.406  0.6123 -1.5583  0.3526
17502TIP3   OH273996   1.246   2.635  36.020 -0.0915  0.0825 -0.3315
17502TIP3    H173997   1.225   2.559  36.076  0.0873  1.0266  1.0756
17502TIP3    H273998   1.262   2.706  36.082  3.3685  0.4332 -1.4263
17503TIP3   OH273999   3.737   4.293  39.325 -0.1689  0.3527 -0.2357
17503TIP3    H174000   3.770   4.309  39.236 -1.3834  0.3312 -0.7164
17503TIP3    H274001   3.668   4.358  39.337 -1.4357 -0.9518 -0.1340
17504TIP3   OH274002   4.036   0.379  36.779 -0.0110  0.2121 -0.9539
17504TIP3    H174003   4.045   0.284  36.776  0.5945  0.1743  0.7405
17504TIP3    H274004   4.007   0.398  36.868 -2.0314  1.5072 -1.8054
17505TIP3   OH274005   0.758   4.345  33.388  0.7647  0.0575 -0.2842
17505TIP3    H174006   0.840   4.394  33.379  0.4691  0.5082 -0.5438
17505TIP3    H274007   0.746   4.302  33.303  0.1435  0.9273 -0.6532
17506TIP3   OH274008   1.609   2.506   1.075 -0.6028  0.1613 -0.1540
17506TIP3    H174009   1.561   2.569   1.128 -0.8237 -1.0662  1.1814
17506TIP3    H274010   1.595   2.422   1.120  3.1996 -0.2287  0.6397
17507TIP3   OH274011   2.980   0.228  26.872 -0.2344 -0.4073 -0.4106
17507TIP3    H174012   2.959   0.143  26.833  2.8083 -1.5067  0.0795
17507TIP3    H274013   2.982   0.211  26.966  0.0296  0.3232 -0.2802
17508TIP3   OH274014   0.001   1.429   7.125 -0.0307 -0.0247  0.0842
17508TIP3    H174015  -0.038   1.387   7.048 -0.3263  0.1288  0.1505
17508TIP3    H274016  -0.021   1.522   7.117 -0.1555 -0.0235  0.4102
17509TIP3   OH274017   1.498   3.452  10.280  0.2856 -0.1001 -0.2118
17509TIP3    H174018   1.573   3.399  10.254  1.3645  1.5082 -0.5080
17509TIP3    H274019   1.491   3.519  10.212 -1.0873  0.1298  0.1124
17510TIP3   OH274020   0.568   2.842  35.128  0.3321 -0.3536  0.3303
17510TIP3    H174021   0.501   2.887  35.077  0.8955  0.6884  0.5029
17510TIP3    H274022   0.520   2.774  35.175 -0.5005 -0.0353 -0.0405
17511TIP3   OH274023   2.348   2.459  34.117  0.0651  0.1929 -0.2807
17511TIP3    H174024   2.271   2.502  34.082  0.0223  0.3073 -0.0530
17511TIP3    H274025   2.328   2.445  34.210 -0.3200 -1.2233 -0.5558
17512TIP3   OH274026   1.482   0.045   4.115  0.5182 -0.1950  0.1111
17512TIP3    H174027   1.424   0.026   4.041  2.6080  1.7800 -2.2148
17512TIP3    H274028   1.512  -0.041   4.144 -2.9373 -1.2611  1.0517
17513TIP3   OH274029   3.330   0.659   1.077 -0.2124  0.3474  0.0374
17513TIP3    H174030   3.306   0.745   1.041 -0.1164  0.6050  0.5772
17513TIP3    H274031   3.406   0.632   1.025 -1.0391 -0.0303 -1.0246
17514TIP3   OH274032   2.881   2.020  30.706 -0.2074 -0.6566  0.3404
17514TIP3    H174033   2.851   2.033  30.616 -0.9819  0.1704  0.7067
17514TIP3    H274034   2.977   2.016  30.699 -0.0859  1.8029 -0.2784
17515TIP3   OH274035   4.162   2.915  28.703  0.4103  0.3218 -0.5798
17515TIP3    H174036   4.130   2.827  28.724  0.5391  0.4014 -0.0131
17515TIP3    H274037   4.202   2.945  28.785 -0.1603  1.1411 -0.5907
17516TIP3   OH274038   3.988   1.987  34.199 -0.4499 -0.1802 -0.3067
17516TIP3    H174039   4.026   1.978  34.112 -0.5427 -0.0910 -0.3577
17516TIP3    H274040   3.897   2.011  34.182 -0.0967  1.3762 -0.1944
17517TIP3   OH274041   2.281   3.641  30.332  0.0457 -0.3076 -0.6742
17517TIP3    H174042   2.336   3.712  30.298  0.8423 -1.3093 -1.5415
17517TIP3    H274043   2.212   3.686  30.381  0.6381  1.0541 -1.0348
17518TIP3   OH274044   2.322   3.239  10.782 -0.5443  0.2607  0.3083
17518TIP3    H174045   2.229   3.223  10.797 -0.5156  0.7780  1.1191
17518TIP3    H274046   2.326   3.329  10.751 -0.2897  0.3641  0.6301
17519TIP3   OH274047   4.280   4.310   8.202  0.8562 -0.2907  0.0759
17519TIP3    H174048   4.243   4.300   8.114  0.1126 -0.8118  0.4354
17519TIP3    H274049   4.242   4.392   8.234 -0.8325 -1.3207  0.8241
17520TIP3   OH274050   0.734   0.051  36.070 -0.7537 -0.1139  0.7532
17520TIP3    H174051   0.795   0.099  36.126 -0.8798  1.4468 -0.3616
17520TIP3    H274052   0.707  -0.024  36.123  0.1991  0.5191  2.2250
17521TIP3   OH274053   4.371   0.018   6.962  0.5024 -0.2839  0.5267
17521TIP3    H174054   4.309   0.012   6.889 -0.0683  0.9651  0.8647
17521TIP3    H274055   4.343  -0.050   7.024  1.4731 -1.8790 -0.7262
17522TIP3   OH274056   1.816   4.056  30.850  0.1567  0.3028 -0.6046
17522TIP3    H174057   1.909   4.033  30.844  0.1399 -0.1147  0.4346
17522TIP3    H274058   1.817   4.146  30.884  0.1895  0.2581 -0.4830
17523TIP3   OH274059   0.906   2.842  16.600 -0.0201 -0.5637  0.2639
17523TIP3    H174060   0.978   2.791  16.563 -1.2711 -3.1010  1.0582
17523TIP3    H274061   0.842   2.849  16.529  0.1267 -0.1624  0.1736
17524TIP3   OH274062   3.222   1.714  26.769  0.0790 -0.1470  1.1189
17524TIP3    H174063   3.186   1.627  26.786 -0.3285  0.0207  1.1302
17524TIP3    H274064   3.309   1.698  26.734  0.3024 -0.5366  1.8505
17525TIP3   OH274065   0.169   0.731   4.151  1.1095  0.1743 -0.1735
17525TIP3    H174066   0.189   0.637   4.147  0.1068 -0.0572 -0.1614
17525TIP3    H274067   0.108   0.739   4.224 -1.2005  0.3401 -1.9829
17526TIP3   OH274068   2.160   1.228  13.619  0.4626 -0.1479 -0.5437
17526TIP3    H174069   2.109   1.147  13.607 -0.5083  0.4151 -0.3202
17526TIP3    H274070   2.251   1.201  13.608  0.2605 -1.5469  0.9369
17527TIP3   OH274071   0.744   4.217   2.277  0.0467 -0.5393  0.1012
17527TIP3    H174072   0.662   4.171   2.257  0.2317 -0.6385 -0.4353
17527TIP3    H274073   0.726   4.309   2.257  0.1868 -0.6179 -0.4095
17528TIP3   OH274074   3.013   1.676  12.499  0.0838  0.2566  0.2061
17528TIP3    H174075   3.011   1.616  12.574 -0.2186  1.1041  0.8865
17528TIP3    H274076   3.012   1.763  12.538  1.3487  0.7285 -0.7467
17529TIP3   OH274077   2.424   1.565   5.647 -0.0285 -0.3453  0.5817
17529TIP3    H174078   2.347   1.621   5.661  0.0171 -0.0068 -0.4269
17529TIP3    H274079   2.415   1.535   5.556  1.7893  0.9316 -0.0732
17530TIP3   OH274080   4.329   1.402  27.824 -0.3904  0.1178 -0.2465
17530TIP3    H174081   4.337   1.320  27.872  1.3993  1.1810  1.4602
17530TIP3    H274082   4.378   1.388  27.743 -0.0270 -0.4900  0.0707
17531TIP3   OH274083   3.384   1.461  32.146 -0.3549  0.5336 -0.0674
17531TIP3    H174084   3.297   1.422  32.151 -0.0182 -0.4237 -1.3475
17531TIP3    H274085   3.396   1.481  32.053  1.2349 -0.4225 -0.0960
17532TIP3   OH274086   0.687   3.359  29.873  0.3585 -0.0638  0.2696
17532TIP3    H174087   0.661   3.301  29.802 -1.4061  1.0301 -0.0674
17532TIP3    H274088   0.782   3.349  29.880  0.2601 -2.0341 -0.5593
17533TIP3   OH274089   1.487   4.276   0.056 -0.2816  0.0697 -0.0366
17533TIP3    H174090   1.575   4.316   0.057 -1.0699  1.9269 -0.4644
17533TIP3    H274091   1.503   4.183   0.068  1.7514  0.3772  0.0121
17534TIP3   OH274092   3.896   1.420   0.531 -0.0005  0.1101  0.5012
17534TIP3    H174093   3.819   1.381   0.490 -0.6252  1.0134  0.7643
17534TIP3    H274094   3.963   1.419   0.462  0.0396 -1.4507  0.5290
17535TIP3   OH274095   0.366   1.741  22.820  0.2698 -1.0751 -0.3368
17535TIP3    H174096   0.420   1.816  22.846  0.2433 -1.8197  2.1306
17535TIP3    H274097   0.400   1.668  22.873 -3.1316 -1.5724  1.4679
17536TIP3   OH274098   0.212   1.453  36.682  0.5384 -0.2591  0.2928
17536TIP3    H174099   0.163   1.433  36.762 -0.5605  0.2598 -0.2418
17536TIP3    H274100   0.201   1.377  36.626 -1.7350  0.8005 -0.8107
17537TIP3   OH274101   0.286   0.992   1.790  0.5513  0.2052 -0.3650
17537TIP3    H174102   0.332   0.982   1.873 -0.8498  1.0744  0.5542
17537TIP3    H274103   0.319   1.075   1.755 -1.3779  1.6784  1.0807
17538TIP3   OH274104   3.879   2.356  40.556  0.6353  0.2702  0.0610
17538TIP3    H174105   3.935   2.329  40.629 -0.5410  0.3304  1.0354
17538TIP3    H274106   3.938   2.367  40.482  1.8590  0.0922  0.9815
17539TIP3   OH274107   2.073   1.368  28.720 -0.2727 -0.7498  0.1315
17539TIP3    H174108   2.045   1.312  28.647 -2.0664 -0.5073  0.5761
17539TIP3    H274109   2.071   1.311  28.796  0.6658 -0.7641  0.1538
17540TIP3   OH274110   1.122   1.691  27.372  0.4670  0.1753 -0.1693
17540TIP3    H174111   1.166   1.767  27.411  0.5162 -1.0489  2.3374
17540TIP3    H274112   1.045   1.676  27.428 -0.3297 -0.7920 -1.4616
17541TIP3   OH274113   0.669   3.687   2.373 -0.0439  0.3116  0.2668
17541TIP3    H174114   0.709   3.636   2.303 -0.5794  0.4651 -0.1578
17541TIP3    H274115   0.739   3.745   2.404 -0.1944  1.2990 -1.1455
17542TIP3   OH274116   2.053   2.591  40.658  0.7536  0.2715  0.7039
17542TIP3    H174117   1.962   2.567  40.641  0.8212  0.6806 -0.3127
17542TIP3    H274118   2.082   2.528  40.725 -0.3474  0.3244  1.2530
17543TIP3   OH274119   3.344   0.375  37.422 -0.2302 -0.3230 -0.6380
17543TIP3    H174120   3.346   0.460  37.465 -0.7286  0.7995 -2.6660
17543TIP3    H274121   3.290   0.320  37.479 -0.0989  0.7801  0.5943
17544TIP3   OH274122   1.057   0.006   4.353 -0.6692  0.0160  0.2903
17544TIP3    H174123   1.001  -0.037   4.289 -2.0804  0.2605  1.3130
17544TIP3    H274124   1.108   0.069   4.301 -2.3346  0.7687 -0.5245
17545TIP3   OH274125   1.874   1.773   8.154  0.1353  0.3093 -0.4446
17545TIP3    H174126   1.857   1.867   8.151 -1.2681  0.0771 -0.5788
17545TIP3    H274127   1.969   1.766   8.158  0.2644  1.7311 -0.3987
17546TIP3   OH274128   0.299   0.222   4.903  0.8252 -0.1764  0.7763
17546TIP3    H174129   0.342   0.295   4.859 -0.5790 -0.1701 -0.6841
17546TIP3    H274130   0.206   0.243   4.899  0.5153 -1.1094  2.1300
17547TIP3   OH274131   0.696   1.532  29.074  0.3257  0.1360  0.4379
17547TIP3    H174132   0.767   1.479  29.038 -0.6975 -2.0498  1.4133
17547TIP3    H274133   0.711   1.530  29.169 -0.7797  0.0026  0.6193
17548TIP3   OH274134   4.370   2.802  11.743  0.5356  0.3753  0.2051
17548TIP3    H174135   4.416   2.807  11.659 -0.1856  0.1027 -0.2099
17548TIP3    H274136   4.326   2.717  11.741 -1.0790  1.1908  0.0366
17549TIP3   OH274137   2.415   1.252   1.377 -0.7081 -0.4343  0.2025
17549TIP3    H174138   2.371   1.334   1.398 -1.0010 -0.6469  0.4274
17549TIP3    H274139   2.466   1.231   1.456  0.8866  0.5078 -0.5422
17550TIP3   OH274140   4.006   3.768  33.533 -0.1748 -0.3077  0.1404
17550TIP3    H174141   4.028   3.754  33.440 -0.1009 -0.1988  0.1417
17550TIP3    H274142   4.055   3.846  33.558 -1.7565  0.8749 -0.2733
17551TIP3   OH274143   3.298   1.888  11.467 -0.1025  0.0030 -0.0105
17551TIP3    H174144   3.216   1.838  11.462  0.0331 -0.0875 -1.9354
17551TIP3    H274145   3.337   1.861  11.550 -1.8030 -0.2881  0.7381
17552TIP3   OH274146   3.472   4.257  34.643  0.2714 -0.1098 -0.2043
17552TIP3    H174147   3.557   4.254  34.686  0.9104  1.4859 -1.2571
17552TIP3    H274148   3.436   4.169  34.655  0.1682  0.3130  3.9268
17553TIP3   OH274149   2.012   2.682  29.157 -0.0038  0.5060  0.5071
17553TIP3    H174150   2.073   2.750  29.127 -1.0826  0.6946 -1.4715
17553TIP3    H274151   1.987   2.636  29.077 -0.1841 -1.5001  1.6707
17554TIP3   OH274152   3.422   4.186   1.604  0.4837  0.7017  0.5844
17554TIP3    H174153   3.356   4.118   1.588  0.8164 -0.3541  3.1441
17554TIP3    H274154   3.404   4.253   1.539 -1.1112 -0.9727 -0.7936
17555TIP3   OH274155   1.552   0.991   4.579 -0.8327 -0.2328 -0.5232
17555TIP3    H174156   1.485   1.058   4.565  0.5273  1.4928  0.8232
17555TIP3    H274157   1.627   1.022   4.528 -0.1407 -0.6680  0.2164
17556TIP3   OH274158   0.277   3.259   4.210  0.2771  0.0565 -0.0226
17556TIP3    H174159   0.295   3.333   4.268 -2.3010 -0.0910  1.0993
17556TIP3    H274160   0.255   3.187   4.270 -2.9459  0.0236 -1.0808
17557TIP3   OH274161   1.365   0.115  13.214  0.2590 -0.2640  0.3632
17557TIP3    H174162   1.414   0.036  13.238  0.9539  0.5090  1.6257
17557TIP3    H274163   1.282   0.082  13.180  1.0961 -1.5685 -0.5285
17558TIP3   OH274164   3.331   3.181  29.165  0.0214 -0.0376  0.3551
17558TIP3    H174165   3.414   3.212  29.129 -0.7408  0.5892 -0.9477
17558TIP3    H274166   3.283   3.261  29.186 -0.1620 -0.3933  1.3713
17559TIP3   OH274167   0.729   3.187  26.381 -0.3942  0.0740  0.0469
17559TIP3    H174168   0.800   3.123  26.388 -0.7091 -0.2976 -0.1268
17559TIP3    H274169   0.650   3.138  26.403 -0.9340 -0.1633 -2.1513
17560TIP3   OH274170   0.796   1.260   8.435  0.0856 -0.3420  0.0371
17560TIP3    H174171   0.876   1.304   8.466  0.3276 -2.1279  2.2379
17560TIP3    H274172   0.727   1.324   8.447  0.9190  0.6120 -0.1385
17561TIP3   OH274173   0.117   1.216  11.221 -0.3691 -0.4701  0.4215
17561TIP3    H174174   0.024   1.195  11.220 -0.3298 -0.7275 -1.4332
17561TIP3    H274175   0.161   1.135  11.195  0.3181 -0.1423  0.5291
17562TIP3   OH274176   0.935   3.750  38.262  0.2231  0.3097 -0.2458
17562TIP3    H174177   1.010   3.801  38.232 -0.7388  1.5704 -0.5963
17562TIP3    H274178   0.866   3.770  38.199 -0.6239 -0.2593  0.4754
17563TIP3   OH274179   1.377   4.000  26.555 -0.1280  0.1609  0.1862
17563TIP3    H174180   1.452   4.054  26.532 -0.4868  1.2585  1.4715
17563TIP3    H274181   1.383   3.989  26.650 -1.7310  0.5385  0.3627
17564TIP3   OH274182   2.136   3.428  30.260 -0.1036  0.6313 -0.2992
17564TIP3    H174183   2.182   3.512  30.269  0.5849  0.1499  0.9660
17564TIP3    H274184   2.171   3.389  30.180 -1.5096  2.1722 -1.7523
17565TIP3   OH274185   2.810   1.331   6.293  0.1756 -0.4289 -0.3103
17565TIP3    H174186   2.787   1.254   6.240  0.6953 -2.0449  1.6720
17565TIP3    H274187   2.728   1.354   6.338 -0.0137  0.3127 -1.0017
17566TIP3   OH274188   0.309   3.960  39.247  0.3871 -0.1055  0.1938
17566TIP3    H174189   0.382   3.905  39.274  0.5003 -0.4954 -0.8666
17566TIP3    H274190   0.278   3.921  39.165  0.4911  1.4153 -0.6080
17567TIP3   OH274191   1.608   1.847  28.039 -0.4103 -0.2517  0.0187
17567TIP3    H174192   1.639   1.916  28.098 -3.6544  0.3815  1.2120
17567TIP3    H274193   1.612   1.886  27.952 -0.6353  0.8646  0.4855
17568TIP3   OH274194   4.170   3.163  35.986 -0.1645  0.4055 -0.4475
17568TIP3    H174195   4.106   3.095  36.005  2.2405 -1.7621  0.4175
17568TIP3    H274196   4.203   3.189  36.072  1.8072 -0.2983 -0.9433
17569TIP3   OH274197   0.261   2.327  41.302  0.2990  0.0077  0.1778
17569TIP3    H174198   0.247   2.419  41.325 -1.2795  0.1575 -1.1904
17569TIP3    H274199   0.287   2.329  41.210  2.1006 -0.8378  0.6341
17570TIP3   OH274200   1.151   2.108   8.514  0.3694 -0.4223  0.0387
17570TIP3    H174201   1.089   2.077   8.579  0.1922  0.3208  0.2342
17570TIP3    H274202   1.231   2.059   8.531  0.2671 -0.3623  0.6939
17571TIP3   OH274203   1.731   3.962  33.286  0.4068  0.1867 -0.0403
17571TIP3    H174204   1.822   3.993  33.282  0.3400  0.5925  1.0595
17571TIP3    H274205   1.683   4.035  33.325 -0.3551 -0.1187 -0.3956
17572TIP3   OH274206   0.088   2.214  11.890 -0.1460 -0.3403  0.1364
17572TIP3    H174207   0.050   2.130  11.916 -0.0329  0.2734  2.5295
17572TIP3    H274208   0.158   2.191  11.829 -0.5042 -1.9345  0.2743
17573TIP3   OH274209   1.421   2.800   8.352  0.4841 -0.2305  0.0992
17573TIP3    H174210   1.453   2.763   8.434  1.7298  1.2937  0.3448
17573TIP3    H274211   1.363   2.733   8.316  0.2427 -1.0948  2.0073
17574TIP3   OH274212   3.726   0.133   6.432  0.1560 -0.2932  0.0699
17574TIP3    H174213   3.723   0.191   6.356  0.5206 -0.4780 -0.0856
17574TIP3    H274214   3.817   0.135   6.460 -0.1015  0.2846  0.9008
17575TIP3   OH274215   3.285   2.035   5.473 -0.0881  0.3350 -0.0407
17575TIP3    H174216   3.352   2.086   5.517 -0.7973 -0.0541  1.5803
17575TIP3    H274217   3.204   2.054   5.521 -1.0422  0.3049 -1.5330
17576TIP3   OH274218   3.887   4.399  35.900 -0.1784 -0.0306  0.5776
17576TIP3    H174219   3.852   4.425  35.985  0.1924  0.2569  0.6493
17576TIP3    H274220   3.944   4.324  35.919 -1.1967 -0.8717  0.3875
17577TIP3   OH274221   0.045   1.873  22.065  0.2256  0.0627  0.2590
17577TIP3    H174222   0.129   1.833  22.043 -0.4717 -1.6005  0.4376
17577TIP3    H274223  -0.017   1.800  22.064 -1.0049  1.0459  1.3434
17578TIP3   OH274224   0.914   0.403  23.053  0.3298  0.0677 -0.3157
17578TIP3    H174225   0.838   0.440  23.008 -1.7027 -0.8721  2.0904
17578TIP3    H274226   0.914   0.447  23.139  1.6399 -0.9920  0.2528
17579TIP3   OH274227   4.263   2.953  34.761 -0.7962 -0.1596  0.3517
17579TIP3    H174228   4.346   2.917  34.728  0.2083  0.3661  2.2053
17579TIP3    H274229   4.219   2.987  34.683  1.0384  0.1550 -0.5943
17580TIP3   OH274230   1.287   3.484  33.013 -0.0507 -0.4064  0.0906
17580TIP3    H174231   1.375   3.515  33.033 -0.1004 -0.6797  0.7506
17580TIP3    H274232   1.269   3.519  32.925  0.0557  1.0896  0.6376
17581TIP3   OH274233   1.543   0.943   5.648  0.2879  0.2827 -0.9296
17581TIP3    H174234   1.622   0.927   5.597  2.2908 -1.6015  2.4183
17581TIP3    H274235   1.500   0.858   5.654 -0.4975  0.7041 -0.3808
17582TIP3   OH274236   2.690   4.135  35.501  0.4930 -0.6147 -0.3622
17582TIP3    H174237   2.753   4.202  35.529 -0.8597  0.6151 -0.1367
17582TIP3    H274238   2.685   4.145  35.406 -0.2946  0.1759 -0.2497
17583TIP3   OH274239   1.319   0.956  33.611  0.0998 -0.2533  0.5066
17583TIP3    H174240   1.384   0.915  33.554 -0.3163  1.2806 -1.1584
17583TIP3    H274241   1.371   0.996  33.682  1.1706  1.7155 -1.2638
17584TIP3   OH274242   0.914   2.108  41.048 -0.0933 -0.9568  0.2228
17584TIP3    H174243   0.953   2.023  41.070  0.8786 -1.1430 -2.0236
17584TIP3    H274244   0.823   2.087  41.026 -0.0132 -1.3255  0.2235
17585TIP3   OH274245   2.710   3.289   1.505  0.6239 -0.2225 -0.4403
17585TIP3    H174246   2.778   3.223   1.491  0.0876 -1.1124  0.8936
17585TIP3    H274247   2.752   3.356   1.558  0.5771 -0.6258  0.1270
17586TIP3   OH274248   0.251   1.606   7.345  0.5165  0.2605 -0.2371
17586TIP3    H174249   0.263   1.538   7.279 -0.4308  0.9998 -1.2033
17586TIP3    H274250   0.212   1.561   7.419  1.7833 -0.6228 -0.0759
17587TIP3   OH274251   2.144   2.327   5.040 -0.1575  0.1010 -0.1253
17587TIP3    H174252   2.200   2.253   5.017 -0.9110 -0.8427  0.9479
17587TIP3    H274253   2.113   2.361   4.956  1.3189  0.1124 -0.6977
17588TIP3   OH274254   0.105   1.919  10.552 -0.0446  0.5467  0.3702
17588TIP3    H174255   0.060   1.867  10.618 -0.8352 -0.6035 -1.0283
17588TIP3    H274256   0.187   1.946  10.595  1.5071 -3.7009  0.5101
17589TIP3   OH274257   3.548   1.677   5.260 -0.2709  0.3502 -0.3512
17589TIP3    H174258   3.476   1.733   5.288 -0.6282  0.7094 -1.8643
17589TIP3    H274259   3.581   1.719   5.180  2.0627  0.5644  0.6385
17590TIP3   OH274260   4.038   3.383   9.154  0.0830  0.3561  0.0556
17590TIP3    H174261   4.116   3.356   9.105 -0.0772 -0.7662  0.3918
17590TIP3    H274262   3.981   3.306   9.152 -2.2362  1.9884 -2.4849
17591TIP3   OH274263   0.333   3.218  30.006 -0.2525 -0.1008 -0.7117
17591TIP3    H174264   0.376   3.154  29.950  1.1449 -0.8438  1.1266
17591TIP3    H274265   0.295   3.167  30.077 -0.4000  0.9659  0.0018
17592TIP3   OH274266   2.088   3.663  13.503 -0.2880 -0.1671 -0.1676
17592TIP3    H174267   2.014   3.621  13.459  0.0697 -0.0972 -0.8472
17592TIP3    H274268   2.142   3.698  13.432  1.2353 -1.5954  0.2216
17593TIP3   OH274269   0.586   2.273   8.749 -0.8035  0.1434 -0.3690
17593TIP3    H174270   0.592   2.345   8.687  0.5856  0.7967  0.4683
17593TIP3    H274271   0.507   2.292   8.800 -0.5885  0.9738 -0.3206
17594TIP3   OH274272   2.869   0.793  41.465  0.3275  0.0885  0.5022
17594TIP3    H174273   2.874   0.860  41.533  0.4183 -0.4462  1.0373
17594TIP3    H274274   2.797   0.736  41.492 -0.5873  0.6804 -0.6161
17595TIP3   OH274275   4.104   3.727   3.455 -0.9372 -0.4352  0.7040
17595TIP3    H174276   4.168   3.697   3.519  0.1624  2.2113  0.9874
17595TIP3    H274277   4.130   3.685   3.373 -0.2904 -1.2198  1.2977
17596TIP3   OH274278   2.826   3.769  11.229 -0.3851 -0.0093  0.3043
17596TIP3    H174279   2.908   3.797  11.270 -0.2419 -1.4208  1.0571
17596TIP3    H274280   2.809   3.834  11.161  0.6273  1.0770  1.0482
17597TIP3   OH274281   4.327   3.176   4.367  0.1604  0.5518 -0.6048
17597TIP3    H174282   4.419   3.152   4.367  0.0806  0.2261 -1.2353
17597TIP3    H274283   4.280   3.092   4.364 -0.1342  0.7529 -1.8362
17598TIP3   OH274284   4.134   3.015  39.180 -0.2773  0.3050 -0.2139
17598TIP3    H174285   4.048   3.033  39.219 -0.6652 -0.1750 -0.8255
17598TIP3    H274286   4.153   2.925  39.206 -0.1700  0.2549 -0.4659
17599TIP3   OH274287   1.457   2.269  28.916 -0.4295 -0.3009 -0.3832
17599TIP3    H174288   1.397   2.336  28.949 -1.8653 -1.3884 -0.7379
17599TIP3    H274289   1.418   2.238  28.835  0.4649 -1.2321 -0.4824
17600TIP3   OH274290   2.757   3.625  26.670  0.3721  0.4343 -1.1235
17600TIP3    H174291   2.789   3.709  26.637 -1.8394  0.7368 -2.6838
17600TIP3    H274292   2.694   3.648  26.738  3.2819 -0.1631  2.0823
17601TIP3   OH274293   0.447   1.989  28.835  0.0753 -0.1135  0.1592
17601TIP3    H174294   0.401   1.916  28.877 -0.1787  0.2472  0.5189
17601TIP3    H274295   0.469   1.957  28.747 -1.1847 -0.1823 -0.1572
17602TIP3   OH274296   4.344   3.459  33.778 -0.4350  0.1434 -0.3218
17602TIP3    H174297   4.351   3.500  33.692  0.4282 -0.1006 -0.3787
17602TIP3    H274298   4.432   3.465  33.814 -0.5342 -0.7379  0.0906
17603TIP3   OH274299   0.848   2.497  28.406  0.1318  0.4477  0.5915
17603TIP3    H174300   0.891   2.526  28.486 -0.2667 -1.8648  1.7220
17603TIP3    H274301   0.902   2.424  28.375 -0.5235  0.3881 -0.4452
17604TIP3   OH274302   0.550   3.428  38.382  0.0201  0.0100 -0.3692
17604TIP3    H174303   0.517   3.515  38.359  2.8775  1.1108 -0.6035
17604TIP3    H274304   0.547   3.425  38.478  0.9069  0.8248 -0.3008
17605TIP3   OH274305   0.770   0.084  32.707  0.1284  0.1697 -0.3999
17605TIP3    H174306   0.772   0.014  32.772 -0.2157  0.3524 -0.1879
17605TIP3    H274307   0.862   0.101  32.687  0.2230 -0.1295 -0.2257
17606TIP3   OH274308   2.135   0.528   6.781  0.0577  0.4283 -0.1952
17606TIP3    H174309   2.048   0.488   6.787  0.2410  0.1205  0.4276
17606TIP3    H274310   2.118   0.621   6.764 -0.3748  0.1098 -1.6810
17607TIP3   OH274311   1.227   3.691  29.603  0.0433 -0.8240 -0.1030
17607TIP3    H174312   1.208   3.782  29.581 -1.8545 -1.6958 -2.5437
17607TIP3    H274313   1.255   3.693  29.695  0.9409  2.2723 -0.3616
17608TIP3   OH274314   4.209   1.860  38.145 -0.6813 -0.0782 -0.1061
17608TIP3    H174315   4.138   1.873  38.207 -0.3362  0.2095  0.2324
17608TIP3    H274316   4.255   1.944  38.142  0.1429 -0.5027  0.3100
17609TIP3   OH274317   0.973   4.156  28.707  0.1145  0.8371  0.0218
17609TIP3    H174318   0.886   4.195  28.717  0.2065  0.6468  1.9012
17609TIP3    H274319   0.958   4.078  28.655 -0.7522  1.1057 -0.1554
17610TIP3   OH274320   3.958   4.292   6.336 -0.2938  0.2963  0.0870
17610TIP3    H174321   3.884   4.252   6.380 -0.1336  1.1677  1.1984
17610TIP3    H274322   3.942   4.278   6.243 -2.3583  1.3148  0.2473
17611TIP3   OH274323   3.074   0.068  13.114 -0.4598  0.0788 -0.5659
17611TIP3    H174324   3.038   0.086  13.027  0.6290 -1.1934 -1.3168
17611TIP3    H274325   3.144   0.005  13.099 -0.7122 -0.7350  1.3133
17612TIP3   OH274326   1.573   2.786  35.836 -0.5383 -0.7972 -0.1152
17612TIP3    H174327   1.668   2.793  35.844 -0.6791  0.0945  1.0930
17612TIP3    H274328   1.541   2.789  35.927 -1.8928  2.0536 -0.5791
17613TIP3   OH274329   4.242   1.323  22.866 -0.2410 -0.6332 -0.1086
17613TIP3    H174330   4.211   1.270  22.939 -0.6506 -0.7052 -0.3360
17613TIP3    H274331   4.189   1.296  22.792  1.6034 -2.1200 -0.9653
17614TIP3   OH274332   3.560   0.587  30.413  0.6345  0.1812 -0.4833
17614TIP3    H174333   3.571   0.518  30.348  1.3667  0.8639 -1.1107
17614TIP3    H274334   3.468   0.612  30.405  0.8654  0.7281 -1.7706
17615TIP3   OH274335   1.320   4.088  38.298 -0.3500 -0.4185  0.1246
17615TIP3    H174336   1.265   4.104  38.375 -0.9734 -1.2193 -0.1504
17615TIP3    H274337   1.336   3.994  38.298 -1.1415 -0.5749 -1.2530
17616TIP3   OH274338   0.320   3.769  39.684 -0.3757  0.4973  0.1739
17616TIP3    H174339   0.249   3.813  39.638 -2.2786 -2.0172  0.4892
17616TIP3    H274340   0.291   3.766  39.775  0.6499  0.3767  0.5094
17617TIP3   OH274341   1.199   2.286  36.592  0.3410  0.0961  0.0111
17617TIP3    H174342   1.241   2.216  36.541  1.6012 -0.1106  1.2416
17617TIP3    H274343   1.105   2.274  36.577  0.6554  0.6908 -3.0127
17618TIP3   OH274344   0.650   3.604   1.916 -0.0297 -0.3939  0.7023
17618TIP3    H174345   0.627   3.580   1.826 -0.0152 -0.6098  0.7561
17618TIP3    H274346   0.612   3.534   1.969  2.1751 -1.7035  0.6922
17619TIP3   OH274347   3.477   0.515   7.010 -0.0245 -0.3039 -0.4144
17619TIP3    H174348   3.423   0.449   6.966 -1.3415  1.8040 -2.1864
17619TIP3    H274349   3.537   0.546   6.942 -1.3795  2.2762 -0.5619
17620TIP3   OH274350   1.165   3.370  39.568 -0.1907  0.1645  0.3221
17620TIP3    H174351   1.232   3.307  39.538  0.0282  0.2709  0.5802
17620TIP3    H274352   1.089   3.316  39.589 -0.8685  0.2076 -1.8019
17621TIP3   OH274353   3.536   1.455  29.870 -0.2175 -0.0148 -0.1850
17621TIP3    H174354   3.512   1.417  29.954 -1.5084 -0.9309 -0.9145
17621TIP3    H274355   3.569   1.381  29.818 -3.9190 -0.6245 -2.0451
17622TIP3   OH274356   0.268   0.976  23.032  0.2748  0.1194  0.2787
17622TIP3    H174357   0.260   0.925  23.113  0.0037 -1.1419 -0.5065
17622TIP3    H274358   0.360   0.968  23.008  0.6655  1.6404  1.1530
17623TIP3   OH274359   2.522   3.997  35.048  0.1579 -0.2592 -0.3211
17623TIP3    H174360   2.586   4.014  34.978 -0.7725  1.0977 -0.8957
17623TIP3    H274361   2.571   4.011  35.129  1.2182 -1.7146 -0.6730
17624TIP3   OH274362   1.666   2.127  37.590 -0.0541 -0.2098  0.1955
17624TIP3    H174363   1.641   2.209  37.633 -0.2366 -0.6459  0.9428
17624TIP3    H274364   1.584   2.077  37.586  0.0624 -0.3700 -0.2280
17625TIP3   OH274365   2.901   2.795   8.255 -0.0050 -0.3962  0.0657
17625TIP3    H174366   2.970   2.814   8.318 -1.1883  0.6743  1.0812
17625TIP3    H274367   2.918   2.855   8.182 -0.2621  0.3672  0.6267
17626TIP3   OH274368   4.225   3.233  33.862 -0.5414  0.3972 -0.0831
17626TIP3    H174369   4.134   3.238  33.891  0.2532  0.4748  2.7198
17626TIP3    H274370   4.247   3.322  33.836 -0.8871  0.6857  0.5847
17627TIP3   OH274371   1.930   1.083  34.648 -0.3591  0.2210 -0.4067
17627TIP3    H174372   1.980   1.139  34.708 -0.6968 -0.1880  0.2750
17627TIP3    H274373   1.984   1.078  34.569  0.9365 -0.6065  0.4802
17628TIP3   OH274374   2.716   2.732  10.970  0.3759 -0.2138 -0.5371
17628TIP3    H174375   2.758   2.651  11.001 -2.0503 -2.5019 -2.6682
17628TIP3    H274376   2.782   2.774  10.916  1.3500 -1.4075 -0.3226
17629TIP3   OH274377   4.163   3.582  35.763  0.1998  0.1564  0.0862
17629TIP3    H174378   4.201   3.620  35.685  1.0957  1.6040  1.1789
17629TIP3    H274379   4.223   3.607  35.834  0.3956 -2.5629  1.0367
17630TIP3   OH274380   2.340   3.825   6.802  0.3741  0.0490  0.4689
17630TIP3    H174381   2.428   3.806   6.769  0.3551  0.5205  0.1458
17630TIP3    H274382   2.354   3.888   6.873  0.3435 -0.3348  0.8234
17631TIP3   OH274383   3.537   3.750  35.979 -0.6464 -0.2678  0.1852
17631TIP3    H174384   3.567   3.829  35.933 -0.0483 -0.2735  0.5527
17631TIP3    H274385   3.616   3.698  35.991 -0.8305 -0.3764  0.9895
17632TIP3   OH274386   0.133   2.994  30.965  0.9629 -0.1447  0.4489
17632TIP3    H174387   0.139   3.086  30.991 -0.0483 -0.2054  0.9688
17632TIP3    H274388   0.116   2.947  31.047 -2.1447 -0.3716 -0.2098
17633TIP3   OH274389   0.013   2.478  34.038  0.2926 -0.0965  0.4077
17633TIP3    H174390   0.010   2.430  34.120 -0.4304  1.3444  1.2558
17633TIP3    H274391   0.064   2.556  34.057  1.6311 -0.5765 -1.0032
17634TIP3   OH274392   3.114   0.353   6.075  0.4072  0.2714  0.3652
17634TIP3    H174393   3.164   0.432   6.052 -0.8319  0.5304 -1.6805
17634TIP3    H274394   3.033   0.386   6.114  0.9127 -0.0939  1.7776
17635TIP3   OH274395   2.928   2.294  27.983 -0.3114 -0.1839 -0.4987
17635TIP3    H174396   2.834   2.287  27.995 -0.4938  2.0253 -0.3611
17635TIP3    H274397   2.964   2.220  28.033 -1.9113 -0.6938 -0.0575
17636TIP3   OH274398   1.603   1.891  27.382  0.2081  0.7366 -0.4984
17636TIP3    H174399   1.601   1.979  27.419 -1.9741  0.9602 -1.0077
17636TIP3    H274400   1.599   1.904  27.287 -1.7015  0.1252 -0.5425
17637TIP3   OH274401   0.885   1.208  22.061  0.3940 -0.5283 -0.0532
17637TIP3    H174402   0.813   1.157  22.025  1.2045 -0.7629 -1.4086
17637TIP3    H274403   0.901   1.277  21.996  1.1626 -0.2699  0.3904
17638TIP3   OH274404   3.761   1.862  29.298 -0.2801  0.4691  0.0344
17638TIP3    H174405   3.856   1.853  29.295 -0.3892 -0.6598 -0.6342
17638TIP3    H274406   3.732   1.795  29.359 -0.6081  1.2568  0.7589
17639TIP3   OH274407   4.341   2.490  26.829  0.2504  0.4128  0.3824
17639TIP3    H174408   4.363   2.421  26.766  1.3100  1.1638 -0.0928
17639TIP3    H274409   4.338   2.570  26.777 -0.4062  0.8268  1.0305
17640TIP3   OH274410   4.122   4.176   2.124  0.3649 -0.6805 -0.7509
17640TIP3    H174411   4.130   4.152   2.031  4.8863 -1.3212 -0.4479
17640TIP3    H274412   4.164   4.262   2.130 -0.5361 -0.3126  0.6137
17641TIP3   OH274413   3.249   0.723  40.031  0.1252 -0.2165 -0.2178
17641TIP3    H174414   3.339   0.756  40.029  0.5247 -1.1148  1.1573
17641TIP3    H274415   3.229   0.715  40.124 -0.6234 -1.9982 -0.4982
17642TIP3   OH274416   3.793   0.725   3.428  0.0821  0.0252  0.1576
17642TIP3    H174417   3.874   0.706   3.380 -0.1945 -2.1913  0.4655
17642TIP3    H274418   3.816   0.715   3.520 -0.3996 -0.0585  0.2736
17643TIP3   OH274419   0.461   0.717  30.973 -0.6338 -0.5355  0.3659
17643TIP3    H174420   0.377   0.762  30.971 -0.7842 -0.7992  0.6896
17643TIP3    H274421   0.479   0.693  30.882 -1.9147 -2.3682  0.5684
17644TIP3   OH274422   2.795   4.215  38.119  0.3486 -0.2634 -0.0226
17644TIP3    H174423   2.725   4.173  38.168 -0.3807  0.0409 -0.7758
17644TIP3    H274424   2.751   4.257  38.045  1.3944 -0.6380 -0.8930
17645TIP3   OH274425   0.678   4.135  35.506 -0.2820  0.0884 -0.3026
17645TIP3    H174426   0.714   4.119  35.594 -0.2845  1.8281  0.0650
17645TIP3    H274427   0.753   4.169  35.456 -0.9284  2.0671 -0.0328
17646TIP3   OH274428   2.867   3.656   2.806  0.8218 -0.7080 -0.4432
17646TIP3    H174429   2.848   3.599   2.882 -0.0332  1.0410  0.7189
17646TIP3    H274430   2.803   3.629   2.740  0.3388 -1.0207  0.1375
17647TIP3   OH274431   1.102   3.249   4.904  0.0143 -0.1348 -0.2268
17647TIP3    H174432   1.077   3.201   4.983 -0.0756 -0.1102 -0.2391
17647TIP3    H274433   1.148   3.326   4.936 -0.8718  0.3831 -0.1501
17648TIP3   OH274434   0.171   0.341   9.300 -0.8214  0.2730 -0.0779
17648TIP3    H174435   0.118   0.315   9.224 -0.1926  0.4317 -0.5838
17648TIP3    H274436   0.191   0.433   9.283 -0.4939  0.2472  0.1725
17649TIP3   OH274437   0.467   0.734  33.194 -0.4850 -0.3528 -0.1366
17649TIP3    H174438   0.396   0.717  33.256 -0.4745 -0.1772 -0.0755
17649TIP3    H274439   0.485   0.828  33.204  0.5937 -0.6392  0.7542
17650TIP3   OH274440   0.746   1.740   4.969  0.3341  0.1567  0.8668
17650TIP3    H174441   0.785   1.827   4.979 -0.1035  0.4051  0.4319
17650TIP3    H274442   0.783   1.707   4.887  0.4683 -0.0568  1.0106
17651TIP3   OH274443   4.276   0.140  39.987 -0.4528 -0.2245  0.3309
17651TIP3    H174444   4.371   0.151  39.995 -0.3603 -1.2377  0.7546
17651TIP3    H274445   4.263   0.110  39.897 -0.6208  2.1766 -0.5263
17652TIP3   OH274446   3.214   2.681  39.194 -0.5111 -0.1946 -0.2329
17652TIP3    H174447   3.160   2.645  39.265 -2.3404  0.7728 -1.0846
17652TIP3    H274448   3.210   2.616  39.125  0.3843 -0.6346  0.1046
17653TIP3   OH274449   0.716   0.566   9.318  0.6121 -0.2009  0.1176
17653TIP3    H174450   0.736   0.480   9.353 -0.6381 -0.2415  0.8000
17653TIP3    H274451   0.629   0.587   9.353  0.2706  0.7185 -1.1801
17654TIP3   OH274452   3.732   0.677  31.743 -0.3525  0.2069 -0.0736
17654TIP3    H174453   3.807   0.626  31.774 -0.6441 -0.5983 -0.6568
17654TIP3    H274454   3.662   0.613  31.733 -0.6743  0.6892 -0.9978
17655TIP3   OH274455   0.168   0.287  31.229  0.0316  0.2904  1.0508
17655TIP3    H174456   0.194   0.360  31.173  1.3764 -1.5666 -0.8983
17655TIP3    H274457   0.245   0.269  31.283 -0.0863 -0.0181  1.1212
17656TIP3   OH274458   4.027   1.149  26.770  0.6810  0.4144  0.0029
17656TIP3    H174459   4.013   1.238  26.736  0.5588  0.2364 -0.4062
17656TIP3    H274460   4.038   1.095  26.693 -1.8790 -0.3975  0.1305
17657TIP3   OH274461   1.514   2.202  17.987 -0.1959 -0.0576 -0.6657
17657TIP3    H174462   1.541   2.292  17.969  0.4260 -0.4220 -1.6025
17657TIP3    H274463   1.464   2.208  18.069 -0.6448  1.2145 -1.0200
17658TIP3   OH274464   4.403   1.951   6.113  0.3947 -0.3188  0.4671
17658TIP3    H174465   4.493   1.957   6.082  0.0438  1.1528 -0.4146
17658TIP3    H274466   4.377   2.043   6.127 -1.3395 -0.6304 -0.4712
17659TIP3   OH274467   3.874   0.084   1.506 -0.3055 -0.2603 -0.9324
17659TIP3    H174468   3.862   0.114   1.596 -0.7994 -2.2215 -0.2905
17659TIP3    H274469   3.793   0.109   1.461  0.0206  0.8890 -0.9097
17660TIP3   OH274470   1.601   0.057  40.219 -0.3969  0.7268 -0.3914
17660TIP3    H174471   1.507   0.046  40.204 -0.2129 -0.3199 -0.8494
17660TIP3    H274472   1.611   0.053  40.314 -0.7690  0.4684 -0.3627
17661TIP3   OH274473   3.542   0.599  37.921  0.3618  0.7152 -0.4311
17661TIP3    H174474   3.470   0.657  37.899 -0.3477  0.9317  2.1184
17661TIP3    H274475   3.506   0.540  37.987  1.8421 -0.8348 -0.9230
17662TIP3   OH274476   2.336   3.428   2.304 -0.4904  0.1489 -0.1162
17662TIP3    H174477   2.290   3.510   2.287  1.0632  0.7924 -1.4404
17662TIP3    H274478   2.308   3.370   2.233  1.5124  0.9237 -1.6377
17663TIP3   OH274479   0.937   1.359  36.226 -0.0606  0.0729  0.3765
17663TIP3    H174480   0.938   1.425  36.157  0.2076 -0.5186 -0.2023
17663TIP3    H274481   0.845   1.351  36.251 -0.0494  0.9205  0.7167
17664TIP3   OH274482   1.118   3.211   8.230  0.3628  0.1781 -0.5863
17664TIP3    H174483   1.094   3.190   8.320 -1.5001  1.1692 -0.7995
17664TIP3    H274484   1.054   3.276   8.202  0.1370 -0.9630 -3.0440
17665TIP3   OH274485   3.418   3.619  30.664  0.1774  0.1363 -0.5532
17665TIP3    H174486   3.332   3.637  30.701  0.5098 -1.6037  1.2392
17665TIP3    H274487   3.476   3.684  30.703 -0.2769  1.2986 -1.7497
17666TIP3   OH274488   2.237   0.812   1.998  0.7419  0.2070  0.0189
17666TIP3    H174489   2.155   0.763   2.005  1.2273 -0.7390 -0.6338
17666TIP3    H274490   2.234   0.876   2.069  0.9405 -2.0324  2.1657
17667TIP3   OH274491   1.751   0.728  29.970 -0.0903  0.1763 -0.6029
17667TIP3    H174492   1.844   0.751  29.966  0.0120 -0.0590  0.3183
17667TIP3    H274493   1.732   0.721  30.063 -1.0619  0.3214 -0.7816
17668TIP3   OH274494   0.162   2.662  31.021  0.0480  0.3655 -0.2543
17668TIP3    H174495   0.114   2.667  30.938  1.3324 -2.9755 -1.3765
17668TIP3    H274496   0.252   2.643  30.996  0.3570 -1.3884  1.8703
17669TIP3   OH274497   2.388   3.987  12.797  0.0761  0.0761  0.1907
17669TIP3    H174498   2.406   3.922  12.864  0.4492  0.5800  0.5840
17669TIP3    H274499   2.474   4.012  12.764 -0.0660  0.3777  0.0439
17670TIP3   OH274500   0.298   1.230   6.447  0.2761  0.1307  0.3098
17670TIP3    H174501   0.392   1.237   6.432  0.1062 -0.2229 -1.0349
17670TIP3    H274502   0.282   1.137   6.462 -0.4674 -0.8921 -4.7765
17671TIP3   OH274503   1.155   0.239   3.794 -0.1608 -0.3712 -0.0387
17671TIP3    H174504   1.149   0.203   3.883  1.1288 -0.3727  0.0674
17671TIP3    H274505   1.086   0.193   3.745  0.5172 -1.9531  0.4420
17672TIP3   OH274506   2.329   0.062  11.564 -0.0271 -0.0875  1.0342
17672TIP3    H174507   2.409   0.112  11.578  0.1441 -0.0483  0.0016
17672TIP3    H274508   2.325   0.049  11.469 -2.6589  2.2518  0.7072
17673TIP3   OH274509   4.024   3.700  33.261  0.4838  0.7456 -0.2910
17673TIP3    H174510   4.051   3.608  33.264 -1.2050  0.2273  1.0158
17673TIP3    H274511   3.933   3.697  33.230  0.2384  1.9360  0.2570
17674TIP3   OH274512   0.887   1.025  37.966  0.0646  0.4079  0.0115
17674TIP3    H174513   0.855   0.969  37.895 -0.7411  0.1603  0.5545
17674TIP3    H274514   0.830   1.004  38.040 -0.1626  1.8443  0.2625
17675TIP3   OH274515   0.989   4.328  32.051  0.3072 -0.5463 -0.5352
17675TIP3    H174516   1.064   4.334  32.110  0.4914  2.6801 -0.9516
17675TIP3    H274517   0.913   4.329  32.109  0.5319  0.6809 -0.2341
17676TIP3   OH274518   3.866   0.471  10.698 -0.0401  0.4014  0.0896
17676TIP3    H174519   3.886   0.482  10.605  0.1013  0.5367  0.1346
17676TIP3    H274520   3.939   0.515  10.743 -0.0256  0.1994  0.2648
17677TIP3   OH274521   2.322   0.161  41.527  0.7292  0.1889  0.7694
17677TIP3    H174522   2.413   0.175  41.500  1.2357  0.0206  2.2672
17677TIP3    H274523   2.325   0.166  41.623 -1.4456  4.0040  0.8510
17678TIP3   OH274524   3.477   0.882  30.586  0.2785  0.0068  0.5635
17678TIP3    H174525   3.417   0.929  30.645 -0.4054 -0.0842 -0.0350
17678TIP3    H274526   3.475   0.933  30.505  0.3775 -0.4523  0.2681
17679TIP3   OH274527   1.451   3.577  31.473 -0.0946 -0.6850 -0.0790
17679TIP3    H174528   1.419   3.503  31.421 -0.7079 -0.1268 -0.5017
17679TIP3    H274529   1.397   3.576  31.552  1.4001 -2.0572  0.9951
17680TIP3   OH274530   4.105   3.622   1.405  0.9585  0.4795 -0.1374
17680TIP3    H174531   4.044   3.556   1.370  0.5022  1.1009 -0.5334
17680TIP3    H274532   4.104   3.607   1.499  0.9269 -0.1376 -0.2285
17681TIP3   OH274533   2.738   3.348  32.236 -0.1968 -0.2438  0.1324
17681TIP3    H174534   2.763   3.372  32.147 -0.5475  0.1453  0.1322
17681TIP3    H274535   2.675   3.416  32.262 -2.3031 -1.9021 -0.3589
17682TIP3   OH274536   1.862   2.255   2.457 -0.4729  0.0352 -0.4403
17682TIP3    H174537   1.956   2.236   2.462 -0.3538  0.8573  0.9070
17682TIP3    H274538   1.826   2.182   2.407  0.7696 -0.7006 -0.3179
17683TIP3   OH274539   1.487   4.273  40.987 -0.4717  0.0634 -1.0817
17683TIP3    H174540   1.543   4.350  40.977  2.5351 -1.7262  0.5311
17683TIP3    H274541   1.509   4.218  40.912  2.5237 -1.9795  1.0413
17684TIP3   OH274542   1.772   1.369   4.032 -0.3148  0.2252  0.2553
17684TIP3    H174543   1.864   1.377   4.006 -0.1441 -0.1130  0.7340
17684TIP3    H274544   1.743   1.459   4.044  0.0770  0.3214  0.5066
17685TIP3   OH274545   2.889   2.999   0.260  0.1287  0.2735  0.3710
17685TIP3    H174546   2.883   2.973   0.352 -0.2929 -0.4190  0.1556
17685TIP3    H274547   2.942   2.931   0.220 -0.1465  0.2770 -0.0035
17686TIP3   OH274548   1.054   0.173   7.437  0.3794  0.1230  0.4010
17686TIP3    H174549   0.992   0.246   7.437  0.2598  0.0695 -1.7856
17686TIP3    H274550   1.005   0.100   7.475 -0.2248  0.5977  0.5474
17687TIP3   OH274551   1.729   2.673   0.273 -0.1607 -0.8304  0.1868
17687TIP3    H174552   1.812   2.670   0.225  0.4527 -1.6219  1.2529
17687TIP3    H274553   1.664   2.640   0.212  0.7219 -2.5365  0.1086
17688TIP3   OH274554   3.804   0.508  39.214 -0.6345  0.2954  0.3090
17688TIP3    H174555   3.711   0.486  39.216 -0.2185 -1.8453 -0.5755
17688TIP3    H274556   3.823   0.523  39.121  0.0425  0.0523  0.4017
17689TIP3   OH274557   0.174   1.517  31.421 -0.0115  0.3082 -0.1585
17689TIP3    H174558   0.085   1.481  31.416  0.3656 -0.7607  0.5592
17689TIP3    H274559   0.170   1.582  31.490 -0.4743  1.0110 -0.8301
17690TIP3   OH274560   3.290   0.964   6.920  0.5577 -0.5861  0.3224
17690TIP3    H174561   3.263   1.022   6.991  1.8810  0.2538  0.1763
17690TIP3    H274562   3.232   0.986   6.847  0.2888 -0.2669  0.6301
17691TIP3   OH274563   3.396   2.562  38.919 -0.0014 -0.3259 -0.3881
17691TIP3    H174564   3.353   2.644  38.942  0.9319  0.8802 -2.6513
17691TIP3    H274565   3.325   2.498  38.915 -1.0124  0.7574 -0.3072
17692TIP3   OH274566   3.008   0.268  35.738  0.1713  0.1509 -0.2376
17692TIP3    H174567   3.040   0.195  35.686 -1.5786 -0.5040 -0.4856
17692TIP3    H274568   2.918   0.280  35.708  0.1121  1.7731  0.4991
17693TIP3   OH274569   1.806   4.176   7.742 -0.4088  0.0570 -0.1740
17693TIP3    H174570   1.793   4.094   7.789  0.8298 -1.1062 -1.7490
17693TIP3    H274571   1.718   4.216   7.738 -0.8010 -0.5050  1.7315
17694TIP3   OH274572   2.714   3.680   5.763 -0.3195 -0.5319 -0.0659
17694TIP3    H174573   2.649   3.744   5.793  0.0440 -0.3330  0.3060
17694TIP3    H274574   2.748   3.717   5.682 -1.4357 -1.1596 -0.8416
17695TIP3   OH274575   2.678   3.265  30.856 -0.8588 -0.2583 -0.0928
17695TIP3    H174576   2.727   3.185  30.874 -0.1465 -0.0278 -0.9118
17695TIP3    H274577   2.611   3.237  30.793 -1.9550 -0.6183  1.1904
17696TIP3   OH274578   1.911   2.200   4.006 -0.1244 -0.1320 -0.8146
17696TIP3    H174579   1.841   2.262   4.024 -1.1361 -1.5020  0.1809
17696TIP3    H274580   1.992   2.247   4.027 -0.9298  0.4452  1.1761
17697TIP3   OH274581   0.072   4.314  10.952 -0.4488  0.1715  0.1421
17697TIP3    H174582   0.019   4.393  10.965  0.4567  0.7343  0.6343
17697TIP3    H274583   0.054   4.286  10.863 -1.5272  0.3692  0.2921
17698TIP3   OH274584   0.856   4.298  11.769  0.0824 -0.1206  0.6000
17698TIP3    H174585   0.894   4.229  11.714 -1.2620 -0.4961  0.1179
17698TIP3    H274586   0.868   4.267  11.859  1.1607 -0.0863  0.4892
17699TIP3   OH274587   2.851   1.714  36.658  0.3807 -0.7694  0.0392
17699TIP3    H174588   2.932   1.700  36.608 -1.4983 -2.2105 -2.8691
17699TIP3    H274589   2.827   1.805  36.638  1.0606 -0.4441  0.6389
17700TIP3   OH274590   1.714   3.265  27.217  0.2960  0.4389  0.2086
17700TIP3    H174591   1.702   3.357  27.242 -1.0061  0.2055  0.4868
17700TIP3    H274592   1.804   3.262  27.183  0.1469  1.9615 -0.4391
17701TIP3   OH274593   3.009   0.975  36.898  0.1118 -0.8718  0.2146
17701TIP3    H174594   2.990   0.895  36.946 -0.7288 -0.2666  0.9113
17701TIP3    H274595   2.938   1.035  36.920  1.7585  0.7867  1.3267
17702TIP3   OH274596   0.383   3.335  11.266 -0.4424  0.6166 -0.0529
17702TIP3    H174597   0.434   3.416  11.253  0.1073  0.6282  1.7927
17702TIP3    H274598   0.447   3.272  11.299 -0.9008 -0.5586 -1.3191
17703TIP3   OH274599   1.161   4.182  13.571 -0.0292 -0.0085 -0.0875
17703TIP3    H174600   1.219   4.149  13.640  0.8844 -1.0674 -1.3108
17703TIP3    H274601   1.172   4.277  13.575  0.5730 -0.0972  0.7313
17704TIP3   OH274602   0.918   1.783  15.289  0.4784  0.3463  0.1469
17704TIP3    H174603   0.887   1.694  15.275  1.1983  0.3484 -1.7937
17704TIP3    H274604   1.013   1.775  15.292  0.5029  0.8861  1.5377
17705TIP3   OH274605   2.044   1.163  28.901 -0.5772 -0.6974  0.3247
17705TIP3    H174606   1.981   1.095  28.878 -1.8865  0.3300  0.7754
17705TIP3    H274607   2.113   1.116  28.949 -0.7510 -1.9009 -0.5428
17706TIP3   OH274608   2.153   2.072   7.588 -0.1337  0.5963 -0.0445
17706TIP3    H174609   2.185   2.162   7.591 -1.1287  1.0002 -0.9789
17706TIP3    H274610   2.228   2.021   7.555 -0.0863  1.3468 -1.1423
17707TIP3   OH274611   0.745   1.606  39.874  0.5869  0.1054  0.1761
17707TIP3    H174612   0.722   1.542  39.806  1.0377  0.7464 -0.5930
17707TIP3    H274613   0.794   1.556  39.938  0.0293 -0.5445  0.1057
17708TIP3   OH274614   2.615   0.984  35.679  0.8152  0.5923 -0.2976
17708TIP3    H174615   2.695   1.027  35.708  0.7340  0.9098 -0.5381
17708TIP3    H274616   2.573   1.048  35.621  0.9572 -0.0075 -1.0798
17709TIP3   OH274617   0.190   0.352  13.049  0.3222  0.4409  0.0355
17709TIP3    H174618   0.136   0.361  12.971  0.5550  0.2078 -0.1524
17709TIP3    H274619   0.137   0.391  13.119  0.9476  2.5250 -0.5778
17710TIP3   OH274620   0.556   0.107   4.256 -0.2234 -0.3507  0.3764
17710TIP3    H174621   0.587   0.071   4.339  0.2909 -0.6410  0.0617
17710TIP3    H274622   0.469   0.069   4.244 -0.1625 -0.5674  0.6161
17711TIP3   OH274623   2.151   2.167   5.940 -0.4288 -0.2743 -0.8232
17711TIP3    H174624   2.168   2.140   6.030 -0.1668 -0.7608 -1.0171
17711TIP3    H274625   2.116   2.256   5.948 -1.0696 -0.5692 -0.1924
17712TIP3   OH274626   2.460   0.896   2.522  0.0782 -0.1299 -0.0678
17712TIP3    H174627   2.467   0.855   2.608  1.8353 -1.3260 -0.7221
17712TIP3    H274628   2.520   0.970   2.526  0.3065 -0.2978 -0.3038
17713TIP3   OH274629   2.792   3.741  34.501  0.1767 -0.6733  0.1611
17713TIP3    H174630   2.779   3.795  34.579  1.1150 -0.5260  0.2310
17713TIP3    H274631   2.767   3.797  34.428  1.4539  0.0030  0.2084
17714TIP3   OH274632   0.685   2.350  39.939  0.0730  0.1941  0.0800
17714TIP3    H174633   0.740   2.364  39.862 -0.0709  0.8240  0.0907
17714TIP3    H274634   0.687   2.255  39.952  0.3919  0.1171 -0.4829
17715TIP3   OH274635   2.821   2.374   5.014  0.2664 -0.0449  0.0386
17715TIP3    H174636   2.877   2.309   4.970 -0.7506 -0.7780 -0.2119
17715TIP3    H274637   2.869   2.397   5.093 -0.7593 -3.6861  1.9757
17716TIP3   OH274638   4.290   3.880   4.293 -0.0470 -0.3694  0.1397
17716TIP3    H174639   4.230   3.925   4.235  0.9717  0.8736  0.0099
17716TIP3    H274640   4.264   3.788   4.289 -1.4052  0.0330 -0.5231
17717TIP3   OH274641   2.398   3.855  38.561 -0.5707 -0.2872 -0.0625
17717TIP3    H174642   2.447   3.783  38.520 -0.5123 -1.7709  2.3778
17717TIP3    H274643   2.460   3.928  38.563 -0.4578 -0.2829 -2.1458
17718TIP3   OH274644   1.651   1.385   8.190 -0.1232 -0.0893 -0.1921
17718TIP3    H174645   1.572   1.371   8.139  0.3812 -3.3960 -0.3178
17718TIP3    H274646   1.620   1.403   8.279 -0.9961  0.7149 -0.6525
17719TIP3   OH274647   4.402   0.531   2.100 -0.2754  0.4252  0.3781
17719TIP3    H174648   4.346   0.460   2.131  0.6545 -1.1832 -1.4680
17719TIP3    H274649   4.345   0.582   2.042 -0.6841  0.6996  0.9990
17720TIP3   OH274650   0.231   0.922  32.931  0.5357 -0.0067 -0.5570
17720TIP3    H174651   0.223   0.871  32.851 -0.2745 -1.2972  0.3106
17720TIP3    H274652   0.215   0.859  33.001  1.4533  1.0444  0.6376
17721TIP3   OH274653   2.372   2.741  38.239  0.5193 -0.2461  0.0092
17721TIP3    H174654   2.324   2.762  38.320 -0.5531 -0.7663 -0.4641
17721TIP3    H274655   2.425   2.818  38.221 -0.5659  0.5829  0.2707
17722TIP3   OH274656   1.931   2.287  38.361  0.3230 -0.2446 -0.1583
17722TIP3    H174657   1.848   2.264  38.402  0.1689 -0.7245 -0.7114
17722TIP3    H274658   1.932   2.237  38.279  1.1651 -0.2635 -0.1521
17723TIP3   OH274659   2.986   1.562  38.946  0.3659  0.2210 -0.4239
17723TIP3    H174660   3.027   1.587  39.029  0.1617 -0.6685 -0.0411
17723TIP3    H274661   3.014   1.472  38.932  0.3445  0.3452 -1.2955
17724TIP3   OH274662   4.213   1.626  23.874  0.6232 -0.2436  0.1065
17724TIP3    H174663   4.265   1.547  23.860  0.0086 -0.5508 -0.5120
17724TIP3    H274664   4.225   1.677  23.794  2.4265  1.1534  1.1662
17725TIP3   OH274665   3.113   3.901   2.254 -0.3245 -0.4002  0.5694
17725TIP3    H174666   3.133   3.882   2.346  0.4913  0.9246  0.6872
17725TIP3    H274667   3.113   3.996   2.249  2.2027 -0.3896 -1.3120
17726TIP3   OH274668   2.584   0.821  36.298 -0.3083 -0.0815 -0.1687
17726TIP3    H174669   2.519   0.752  36.311  0.2174 -0.7322 -0.8719
17726TIP3    H274670   2.534   0.902  36.305 -0.5689 -0.4121  2.7669
17727TIP3   OH274671   2.838   0.655   3.669 -0.5874  0.1994  0.7080
17727TIP3    H174672   2.749   0.620   3.662 -0.9318  1.0839  0.5419
17727TIP3    H274673   2.851   0.669   3.763 -0.5980  0.0174  0.7375
17728TIP3   OH274674   4.129   0.465  33.811  0.2664  0.4383  0.9942
17728TIP3    H174675   4.106   0.386  33.762 -1.8136  0.7451  1.3837
17728TIP3    H274676   4.057   0.477  33.873  0.5191  2.6282  0.9479
17729TIP3   OH274677   3.028   0.515   3.515  0.1554 -0.1957  0.1059
17729TIP3    H174678   3.076   0.488   3.594 -2.4936 -1.3542  1.4566
17729TIP3    H274679   2.952   0.564   3.548 -0.2436  0.6009 -1.8353
17730TIP3   OH274680   3.230   1.532   7.802 -0.8098 -0.4192  0.0255
17730TIP3    H174681   3.207   1.620   7.773 -1.1863 -0.5893 -0.1992
17730TIP3    H274682   3.249   1.484   7.722  0.6854 -0.1951  0.2169
17731TIP3   OH274683   2.626   0.277   1.470  0.2613 -0.3965  0.1265
17731TIP3    H174684   2.652   0.357   1.515 -1.2477 -0.2041  0.6928
17731TIP3    H274685   2.708   0.243   1.432  1.2062  0.5043  1.2922
17732TIP3   OH274686   0.169   1.518  35.154  0.1451 -0.7788 -0.0462
17732TIP3    H174687   0.158   1.499  35.247 -0.0136 -1.4037 -0.1831
17732TIP3    H274688   0.163   1.613  35.147  2.0805 -0.5530  0.8278
17733TIP3   OH274689   0.909   1.550  35.274  0.0977 -0.0763 -0.1883
17733TIP3    H174690   0.919   1.599  35.356  0.3340  0.4988 -0.5525
17733TIP3    H274691   0.995   1.555  35.232  0.0103 -0.4654 -0.4245
17734TIP3   OH274692   0.835   1.392  14.446 -0.3918  0.1094 -0.0374
17734TIP3    H174693   0.890   1.363  14.373  0.2375  0.3217  0.3376
17734TIP3    H274694   0.845   1.323  14.511 -0.0920  0.4318  0.2643
17735TIP3   OH274695   3.964   4.376   7.061  0.1776 -0.5701 -0.3113
17735TIP3    H174696   4.024   4.306   7.037 -0.5254 -1.1913 -0.2911
17735TIP3    H274697   3.905   4.385   6.986  0.2755  0.0177 -0.3251
17736TIP3   OH274698   1.292   0.794  32.627  0.7534 -0.5301  0.6603
17736TIP3    H174699   1.295   0.704  32.595 -1.3653 -0.3288 -0.2772
17736TIP3    H274700   1.243   0.788  32.709  1.9397 -0.4054  1.3953
17737TIP3   OH274701   4.073   4.168  32.514  0.2369 -0.5987 -0.5190
17737TIP3    H174702   4.086   4.133  32.602 -0.2129  2.6838  1.0216
17737TIP3    H274703   4.001   4.118  32.478  0.0848 -1.6756  1.1994
17738TIP3   OH274704   0.550   3.444   0.972 -0.1940 -0.2620  0.1505
17738TIP3    H174705   0.615   3.386   1.012  0.5771 -0.1082 -0.8625
17738TIP3    H274706   0.498   3.387   0.916  0.4489 -0.0133 -0.7069
17739TIP3   OH274707   1.947   1.057  37.816 -0.6367 -0.1025  0.1325
17739TIP3    H174708   2.024   1.011  37.783 -0.2555  0.9962 -0.5807
17739TIP3    H274709   1.929   1.017  37.901 -1.3932 -2.7367 -1.1565
17740TIP3   OH274710   0.469   2.674   1.692 -0.5176  0.0357 -0.8679
17740TIP3    H174711   0.398   2.738   1.691  0.0221  0.9068  2.8863
17740TIP3    H274712   0.549   2.726   1.698  0.0335 -0.8996  0.5379
17741TIP3   OH274713   1.855   3.920  38.899 -0.2272  0.0232 -0.2957
17741TIP3    H174714   1.773   3.910  38.851 -0.3834  0.0410 -0.0350
17741TIP3    H274715   1.853   3.848  38.963 -0.5862  0.7195  0.4930
17742TIP3   OH274716   1.898   4.378  27.608 -0.3054 -0.2748  0.3562
17742TIP3    H174717   1.917   4.285  27.599  1.8248 -0.0040  1.5140
17742TIP3    H274718   1.975   4.415  27.651 -0.0513  2.4312 -2.0874
17743TIP3   OH274719   3.823   1.417  30.512  0.5772 -0.0222  0.2561
17743TIP3    H174720   3.772   1.494  30.490  1.1778  0.3490  0.1366
17743TIP3    H274721   3.759   1.346  30.515  0.2105  0.2373 -0.8946
17744TIP3   OH274722   1.608   3.366   3.107 -0.0716 -0.3962 -0.4163
17744TIP3    H174723   1.519   3.331   3.113  0.0803 -1.2229 -2.3054
17744TIP3    H274724   1.613   3.432   3.176 -3.1238  1.8174 -2.0805
17745TIP3   OH274725   2.639   3.558  27.073  0.4056 -0.7566  0.0015
17745TIP3    H174726   2.659   3.466  27.091 -2.2296 -1.0752  1.7024
17745TIP3    H274727   2.586   3.555  26.993 -1.5986 -1.0323  1.2715
17746TIP3   OH274728   0.633   0.671   0.234  0.1758  0.3196 -0.8373
17746TIP3    H174729   0.562   0.722   0.195 -0.4352  0.3294  0.2462
17746TIP3    H274730   0.677   0.732   0.294 -0.2790 -0.2749  0.1360
17747TIP3   OH274731   1.226   1.075   0.595 -0.2960 -0.2330 -0.3552
17747TIP3    H174732   1.145   1.035   0.626 -1.3437 -0.3070 -2.9422
17747TIP3    H274733   1.275   1.002   0.556 -0.5229  0.3046 -1.7290
17748TIP3   OH274734   0.499   3.959  29.766  0.0617 -0.3280 -0.4878
17748TIP3    H174735   0.565   4.011  29.721  0.9302 -0.2580  0.8184
17748TIP3    H274736   0.437   3.935  29.697  1.6255 -0.7154 -1.8301
17749TIP3   OH274737   2.698   1.406  34.168 -0.0784 -0.3781  0.3060
17749TIP3    H174738   2.712   1.371  34.256 -0.0801 -2.0354 -0.3196
17749TIP3    H274739   2.650   1.488  34.182 -1.4625 -1.3750  1.7748
17750TIP3   OH274740   1.559   0.253  11.974 -0.0904  0.2336 -0.4811
17750TIP3    H174741   1.581   0.238  11.882 -2.7088  0.1412 -1.1772
17750TIP3    H274742   1.513   0.337  11.974 -0.6523 -0.0581  0.6460
17751TIP3   OH274743   3.254   1.468  27.177 -0.2695 -0.0224 -0.4965
17751TIP3    H174744   3.227   1.438  27.090 -3.0939  0.4299  0.1527
17751TIP3    H274745   3.190   1.429  27.237  0.6350  1.0280  1.2173
17752TIP3   OH274746   0.727   1.152   8.749  0.3041 -0.2396 -0.1268
17752TIP3    H174747   0.718   1.210   8.673  2.3781  0.5432  0.1666
17752TIP3    H274748   0.713   1.064   8.714  1.2463  0.1041 -1.4520
17753TIP3   OH274749   4.099   2.463  27.590 -0.7219  0.9401  0.1786
17753TIP3    H174750   4.143   2.421  27.664 -0.3022  2.0287  0.5600
17753TIP3    H274751   4.045   2.393  27.552  1.3559 -0.4598 -0.3503
17754TIP3   OH274752   3.865   1.637  25.140 -0.4881  0.3848 -0.0834
17754TIP3    H174753   3.772   1.628  25.160 -0.1675  0.9676  1.8922
17754TIP3    H274754   3.909   1.620  25.223  1.1161  1.0658 -0.7600
17755TIP3   OH274755   1.216   3.419  31.612  0.1385 -0.1355 -0.1921
17755TIP3    H174756   1.249   3.339  31.571 -0.1714  0.2350 -1.1781
17755TIP3    H274757   1.182   3.389  31.697 -1.9761 -1.4441 -1.4339
17756TIP3   OH274758   0.635   3.943   3.777  0.5292  0.4089  0.6306
17756TIP3    H174759   0.715   3.892   3.788  1.0065  1.4255  2.3567
17756TIP3    H274760   0.629   3.959   3.682  2.6652  0.7375  0.4976
17757TIP3   OH274761   4.062   2.537  38.252  0.2229  0.1559 -0.1082
17757TIP3    H174762   4.121   2.483  38.200  0.9646  0.1645  0.7094
17757TIP3    H274763   4.119   2.597  38.300 -0.4390  0.1247  0.7481
17758TIP3   OH274764   0.410   2.079  30.807 -0.3425 -0.0995 -0.6059
17758TIP3    H174765   0.475   2.015  30.779  0.7950  0.7277  0.0713
17758TIP3    H274766   0.453   2.128  30.877 -2.4538 -0.9729  1.4373
17759TIP3   OH274767   0.754   4.336   8.711 -0.1635  0.0742  0.5359
17759TIP3    H174768   0.708   4.407   8.666  1.5235  0.4907 -0.6362
17759TIP3    H274769   0.686   4.291   8.761 -2.2172 -0.4436 -2.4409
17760TIP3   OH274770   2.436   3.401  18.182 -0.1091  0.1593 -0.3114
17760TIP3    H174771   2.366   3.448  18.137  2.3468  1.3088 -3.3486
17760TIP3    H274772   2.497   3.469  18.209  0.3107 -0.8730  1.4998
17761TIP3   OH274773   0.168   1.446  25.585 -0.0187 -0.1073 -0.3211
17761TIP3    H174774   0.224   1.390  25.639 -0.9822  1.3652  2.4164
17761TIP3    H274775   0.091   1.393  25.566 -0.3452 -0.1874  1.1193
17762TIP3   OH274776   2.525   1.081  30.514  0.5448  0.4810 -0.2943
17762TIP3    H174777   2.459   1.151  30.523 -0.1190 -0.0603 -0.8294
17762TIP3    H274778   2.480   1.012  30.466  1.1170 -0.4241  0.4332
17763TIP3   OH274779   0.615   3.891  38.436 -0.1426  0.0694 -0.6353
17763TIP3    H174780   0.622   3.831  38.510 -0.9387  0.8666  0.1097
17763TIP3    H274781   0.684   3.956  38.450 -0.3756  0.2937 -0.5271
17764TIP3   OH274782   0.238   3.336  25.859 -0.3035  0.1041 -0.2692
17764TIP3    H174783   0.249   3.337  25.764  0.0881 -0.9051 -0.2471
17764TIP3    H274784   0.318   3.375  25.894 -1.4498  2.8193 -0.3746
17765TIP3   OH274785   1.603   3.721  34.493  0.3935 -0.5085 -0.4759
17765TIP3    H174786   1.683   3.672  34.476  0.5493  0.0221 -1.3383
17765TIP3    H274787   1.574   3.749  34.406  0.6969  1.5262  0.0406
17766TIP3   OH274788   3.470   1.091  26.160 -0.1632  0.1270  0.2482
17766TIP3    H174789   3.451   1.002  26.189 -0.1522  0.4902  1.4059
17766TIP3    H274790   3.411   1.146  26.211 -0.1127  0.7947 -0.4048
17767TIP3   OH274791   4.391   0.202   8.208  0.1725 -0.5888 -0.0361
17767TIP3    H174792   4.437   0.276   8.170 -1.2059  0.0326 -0.5678
17767TIP3    H274793   4.457   0.156   8.260  1.4662  0.0050 -1.1109
17768TIP3   OH274794   0.415   1.603  32.474 -0.6232  0.9246  0.4782
17768TIP3    H174795   0.428   1.551  32.553  1.5856  1.5115  0.5717
17768TIP3    H274796   0.388   1.539  32.408 -0.9709  0.1661  1.3322
17769TIP3   OH274797   1.499   3.918  11.598  0.3342  0.1115  0.5561
17769TIP3    H174798   1.483   3.884  11.510 -0.2831  1.3756  0.1571
17769TIP3    H274799   1.423   3.889  11.649  0.1698  0.2851  0.4072
17770TIP3   OH274800   3.058   4.138  32.607  0.0314  0.0352 -0.2551
17770TIP3    H174801   3.019   4.058  32.574  0.5370  0.3524 -1.6907
17770TIP3    H274802   3.149   4.115  32.627  0.4783  0.4559 -1.6587
17771TIP3   OH274803   1.371   2.336  31.683  0.0711  0.5859 -0.5365
17771TIP3    H174804   1.423   2.384  31.619  0.7611  0.1057 -0.3405
17771TIP3    H274805   1.406   2.365  31.768 -1.5277  2.0279 -0.3049
17772TIP3   OH274806   3.159   1.986  35.507  0.7403  0.7677  0.5869
17772TIP3    H174807   3.090   1.925  35.477  1.7677 -0.1284 -0.0333
17772TIP3    H274808   3.125   2.072  35.484 -0.6617  0.4425  1.2888
17773TIP3   OH274809   3.567   0.175  29.277  0.2729 -0.2955 -0.1742
17773TIP3    H174810   3.601   0.263  29.295  3.0874 -1.3832  0.3021
17773TIP3    H274811   3.605   0.120  29.346 -1.9120 -1.8347 -0.0973
17774TIP3   OH274812   0.539   0.670   8.570 -0.4101  0.7986 -0.4896
17774TIP3    H174813   0.590   0.684   8.649  1.7879 -1.8935 -1.2788
17774TIP3    H274814   0.454   0.638   8.602  1.1746 -2.4845  0.9231
17775TIP3   OH274815   3.322   1.698   9.197 -0.2160  0.5922  0.1717
17775TIP3    H174816   3.307   1.764   9.265 -1.2583 -0.6611  1.2167
17775TIP3    H274817   3.413   1.672   9.208 -0.0830  1.1512  0.4023
17776TIP3   OH274818   2.903   4.207   3.912 -0.7292 -0.6795 -0.2403
17776TIP3    H174819   2.901   4.251   3.828 -0.2573 -1.4539 -0.6756
17776TIP3    H274820   2.910   4.114   3.890  0.6368 -0.8147  0.6416
17777TIP3   OH274821   2.119   1.371  35.974 -0.6341  0.0626 -0.0630
17777TIP3    H174822   2.204   1.329  35.960 -0.8598 -1.3643  2.2585
17777TIP3    H274823   2.057   1.319  35.923 -0.6000 -1.2647  1.1738
17778TIP3   OH274824   2.483   0.124  13.571 -0.5619 -0.1731 -0.0663
17778TIP3    H174825   2.554   0.062  13.585  1.0978  1.7257  0.3239
17778TIP3    H274826   2.435   0.124  13.654  1.0137  0.9514  0.8953
17779TIP3   OH274827   1.509   1.401  10.410  0.8404  0.2650 -0.1539
17779TIP3    H174828   1.527   1.378  10.319 -0.5792  0.6595 -0.5484
17779TIP3    H274829   1.595   1.403  10.452  1.4175 -0.9585 -1.2356
17780TIP3   OH274830   2.805   4.369   0.417 -0.1399  0.3157 -0.2608
17780TIP3    H174831   2.874   4.435   0.413  0.1299  0.0985  0.6564
17780TIP3    H274832   2.839   4.296   0.366 -1.4673  1.7534 -3.4581
17781TIP3   OH274833   2.905   1.435   8.764  0.2297 -0.3651  0.2706
17781TIP3    H174834   2.818   1.454   8.798  0.5605 -0.0976  0.9733
17781TIP3    H274835   2.962   1.439   8.840  0.7818 -1.0572 -0.0953
17782TIP3   OH274836   2.903   0.295  12.486 -0.0055 -0.0878  0.1105
17782TIP3    H174837   2.993   0.304  12.454 -0.2251 -0.1421 -0.5367
17782TIP3    H274838   2.907   0.224  12.550  0.3359 -0.3659 -0.2141
17783TIP3   OH274839   0.902   2.396   6.580  0.7061 -0.0414 -0.5809
17783TIP3    H174840   0.829   2.334   6.584 -0.6566  1.5049 -0.2344
17783TIP3    H274841   0.936   2.388   6.491  0.2887 -0.9817 -0.6661
17784TIP3   OH274842   4.000   3.957  11.039 -0.3233 -0.3850  0.0875
17784TIP3    H174843   4.052   3.975  11.117  0.2444  1.1855 -0.6183
17784TIP3    H274844   3.946   4.034  11.027 -1.2499 -1.0942 -0.4352
17785TIP3   OH274845   1.398   2.840   5.886  0.4880 -0.0412 -0.6304
17785TIP3    H174846   1.435   2.880   5.965 -0.4443 -0.1658 -0.1151
17785TIP3    H274847   1.469   2.844   5.822  0.5589  2.1162 -0.5008
17786TIP3   OH274848   1.074   0.280  39.310 -0.0381  0.5558  0.1017
17786TIP3    H174849   1.093   0.339  39.237  0.9720 -0.3135 -0.3767
17786TIP3    H274850   1.083   0.193  39.273 -2.1846  0.0540  0.6211
17787TIP3   OH274851   0.457   0.474  33.269  0.5654  0.1371  0.2093
17787TIP3    H174852   0.366   0.452  33.247  0.0053  0.6514  1.8886
17787TIP3    H274853   0.471   0.559  33.228  0.3662 -0.0458 -0.2432
17788TIP3   OH274854   3.889   0.116  29.201  0.2448 -0.2841 -0.0608
17788TIP3    H174855   3.850   0.186  29.148  1.5560  0.2890 -0.3229
17788TIP3    H274856   3.820   0.090  29.262 -1.1915 -0.7141 -1.7901
17789TIP3   OH274857   3.381   3.112  31.740  0.0153  0.2633  0.0766
17789TIP3    H174858   3.384   3.114  31.645  0.2706 -0.3091  0.0712
17789TIP3    H274859   3.441   3.182  31.768 -0.9188  1.1985 -0.1798
17790TIP3   OH274860   0.772   0.968  34.190  0.4700  0.4891  0.0877
17790TIP3    H174861   0.834   0.896  34.198 -0.0722 -0.0524 -0.4298
17790TIP3    H274862   0.712   0.957  34.264 -0.2514 -0.2436 -0.5856
17791TIP3   OH274863   3.193   4.261   9.919  0.0986 -0.3520  0.1213
17791TIP3    H174864   3.281   4.299   9.917  0.4931 -1.3032 -1.1183
17791TIP3    H274865   3.157   4.291  10.003  0.8747  1.6400 -0.2074
17792TIP3   OH274866   3.964   2.307   8.262 -0.2446  0.2615 -0.6154
17792TIP3    H174867   3.895   2.271   8.316 -0.5361  0.4882 -0.8338
17792TIP3    H274868   4.024   2.234   8.247  1.0115  0.6923  1.8272
17793TIP3   OH274869   0.478   4.117   7.618  0.0939  0.0665  0.0864
17793TIP3    H174870   0.536   4.133   7.693  0.3557 -0.3622 -0.0195
17793TIP3    H274871   0.458   4.023   7.623 -0.1892  0.1110 -0.1675
17794TIP3   OH274872   3.643   3.548  35.597 -0.4824 -0.0904  0.1631
17794TIP3    H174873   3.592   3.618  35.637 -1.4627 -1.0489  0.6443
17794TIP3    H274874   3.734   3.570  35.619 -0.9086 -0.0468  2.0967
17795TIP3   OH274875   4.223   3.535  35.440  0.2472  0.1747 -0.3695
17795TIP3    H174876   4.178   3.486  35.372 -2.7100 -2.0799  2.9229
17795TIP3    H274877   4.279   3.471  35.483 -0.2068  0.7603  1.1557
17796TIP3   OH274878   3.168   0.948  39.864  0.6812 -0.3199 -0.6133
17796TIP3    H174879   3.189   0.874  39.807  0.3200 -0.5087 -0.5102
17796TIP3    H274880   3.130   1.013  39.805  1.2646 -0.0984 -0.7520
17797TIP3   OH274881   1.321   2.586  14.128  0.2133 -0.0538  0.1332
17797TIP3    H174882   1.276   2.651  14.183  2.3994  0.1133  1.8608
17797TIP3    H274883   1.376   2.638  14.070 -0.6902 -0.3026 -0.9788
17798TIP3   OH274884   2.445   2.059   2.130 -0.4528 -0.1362 -0.5614
17798TIP3    H174885   2.519   2.001   2.113 -1.4262 -1.2961 -0.9055
17798TIP3    H274886   2.449   2.124   2.060  1.6306  1.3083  0.7461
17799TIP3   OH274887   0.914   4.181  31.520  0.5941  0.4539  0.3304
17799TIP3    H174888   0.924   4.228  31.602  1.5277 -0.6751  0.9097
17799TIP3    H274889   0.822   4.190  31.497  0.4243  1.1862  1.2551
17800TIP3   OH274890   4.373   3.682  39.104 -0.5499  0.3978  0.1720
17800TIP3    H174891   4.356   3.609  39.163  0.7883  1.4153  1.9247
17800TIP3    H274892   4.468   3.684  39.094 -0.7388  0.1740 -2.2013
17801TIP3   OH274893   2.667   2.213  33.656  0.0583 -0.2810  0.4769
17801TIP3    H174894   2.694   2.165  33.734  0.7919 -0.4951  0.1039
17801TIP3    H274895   2.643   2.300  33.688  0.3711 -0.3610  0.9380
17802TIP3   OH274896   1.449   1.363  12.958 -0.4248  0.2739  0.1473
17802TIP3    H174897   1.495   1.444  12.938  0.4880 -0.6917 -2.0015
17802TIP3    H274898   1.359   1.389  12.975  0.0691  1.8175  0.4941
17803TIP3   OH274899   3.318   1.617   6.706  0.0001  0.0534 -0.1041
17803TIP3    H174900   3.391   1.557   6.720 -1.2427 -1.6728 -0.5657
17803TIP3    H274901   3.341   1.665   6.627  0.4559 -0.7888 -0.5031
17804TIP3   OH274902   3.775   1.534   6.095 -0.2640 -0.1140  0.6672
17804TIP3    H174903   3.690   1.492   6.079 -0.6338  0.8151  0.1634
17804TIP3    H274904   3.774   1.553   6.189 -0.7222  0.1360  0.6130
17805TIP3   OH274905   3.765   3.457  21.987 -0.1862 -0.3389  0.1145
17805TIP3    H174906   3.788   3.404  22.064  3.1085  2.1633  1.0879
17805TIP3    H274907   3.838   3.443  21.926 -1.1689  0.1538 -1.2151
17806TIP3   OH274908   1.005   2.676  30.851 -0.3905  0.1107 -0.2832
17806TIP3    H174909   1.030   2.697  30.941  0.4941  2.6773 -1.0403
17806TIP3    H274910   1.088   2.670  30.803 -0.8901  1.3605 -1.3918
17807TIP3   OH274911   4.067   2.189  33.416 -0.3099 -0.1390 -0.3675
17807TIP3    H174912   4.118   2.226  33.488 -0.0553 -0.9324 -0.1305
17807TIP3    H274913   3.979   2.179  33.451 -0.7684  1.6086 -0.9022
17808TIP3   OH274914   0.829   4.030  32.248  0.3528 -0.2596 -0.4777
17808TIP3    H174915   0.896   4.074  32.301 -0.4169  0.6939 -0.2516
17808TIP3    H274916   0.870   3.950  32.218  0.7356 -0.9820  1.8094
17809TIP3   OH274917   3.020   3.578  32.210  0.3828  0.1645 -0.7796
17809TIP3    H174918   2.929   3.603  32.200  0.3652 -0.3819 -2.3940
17809TIP3    H274919   3.023   3.526  32.290 -0.9076 -0.5821 -1.1855
17810TIP3   OH274920   2.308   3.282  11.128  0.3661 -0.6302  0.4233
17810TIP3    H174921   2.301   3.258  11.036 -0.8225 -0.8121  0.5483
17810TIP3    H274922   2.218   3.299  11.155  0.8969  1.5446  0.9920
17811TIP3   OH274923   3.085   0.023   0.591 -0.1721 -0.2384 -0.2158
17811TIP3    H174924   3.103   0.086   0.520 -0.8191  0.1638 -0.0295
17811TIP3    H274925   3.095  -0.063   0.549  2.7398 -0.1054  0.0028
17812TIP3   OH274926   2.258   1.996  13.081  0.1718  0.0214  0.0940
17812TIP3    H174927   2.271   2.091  13.074 -1.5960  0.3377  0.6595
17812TIP3    H274928   2.277   1.963  12.993 -0.4189  1.0849 -0.4575
17813TIP3   OH274929   1.329   0.649  15.901  0.4202 -0.3365 -0.1524
17813TIP3    H174930   1.243   0.658  15.941  0.5346 -0.8960  0.2390
17813TIP3    H274931   1.324   0.701  15.821  0.0342  0.4110  0.3481
17814TIP3   OH274932   0.174   1.719  20.541 -0.3540  0.4801 -0.2160
17814TIP3    H174933   0.138   1.630  20.533  2.1078 -0.5993 -0.1464
17814TIP3    H274934   0.110   1.765  20.595 -1.0094 -1.6864  1.0113
17815TIP3   OH274935   0.139   1.955  36.942  0.1423  0.1115  0.1216
17815TIP3    H174936   0.158   1.934  36.851  2.0912  1.5645  0.1440
17815TIP3    H274937   0.222   1.944  36.988 -0.3963  1.0143  1.3886
17816TIP3   OH274938   0.004   2.207  33.835  0.0783 -0.5633  0.3126
17816TIP3    H174939   0.010   2.112  33.845 -0.2400 -0.8096 -1.5197
17816TIP3    H274940  -0.055   2.235  33.905 -1.1886 -1.9541 -0.1454
17817TIP3   OH274941   3.574   1.929  37.413  0.1708 -0.6481  0.3367
17817TIP3    H174942   3.647   1.952  37.470  0.4573  0.5211 -0.4452
17817TIP3    H274943   3.508   1.996  37.431 -1.1328 -2.2122  1.7046
17818TIP3   OH274944   0.771   2.358  33.845  0.2527  0.7175  0.4599
17818TIP3    H174945   0.700   2.417  33.868 -1.1890 -1.2793  1.4130
17818TIP3    H274946   0.839   2.375  33.910 -0.4746  0.7781  1.2202
17819TIP3   OH274947   0.727   3.100  35.199  0.2947 -0.0821 -0.0903
17819TIP3    H174948   0.791   3.066  35.137  1.9266  0.1661  1.3870
17819TIP3    H274949   0.724   3.034  35.269  1.0151  1.1851  1.1762
17820TIP3   OH274950   3.998   4.370  37.928  0.2687  0.2133 -0.1596
17820TIP3    H174951   4.077   4.350  37.879  1.8414  0.6326  2.0663
17820TIP3    H274952   3.960   4.285  37.949 -0.4355  0.0332 -2.0322
17821TIP3   OH274953   4.000   0.905  40.313 -0.9008 -0.2770 -0.0358
17821TIP3    H174954   4.025   0.859  40.394 -1.9244 -0.3878  0.2365
17821TIP3    H274955   3.924   0.857  40.282 -1.4877  0.7390 -0.2025
17822TIP3   OH274956   2.802   0.554   8.573  0.4992  0.4354  0.3604
17822TIP3    H174957   2.870   0.498   8.537  1.5240  1.5355  0.5133
17822TIP3    H274958   2.723   0.500   8.572  1.5097 -1.1233  0.8478
17823TIP3   OH274959   2.458   0.046  34.753 -0.7063  0.5221 -0.1710
17823TIP3    H174960   2.522   0.059  34.683  0.1884  0.3306  0.5999
17823TIP3    H274961   2.416  -0.038  34.732 -1.3759  1.0916 -1.1816
17824TIP3   OH274962   0.287   2.365  37.580  0.2206  0.5432 -0.3799
17824TIP3    H174963   0.354   2.424  37.546  0.5959  0.4093  0.1025
17824TIP3    H274964   0.204   2.404  37.555  0.4618 -0.5551 -3.1748
17825TIP3   OH274965   4.269   3.047   1.798 -0.4575 -0.1421 -0.0787
17825TIP3    H174966   4.320   3.063   1.878 -0.8842 -1.8263  0.5590
17825TIP3    H274967   4.207   3.121   1.795 -0.7791 -0.3138  1.4374
17826TIP3   OH274968   1.933   3.615  13.733  0.5843  0.2189 -0.0668
17826TIP3    H174969   1.970   3.594  13.647 -2.3033 -1.2804 -1.1081
17826TIP3    H274970   1.933   3.533  13.781  1.3547  0.8528  1.0653
17827TIP3   OH274971   2.830   0.913   3.257  0.5009  0.2191  0.0921
17827TIP3    H174972   2.853   0.875   3.342 -0.7591 -0.9262 -0.0478
17827TIP3    H274973   2.783   0.844   3.211  1.7993  0.5608 -1.8828
17828TIP3   OH274974   2.575   2.984  34.104  0.5179  0.5875 -0.5661
17828TIP3    H174975   2.591   2.912  34.043 -0.6193 -0.9205  0.8103
17828TIP3    H274976   2.613   3.061  34.062  0.9286 -0.6317 -2.5401
17829TIP3   OH274977   0.559   1.117  32.274  0.2753  0.2070 -0.4685
17829TIP3    H174978   0.554   1.051  32.343  0.4763  0.3175 -0.3452
17829TIP3    H274979   0.593   1.069  32.198 -1.3027 -0.2356 -0.9258
17830TIP3   OH274980   1.564   0.119  16.765 -0.0805  0.4315  0.1827
17830TIP3    H174981   1.501   0.062  16.720 -1.0056  0.2932  1.5954
17830TIP3    H274982   1.600   0.064  16.835  2.2226  0.2571 -1.0269
17831TIP3   OH274983   0.961   2.289  35.385  0.0420  0.7210 -0.0777
17831TIP3    H174984   1.006   2.370  35.408 -0.5046  0.7449  0.9990
17831TIP3    H274985   0.878   2.318  35.346  0.3557  0.6802 -0.7752
17832TIP3   OH274986   4.095   0.168  40.213 -0.3607  0.2924 -0.6537
17832TIP3    H174987   4.159   0.142  40.146  0.2841  0.0276  0.0541
17832TIP3    H274988   4.148   0.197  40.287 -0.9904  3.6799 -1.3423
17833TIP3   OH274989   0.883   0.956  33.429  0.1625 -0.4883 -0.5009
17833TIP3    H174990   0.971   0.975  33.397 -0.7052  3.9711 -0.8463
17833TIP3    H274991   0.865   1.026  33.492 -2.5725 -2.2403  0.8620
17834TIP3   OH274992   2.025   0.535  39.710  0.4101 -0.0468 -0.1525
17834TIP3    H174993   2.020   0.628  39.688 -0.5165  0.0583  0.4523
17834TIP3    H274994   1.996   0.531  39.801 -1.8358 -1.2038 -0.8600
17835TIP3   OH274995   0.890   0.896  15.381 -0.0596 -0.2664  0.0211
17835TIP3    H174996   0.912   0.867  15.293 -0.5384 -0.2759 -0.1003
17835TIP3    H274997   0.802   0.932  15.373  0.3270  0.7460  0.2822
17836TIP3   OH274998   1.897   4.113  39.789 -0.0381 -1.1099  0.3516
17836TIP3    H174999   1.928   4.203  39.801 -0.9645 -0.5635 -1.0340
17836TIP3    H275000   1.931   4.066  39.864  0.8058  0.3154  0.9157
17837TIP3   OH275001   4.282   4.257   4.385  0.0501  0.0850 -0.0277
17837TIP3    H175002   4.210   4.292   4.436 -0.8797 -2.0014  0.1791
17837TIP3    H275003   4.360   4.299   4.422 -0.8729  0.9037  1.0558
17838TIP3   OH275004   0.256   4.072  26.262 -0.2941 -0.1264 -0.2710
17838TIP3    H175005   0.308   4.048  26.186 -0.6483  1.6031 -1.1156
17838TIP3    H275006   0.188   4.129  26.227 -1.9250 -1.2034  1.0219
17839TIP3   OH275007   4.008   2.809  34.449 -0.2260 -0.5883  0.0958
17839TIP3    H175008   4.001   2.772  34.537 -2.2637 -0.7544 -0.0834
17839TIP3    H275009   4.064   2.748  34.402  0.3062 -0.8817  1.0810
17840TIP3   OH275010   3.718   2.916  36.524  0.3386  0.2047 -0.6545
17840TIP3    H175011   3.798   2.956  36.489 -0.6400  1.5692 -1.4592
17840TIP3    H275012   3.664   2.899  36.447  0.1698 -1.5072 -0.1967
17841TIP3   OH275013   4.114   4.010  33.624  0.2118 -0.4638 -0.1965
17841TIP3    H175014   4.118   4.087  33.567  1.3625  0.2684  0.8081
17841TIP3    H275015   4.198   4.010  33.669 -1.1255 -0.2238  2.4879
17842TIP3   OH275016   0.431   1.101   4.019  0.5914  0.3256  0.6170
17842TIP3    H175017   0.419   1.024   4.075  0.2023 -0.5984 -0.6892
17842TIP3    H275018   0.344   1.119   3.983  1.2493 -0.6560 -1.6157
17843TIP3   OH275019   1.148   3.393  32.390 -0.3159 -0.3785  0.4210
17843TIP3    H175020   1.119   3.302  32.380  0.3524 -0.5457 -0.0496
17843TIP3    H275021   1.220   3.389  32.453 -1.2313  0.0326  1.5405
17844TIP3   OH275022   2.590   0.691  27.076  0.1214  0.3621 -0.2767
17844TIP3    H175023   2.650   0.717  27.146  0.5130  0.3352 -0.6019
17844TIP3    H275024   2.607   0.598  27.063  0.7052  0.5690 -1.0398
17845TIP3   OH275025   0.676   0.837  28.927  0.7142  0.1477  0.1451
17845TIP3    H175026   0.726   0.833  28.845  1.2699  1.0698  0.4356
17845TIP3    H275027   0.698   0.922  28.965 -1.9952  1.1399 -0.2927
17846TIP3   OH275028   2.950   0.335   5.071  0.2154  0.4417 -0.2118
17846TIP3    H175029   2.990   0.343   5.158  0.6680  0.1183 -0.3883
17846TIP3    H275030   2.987   0.407   5.021  0.9847 -0.1561 -0.5256
17847TIP3   OH275031   2.549   0.582   2.198 -0.1965  0.4821  0.4535
17847TIP3    H175032   2.631   0.535   2.179 -1.6284 -2.4960  1.0924
17847TIP3    H275033   2.513   0.602   2.111  0.6263  0.7420  0.1617
17848TIP3   OH275034   2.707   3.942  34.345  0.0436 -0.0992  0.8818
17848TIP3    H175035   2.622   3.979  34.370  0.2153  0.1308  1.1320
17848TIP3    H275036   2.723   3.977  34.257  0.2122  0.4450  1.1249
17849TIP3   OH275037   2.009   0.396  14.932  0.3962  0.2472  0.4115
17849TIP3    H175038   2.044   0.397  14.843 -1.5892 -1.5592 -0.4759
17849TIP3    H275039   1.923   0.438  14.925 -1.1595 -2.6460  0.7400
17850TIP3   OH275040   1.051   1.918   9.849  0.2732  0.2577 -0.4446
17850TIP3    H175041   1.130   1.864   9.860 -0.5351 -0.9286 -0.2991
17850TIP3    H275042   0.981   1.865   9.885 -0.5267  1.5343 -0.0660
17851TIP3   OH275043   3.227   1.163  32.416  0.4296  0.1250  0.2140
17851TIP3    H175044   3.287   1.197  32.482  1.5880  0.0569 -0.7626
17851TIP3    H275045   3.261   1.076  32.396 -0.6035 -0.3246  0.3603
17852TIP3   OH275046   3.951   3.063  41.415  0.1464  0.2474  0.0198
17852TIP3    H175047   3.993   3.024  41.492 -1.4476  1.6929  1.6882
17852TIP3    H275048   4.014   3.128  41.385  1.3796 -1.2418 -0.8081
17853TIP3   OH275049   0.723   3.850  27.019 -0.1591  0.3740 -0.4152
17853TIP3    H175050   0.771   3.805  27.090  1.1713  2.6912  0.2714
17853TIP3    H275051   0.660   3.905  27.064  0.6537  1.8258 -0.9932
17854TIP3   OH275052   4.349   1.705  40.169 -0.0797 -0.0973 -0.3316
17854TIP3    H175053   4.329   1.795  40.144 -0.4154 -0.8155 -2.8845
17854TIP3    H275054   4.442   1.694  40.148  0.5334  0.1678  1.8869
17855TIP3   OH275055   3.187   4.347  12.877  0.2057  0.0720 -0.2719
17855TIP3    H175056   3.139   4.417  12.832 -0.7137  0.5242  1.3220
17855TIP3    H275057   3.121   4.279  12.894  1.0206 -1.0774 -1.5226
17856TIP3   OH275058   1.919   0.440   6.050 -0.3143 -0.2146  0.1485
17856TIP3    H175059   1.835   0.400   6.025  0.1392 -0.5368 -0.9321
17856TIP3    H275060   1.895   0.516   6.102 -1.2176 -1.5733  1.8008
17857TIP3   OH275061   1.308   0.232  16.958 -0.0966 -0.3716  0.5734
17857TIP3    H175062   1.328   0.311  16.907  2.4556 -0.9620  0.5321
17857TIP3    H275063   1.298   0.263  17.048  0.5884  0.0411  0.5136
17858TIP3   OH275064   1.454   3.343   3.810 -0.6455  0.0863 -0.1317
17858TIP3    H175065   1.391   3.344   3.738 -0.9090 -0.3700  0.0931
17858TIP3    H275066   1.519   3.277   3.784 -0.1414  0.6907 -0.4554
17859TIP3   OH275067   1.560   3.080  10.511 -0.3150  0.0363 -0.4219
17859TIP3    H175068   1.469   3.109  10.502 -0.4688 -0.7158 -1.5307
17859TIP3    H275069   1.556   3.004  10.569 -0.9468 -2.1439 -3.0576
17860TIP3   OH275070   1.538   2.375  15.667  0.4462 -0.3680 -0.8075
17860TIP3    H175071   1.497   2.450  15.624 -1.2460  0.0069  1.2406
17860TIP3    H275072   1.616   2.412  15.710  1.3306 -0.4560 -2.2924
17861TIP3   OH275073   2.651   1.531  39.668 -0.3804 -0.0788  0.4940
17861TIP3    H175074   2.671   1.455  39.722 -0.6062 -0.1958  0.4151
17861TIP3    H275075   2.736   1.559  39.633 -0.3785 -0.7469 -0.0702
17862TIP3   OH275076   1.914   1.178   2.102  0.3628  0.0231 -0.5876
17862TIP3    H175077   1.838   1.236   2.109  0.1088 -0.3652 -0.0545
17862TIP3    H275078   1.886   1.097   2.145  1.5961  0.4127  1.0361
17863TIP3   OH275079   2.163   3.430  34.814  0.3888  0.0095  1.0324
17863TIP3    H175080   2.178   3.388  34.729 -1.5687  0.0549  0.6104
17863TIP3    H275081   2.131   3.517  34.792 -4.9553 -1.4975  1.4605
17864TIP3   OH275082   3.850   1.556  25.805 -0.3628 -0.0496 -0.0980
17864TIP3    H175083   3.884   1.632  25.758  0.3572  0.4772  1.2273
17864TIP3    H275084   3.801   1.593  25.878 -2.5327 -0.8342 -1.0817
17865TIP3   OH275085   1.220   0.337  38.566  0.0633  0.5057  0.0554
17865TIP3    H175086   1.292   0.291  38.523 -1.1685  1.0677 -2.7870
17865TIP3    H275087   1.195   0.406  38.505 -1.9681  1.2406  1.5926
17866TIP3   OH275088   2.547   2.024  35.276 -0.6036  0.0333 -0.0324
17866TIP3    H175089   2.557   2.044  35.182 -0.2679 -2.7572 -0.6806
17866TIP3    H275090   2.468   1.971  35.281  1.3544 -3.1186  0.5656
17867TIP3   OH275091   0.500   3.479  28.730 -0.7175 -0.0021 -0.3511
17867TIP3    H175092   0.583   3.493  28.776 -0.7403 -4.4541  1.5166
17867TIP3    H275093   0.434   3.479  28.799 -1.4792 -1.8451 -1.0202
17868TIP3   OH275094   1.181   2.802  35.574 -0.7592  0.1052  0.5331
17868TIP3    H175095   1.268   2.843  35.579 -0.4586 -0.4999  0.3923
17868TIP3    H275096   1.187   2.728  35.635 -0.5620 -1.0315 -0.8265
17869TIP3   OH275097   0.444   1.864  39.103  0.0347  0.7395  0.0253
17869TIP3    H175098   0.413   1.810  39.030 -1.8719  1.7774 -0.0209
17869TIP3    H275099   0.410   1.951  39.083 -0.4117  1.0774  2.0646
17870TIP3   OH275100   3.721   0.005   4.180 -0.1634 -0.1216 -0.8386
17870TIP3    H175101   3.797   0.041   4.225  1.2756 -0.9298 -2.4769
17870TIP3    H275102   3.757  -0.034   4.100 -2.3583 -0.1996 -1.8694
17871TIP3   OH275103   2.820   3.859  32.773  0.2429 -0.4010  0.1384
17871TIP3    H175104   2.808   3.952  32.753 -3.2888 -0.7502  0.0095
17871TIP3    H275105   2.904   3.855  32.819  0.3919  2.8808  0.3690
17872TIP3   OH275106   2.837   0.715   3.934 -0.1432 -0.3833 -0.4978
17872TIP3    H175107   2.844   0.807   3.911  1.4007 -0.1500  0.7362
17872TIP3    H275108   2.897   0.703   4.007 -3.2398 -1.4928  2.1376
17873TIP3   OH275109   2.597   3.774   6.740  0.5861 -0.0998  0.1065
17873TIP3    H175110   2.649   3.713   6.792 -0.2002  0.4004  1.5222
17873TIP3    H275111   2.640   3.859   6.753  3.2117 -0.5652 -3.8428
17874TIP3   OH275112   2.391   3.254   5.954  0.0762 -0.4690  0.2964
17874TIP3    H175113   2.448   3.272   6.029  1.1783 -0.1670 -0.5902
17874TIP3    H275114   2.440   3.191   5.902 -1.6380 -2.4540  0.9182
17875TIP3   OH275115   2.937   4.251  34.151  0.0622  0.0726  0.0171
17875TIP3    H175116   2.867   4.293  34.201 -0.3455  2.0943 -2.0720
17875TIP3    H275117   3.008   4.315  34.151  2.0032 -1.9312  2.0566
17876TIP3   OH275118   0.328   0.651  40.729  0.0863  0.1391  0.0641
17876TIP3    H175119   0.314   0.582  40.663  1.4446  0.4475 -0.5795
17876TIP3    H275120   0.296   0.731  40.687 -1.0597  0.0020  0.6365
17877TIP3   OH275121   3.855   2.315  31.855 -0.1138 -0.4887 -0.4074
17877TIP3    H175122   3.942   2.290  31.884  0.2818  0.4043 -0.7781
17877TIP3    H275123   3.858   2.305  31.759 -0.2800 -0.0807 -0.4600
17878TIP3   OH275124   4.166   2.710   6.657  0.0459 -0.2464 -0.3114
17878TIP3    H175125   4.253   2.715   6.615  0.0078 -1.4919 -0.5851
17878TIP3    H275126   4.162   2.788   6.712  1.9200 -0.8546  0.7902
17879TIP3   OH275127   1.771   1.454  30.431  0.0656 -0.4349  0.4080
17879TIP3    H175128   1.713   1.378  30.419 -0.8619  0.2818  0.2590
17879TIP3    H275129   1.856   1.423  30.400 -0.6781 -0.8883 -1.3444
17880TIP3   OH275130   4.034   3.643   4.518  0.7628  0.6592 -0.4664
17880TIP3    H175131   4.077   3.628   4.434  1.1889  1.2587 -0.3636
17880TIP3    H275132   4.085   3.713   4.559  0.4275  0.5233  0.1978
17881TIP3   OH275133   3.302   4.269  39.983 -0.5419  0.0876 -0.3173
17881TIP3    H175134   3.382   4.236  39.941 -0.3989 -1.9981  1.4576
17881TIP3    H275135   3.251   4.305  39.910  0.8937 -0.8402 -1.8606
17882TIP3   OH275136   0.554   3.247  41.530  0.3799  0.1597 -0.0095
17882TIP3    H175137   0.606   3.221  41.454 -0.5014  0.2579 -0.6571
17882TIP3    H275138   0.464   3.251  41.497 -0.2497 -1.3244  1.3857
17883TIP3   OH275139   0.892   2.108  38.443  0.0990 -0.6699 -0.0849
17883TIP3    H175140   0.978   2.109  38.400  0.0827 -0.8560 -0.1186
17883TIP3    H275141   0.877   2.016  38.465  0.7935 -0.4082  1.6540
17884TIP3   OH275142   2.373   4.062   2.916 -0.2067 -0.6964 -0.3708
17884TIP3    H175143   2.300   4.003   2.934 -0.1911 -0.6555 -0.1646
17884TIP3    H275144   2.331   4.146   2.894 -0.2213 -0.4653  0.4811
17885TIP3   OH275145   3.981   3.587   8.232  0.2178  0.7501  0.6673
17885TIP3    H175146   4.034   3.567   8.309  0.0720 -0.2141  0.5325
17885TIP3    H275147   3.931   3.507   8.216 -1.1590  1.5803  0.6873
17886TIP3   OH275148   0.242   0.999  39.604 -0.0833 -0.5476  0.3155
17886TIP3    H175149   0.330   1.001  39.641  0.4658  0.0364 -0.9451
17886TIP3    H275150   0.253   1.032  39.515 -1.7795  0.7189  0.5346
17887TIP3   OH275151   0.539   1.508   9.740  0.2879  0.2532 -0.2629
17887TIP3    H175152   0.466   1.469   9.789  0.8380  0.2859  0.5834
17887TIP3    H275153   0.518   1.601   9.737 -0.6292  0.0418 -1.6172
17888TIP3   OH275154   0.708   0.627  36.257  0.3064  0.3815 -0.1709
17888TIP3    H175155   0.758   0.701  36.292  0.8060 -0.4942  1.0262
17888TIP3    H275156   0.617   0.647  36.278  0.4059  0.8119 -0.1467
17889TIP3   OH275157   3.154   3.021  11.851 -0.4056 -0.2633  0.5931
17889TIP3    H175158   3.132   3.003  11.759  2.0652  0.3407 -0.1780
17889TIP3    H275159   3.069   3.027  11.894 -1.6269 -1.6826 -1.4117
17890TIP3   OH275160   1.383   4.196   5.674 -0.1179 -0.3333 -0.9110
17890TIP3    H175161   1.390   4.255   5.599  1.1316 -0.1084 -0.6266
17890TIP3    H275162   1.371   4.109   5.636  0.3868 -0.2038 -1.3692
17891TIP3   OH275163   2.240   2.612  12.369 -0.2855 -1.0199 -0.2209
17891TIP3    H175164   2.214   2.603  12.277 -0.0287 -0.8636 -0.3070
17891TIP3    H275165   2.314   2.552  12.379 -1.7559 -2.8306  0.4639
17892TIP3   OH275166   1.472   4.190  36.387  0.3985  0.1295 -0.8294
17892TIP3    H175167   1.563   4.215  36.373 -0.0318  2.6615  0.3024
17892TIP3    H275168   1.470   4.096  36.371  3.0463  0.1208 -1.5666
17893TIP3   OH275169   3.260   3.677  34.509 -0.1909 -1.0099 -0.5090
17893TIP3    H175170   3.242   3.620  34.584 -0.6852  0.3224  0.4066
17893TIP3    H275171   3.346   3.714  34.527 -1.1264  0.8340  0.4329
17894TIP3   OH275172   2.683   3.164  41.172 -0.4588  0.1429 -0.3120
17894TIP3    H175173   2.606   3.108  41.159 -0.8695  0.7130 -0.3339
17894TIP3    H275174   2.662   3.246  41.127 -0.4250  0.8354  0.9069
17895TIP3   OH275175   1.678   2.783   3.021 -0.5798 -0.4159 -0.4282
17895TIP3    H175176   1.643   2.865   3.056 -2.8498 -1.1539 -0.8750
17895TIP3    H275177   1.761   2.771   3.068 -1.1221  1.1440  1.0276
17896TIP3   OH275178   0.778   0.923   9.570  0.3240  0.6345 -0.0008
17896TIP3    H175179   0.742   0.891   9.653 -0.0098 -0.2928 -0.4932
17896TIP3    H275180   0.817   0.846   9.529 -1.3281  0.6103 -1.6577
17897TIP3   OH275181   3.781   3.126  38.355  0.0830  0.1631  0.6177
17897TIP3    H175182   3.837   3.086  38.422 -0.5665 -1.0118  0.4812
17897TIP3    H275183   3.827   3.109  38.273 -0.2422 -0.4203  0.5479
17898TIP3   OH275184   0.603   1.247  12.093  0.2075 -0.2627 -0.0058
17898TIP3    H175185   0.656   1.185  12.143 -0.6925 -1.1465 -0.1306
17898TIP3    H275186   0.543   1.285  12.158 -0.1199 -0.4889 -0.1750
17899TIP3   OH275187   1.750   3.052  17.100  0.3375 -0.0736 -0.3411
17899TIP3    H175188   1.683   3.120  17.106  0.6167  0.0744  1.9573
17899TIP3    H275189   1.701   2.971  17.084 -0.2969  0.2104  0.1323
17900TIP3   OH275190   3.785   0.278  30.506  0.1300  0.2487  0.4756
17900TIP3    H175191   3.834   0.259  30.426 -0.2968 -1.3318  0.5631
17900TIP3    H275192   3.703   0.230  30.497  0.7895 -1.4546  2.5853
17901TIP3   OH275193   3.557   2.373   6.292  0.3179  0.1189 -0.1935
17901TIP3    H175194   3.624   2.320   6.247  1.0591 -0.5754  1.6287
17901TIP3    H275195   3.477   2.320   6.287 -0.1276  0.9016 -2.2869
17902TIP3   OH275196   4.102   2.212   0.813  0.1053 -0.1319  0.2530
17902TIP3    H175197   4.183   2.252   0.844 -0.5663  0.4738  1.2695
17902TIP3    H275198   4.095   2.130   0.861 -0.1130  0.0422  0.5260
17903TIP3   OH275199   3.713   1.187  23.675  0.1370  0.4928 -0.0961
17903TIP3    H175200   3.782   1.137  23.719  0.9944 -0.1198 -2.0116
17903TIP3    H275201   3.725   1.277  23.706  1.8197  0.3997 -0.3880
17904TIP3   OH275202   1.874   3.592  36.669  0.2690  0.4860  0.5011
17904TIP3    H175203   1.832   3.677  36.652  1.3324  1.0169  0.4242
17904TIP3    H275204   1.819   3.551  36.735 -1.7630  0.0761 -1.3611
17905TIP3   OH275205   1.325   3.217  10.262 -0.3530 -0.0484  0.1374
17905TIP3    H175206   1.374   3.299  10.267 -1.0884  0.4405 -0.4037
17905TIP3    H275207   1.277   3.223  10.179 -1.8924 -0.1611  0.9733
17906TIP3   OH275208   1.719   3.890  16.969  0.2241 -0.4924 -0.0349
17906TIP3    H175209   1.726   3.983  16.992  1.3651 -0.3928 -0.7026
17906TIP3    H275210   1.752   3.844  17.046  1.0853 -0.2836 -0.2730
17907TIP3   OH275211   3.674   2.676   3.089  0.2045 -0.0009 -0.2700
17907TIP3    H175212   3.584   2.687   3.058  0.6627 -0.0064 -1.6895
17907TIP3    H275213   3.681   2.583   3.110  0.0623 -0.1351 -0.8019
17908TIP3   OH275214   2.530   2.073   8.351  0.0368  0.1327  0.5118
17908TIP3    H175215   2.551   1.979   8.349 -2.1658 -0.4138  0.4291
17908TIP3    H275216   2.520   2.097   8.259 -5.0268 -1.0648  0.4848
17909TIP3   OH275217   0.393   3.755  27.341  0.3541 -0.3184  0.0291
17909TIP3    H175218   0.299   3.772  27.339  0.7542  2.3559 -0.8092
17909TIP3    H275219   0.410   3.709  27.259 -0.3092 -1.7456  0.6516
17910TIP3   OH275220   2.638   0.304  31.848 -0.0831 -0.3215 -0.5107
17910TIP3    H175221   2.620   0.265  31.762  1.6303 -1.9161 -0.2240
17910TIP3    H275222   2.725   0.342  31.839  0.8521 -1.9619  0.9227
17911TIP3   OH275223   2.255   2.786  39.382 -0.4293 -0.1246 -0.0809
17911TIP3    H175224   2.247   2.837  39.463 -3.7048  1.4091 -1.1922
17911TIP3    H275225   2.241   2.695  39.410  0.7107  0.0831  1.3026
17912TIP3   OH275226   0.453   0.059   2.780  0.0897 -0.2436 -0.3805
17912TIP3    H175227   0.490   0.029   2.863  2.3924 -2.7473 -2.1115
17912TIP3    H275228   0.502   0.137   2.758 -0.5868  0.4788  0.5859
17913TIP3   OH275229   1.551   3.991   8.498  0.1804 -0.6050  0.0595
17913TIP3    H175230   1.618   3.998   8.430 -0.0533 -1.0375 -0.2230
17913TIP3    H275231   1.526   4.081   8.517 -0.1212 -0.5060 -0.7997
17914TIP3   OH275232   2.268   0.905  41.055  0.3231 -0.1254  0.4960
17914TIP3    H175233   2.305   0.836  41.110 -0.6305 -2.6375 -1.7996
17914TIP3    H275234   2.328   0.913  40.982 -0.3283  0.4511  0.0069
17915TIP3   OH275235   1.828   3.269   1.837 -0.8282  0.3371 -0.6469
17915TIP3    H175236   1.813   3.341   1.899  0.7642  1.9620 -2.0371
17915TIP3    H275237   1.801   3.304   1.753  1.6968  0.0583 -1.6673
17916TIP3   OH275238   0.621   2.348  35.690 -0.3994 -0.4081  0.1051
17916TIP3    H175239   0.649   2.298  35.614 -0.1947 -0.1793  0.0288
17916TIP3    H275240   0.527   2.362  35.676  0.1874  2.4409 -1.7747
17917TIP3   OH275241   4.141   1.688   0.005 -0.0261  0.2507 -0.0073
17917TIP3    H175242   4.164   1.712   0.094 -2.8193 -0.5803  1.0206
17917TIP3    H275243   4.196   1.611  -0.014  1.9510  1.5364  0.2036
17918TIP3   OH275244   0.892   2.234  15.544  0.1325  0.6232  0.4369
17918TIP3    H175245   0.826   2.165  15.554  0.9044 -0.0672  0.8706
17918TIP3    H275246   0.916   2.231  15.451 -0.4090  0.8513  0.2850
17919TIP3   OH275247   1.947   0.395  12.351  0.5398 -0.4835 -0.6043
17919TIP3    H175248   1.889   0.323  12.326  1.2211 -0.3742 -2.7412
17919TIP3    H275249   1.903   0.474  12.319 -0.0787  0.0845  1.4984
17920TIP3   OH275250   2.446   1.862  34.642  0.0506  0.2273 -0.1569
17920TIP3    H175251   2.407   1.921  34.707 -0.6088  0.3360 -0.6313
17920TIP3    H275252   2.431   1.775  34.677 -0.0208  0.2973 -0.0120
17921TIP3   OH275253   2.602   1.583  10.163  0.0933 -0.4793  0.4455
17921TIP3    H175254   2.635   1.555  10.248  1.7257 -0.3176 -0.1032
17921TIP3    H275255   2.677   1.623  10.119 -0.6584 -0.7076 -1.1488
17922TIP3   OH275256   3.695   2.166   4.919 -0.1820  0.0107 -0.2239
17922TIP3    H175257   3.635   2.233   4.953 -1.4520 -1.1280 -0.1438
17922TIP3    H275258   3.638   2.101   4.879  1.1355 -0.1757 -1.8672
17923TIP3   OH275259   1.076   2.475  39.255  0.0599 -0.3852 -0.5742
17923TIP3    H175260   1.131   2.397  39.255  0.7281  0.0842 -0.6779
17923TIP3    H275261   1.018   2.463  39.330  0.9048 -0.4533  0.0730
17924TIP3   OH275262   3.942   0.553  31.854 -0.5263  0.2800  0.7769
17924TIP3    H175263   3.902   0.532  31.939 -0.4265 -0.2061  0.7040
17924TIP3    H275264   4.029   0.514  31.858 -1.6056 -2.5507 -0.7218
17925TIP3   OH275265   1.063   3.560  28.381 -0.1318 -0.1797  0.0941
17925TIP3    H175266   1.058   3.480  28.328  1.0185 -1.1624  1.3841
17925TIP3    H275267   1.144   3.602  28.354 -0.4086  0.2184 -0.1230
17926TIP3   OH275268   1.679   2.506   2.399 -0.3745 -0.2241 -0.3658
17926TIP3    H175269   1.738   2.431   2.410 -0.2922  0.0271  1.3353
17926TIP3    H275270   1.715   2.554   2.324  1.6946 -0.0433  0.6444
17927TIP3   OH275271   3.412   1.242  36.304 -0.2732  0.0189 -0.8806
17927TIP3    H175272   3.441   1.329  36.333 -1.1562  1.0331 -2.8279
17927TIP3    H275273   3.317   1.247  36.305 -0.4737 -2.0325  1.9250
17928TIP3   OH275274   2.752   3.394  28.633 -0.0824 -0.7996  0.1905
17928TIP3    H175275   2.813   3.344  28.687  1.7150  0.5119 -0.5017
17928TIP3    H275276   2.696   3.328  28.591  1.5449 -2.1566  0.0588
17929TIP3   OH275277   4.153   1.340  20.837  0.6215  0.2351  0.3261
17929TIP3    H175278   4.209   1.402  20.791 -0.0008  0.8318  0.3562
17929TIP3    H275279   4.068   1.385  20.845  0.4143 -0.2711  1.1179
17930TIP3   OH275280   2.214   3.667   2.194  0.1317 -0.3733 -0.8302
17930TIP3    H175281   2.175   3.666   2.106 -1.2092 -0.0338 -0.2714
17930TIP3    H275282   2.146   3.706   2.249 -0.5901 -3.8533  1.0289
17931TIP3   OH275283   4.048   1.219  11.414  0.5234 -0.3318  0.2009
17931TIP3    H175284   3.961   1.181  11.406  0.2235  0.0131  1.6007
17931TIP3    H275285   4.086   1.177  11.491  0.4969  1.5377  1.2842
17932TIP3   OH275286   1.637   3.580   7.719  0.4813 -0.1371  0.3523
17932TIP3    H175287   1.561   3.628   7.685 -0.1114 -1.2316  0.1004
17932TIP3    H275288   1.629   3.587   7.814  0.3047  0.1121  0.3205
17933TIP3   OH275289   3.534   2.414   2.837  0.0322 -0.2686 -0.1795
17933TIP3    H175290   3.584   2.490   2.809  0.5786 -0.1348  1.0803
17933TIP3    H275291   3.486   2.386   2.759 -0.1424  1.3256 -0.6734
17934TIP3   OH275292   2.449   1.156  35.522  0.5616  0.3167  0.0099
17934TIP3    H175293   2.502   1.215  35.469  1.3840 -2.1174 -2.0941
17934TIP3    H275294   2.377   1.131  35.464  0.1987 -0.6730  0.8564
17935TIP3   OH275295   3.575   0.538  31.037  0.1095 -0.0045  0.0744
17935TIP3    H175296   3.523   0.464  31.066 -0.7372  1.1657  1.7303
17935TIP3    H275297   3.578   0.530  30.942 -1.4761 -1.1536  0.0810
17936TIP3   OH275298   0.123   2.380   9.802  0.2581  0.0787  0.2703
17936TIP3    H175299   0.216   2.389   9.783  0.4305  0.2790  1.1859
17936TIP3    H275300   0.107   2.285   9.802 -0.1463  0.0689 -2.6500
17937TIP3   OH275301   2.289   2.790  32.662  0.1744 -0.0412  0.4307
17937TIP3    H175302   2.288   2.876  32.704 -0.6826  0.9903 -1.5783
17937TIP3    H275303   2.197   2.770  32.646  0.3128 -1.6622  1.4202
17938TIP3   OH275304   1.153   0.316  33.361 -0.0091 -0.1074  0.0007
17938TIP3    H175305   1.076   0.305  33.304 -0.8262 -0.7246  1.1767
17938TIP3    H275306   1.130   0.388  33.419 -1.2544 -2.4908  2.6884
17939TIP3   OH275307   3.181   3.208  34.926 -0.7108 -0.3363 -0.7038
17939TIP3    H175308   3.182   3.274  34.995 -0.1990  2.0659 -2.8684
17939TIP3    H275309   3.267   3.215  34.885 -0.3711 -2.9109 -0.5710
17940TIP3   OH275310   3.836   1.157   6.304 -0.1442  0.2172  0.4550
17940TIP3    H175311   3.816   1.250   6.302  0.8096  0.4143 -1.1511
17940TIP3    H275312   3.790   1.120   6.228  0.0102 -0.5046  0.6983
17941TIP3   OH275313   3.639   4.154  23.565 -0.1077  0.4033 -0.1459
17941TIP3    H175314   3.579   4.080  23.553 -1.1377  1.0480  0.7735
17941TIP3    H275315   3.637   4.172  23.659 -0.2920  1.9068 -0.4030
17942TIP3   OH275316   4.023   1.163   4.705  0.3997  0.1109  0.2334
17942TIP3    H175317   4.032   1.133   4.796  2.2023 -0.2844 -0.0378
17942TIP3    H275318   3.976   1.246   4.711 -0.5382 -0.4811  1.4140
17943TIP3   OH275319   1.232   0.476  11.652  0.3651  0.5452  0.0280
17943TIP3    H175320   1.265   0.469  11.741 -0.4007 -0.2424  0.2654
17943TIP3    H275321   1.308   0.458  11.596  0.6144 -0.0310  0.5450
17944TIP3   OH275322   2.634   3.834   5.031 -0.0222 -0.0520  0.3379
17944TIP3    H175323   2.649   3.928   5.022 -1.0625 -0.0644 -2.3354
17944TIP3    H275324   2.705   3.793   4.982  0.5464 -0.7060  1.6623
17945TIP3   OH275325   4.333   4.193  34.799 -0.4094 -0.3248 -0.1221
17945TIP3    H175326   4.364   4.147  34.721  0.2402  0.1811 -0.1706
17945TIP3    H275327   4.412   4.231  34.838 -0.6230 -1.1901  1.1994
17946TIP3   OH275328   1.116   1.133   6.513 -0.1052 -0.2462 -0.1291
17946TIP3    H175329   1.034   1.170   6.545  0.8543  3.1856 -1.1985
17946TIP3    H275330   1.090   1.074   6.442 -1.6659  0.7329 -0.4094
17947TIP3   OH275331   0.474   3.904  35.445 -0.2464  0.2987 -0.4124
17947TIP3    H175332   0.547   3.923  35.386  1.0137  0.6030  1.1577
17947TIP3    H275333   0.445   3.990  35.475 -0.5979  0.1313 -0.2701
17948TIP3   OH275334   3.368   3.163   0.702  0.2709 -0.3567  0.9623
17948TIP3    H175335   3.409   3.150   0.787  0.3337 -0.7522  0.8719
17948TIP3    H275336   3.285   3.208   0.721  0.5654  0.1059  1.1771
17949TIP3   OH275337   0.144   0.276   3.681  0.1659 -0.1841 -0.4194
17949TIP3    H175338   0.049   0.285   3.681  0.0042 -1.3256 -2.2873
17949TIP3    H275339   0.176   0.357   3.639  0.0583  0.3480  0.5072
17950TIP3   OH275340   2.360   0.969  40.212  0.1016  0.2645 -0.5012
17950TIP3    H175341   2.269   0.941  40.201 -0.3810  0.7273  1.7473
17950TIP3    H275342   2.355   1.065  40.209  0.9298  0.2902 -2.7914
17951TIP3   OH275343   0.230   2.751   3.986 -0.1159  0.0754  0.2103
17951TIP3    H175344   0.190   2.674   3.946  1.3265 -0.9876  0.7307
17951TIP3    H275345   0.322   2.748   3.958  1.0493 -0.8246  3.5564
17952TIP3   OH275346   3.164   0.736  37.953 -0.3310 -0.3427  0.7297
17952TIP3    H175347   3.214   0.740  37.871 -0.3571 -0.0064  0.7325
17952TIP3    H275348   3.229   0.756  38.021  0.2328 -2.7776  1.0145
17953TIP3   OH275349   3.068   2.484  38.061  0.4619  0.4557  0.0168
17953TIP3    H175350   3.129   2.425  38.015  0.3839  0.2154  0.2177
17953TIP3    H275351   3.019   2.526  37.991 -1.1698 -1.5005 -0.1136
17954TIP3   OH275352   3.872   2.754   3.241 -0.7402  0.3709 -0.3902
17954TIP3    H175353   3.807   2.739   3.172 -2.2293 -1.0789  1.2617
17954TIP3    H275354   3.926   2.675   3.241 -0.0338  0.8402 -0.5911
17955TIP3   OH275355   3.654   1.099  33.925 -0.5839 -0.2323  0.1306
17955TIP3    H175356   3.746   1.117  33.907 -0.4239 -0.9614  0.1909
17955TIP3    H275357   3.651   1.079  34.019 -0.4511 -2.2280 -0.2490
17956TIP3   OH275358   0.344   0.597  37.844 -0.0526 -0.4835  0.4063
17956TIP3    H175359   0.268   0.643  37.810  1.5309  0.7497 -1.7729
17956TIP3    H275360   0.378   0.654  37.913 -1.2680 -1.2397  1.6777
17957TIP3   OH275361   3.142   2.327  39.864  0.1738  0.3484  0.3553
17957TIP3    H175362   3.182   2.340  39.950  0.9121 -0.5223  0.1666
17957TIP3    H275363   3.104   2.411  39.842  1.5080  1.0890  0.7647
17958TIP3   OH275364   2.076   1.642   4.014  0.5276 -0.4556 -0.5315
17958TIP3    H175365   2.096   1.710   3.950  1.6751 -0.2563  0.0230
17958TIP3    H275366   1.989   1.666   4.048  1.3349  1.3578  0.4144
17959TIP3   OH275367   3.693   2.587  36.461  0.6397 -0.1718  0.1874
17959TIP3    H175368   3.613   2.572  36.411 -0.1564  1.9592  0.7403
17959TIP3    H275369   3.756   2.620  36.397  0.1636  0.8962  0.2597
17960TIP3   OH275370   3.806   2.704   4.780 -0.0902  0.4577 -0.5877
17960TIP3    H175371   3.737   2.640   4.762 -0.8568  1.1804 -0.3066
17960TIP3    H275372   3.876   2.653   4.821 -0.8910 -0.1207  0.0926
17961TIP3   OH275373   2.388   1.376  33.525 -0.2139  0.0272 -0.3184
17961TIP3    H175374   2.416   1.285  33.530  0.8879  0.3912  0.6690
17961TIP3    H275375   2.465   1.426  33.552 -1.1694  1.1949  0.3401
17962TIP3   OH275376   1.912   0.761   0.917 -0.1285  0.1590  0.7386
17962TIP3    H175377   1.909   0.767   1.013  1.2319  2.2752  0.7217
17962TIP3    H275378   1.987   0.706   0.898 -0.1378  0.0955  0.8846
17963TIP3   OH275379   3.028   0.425  36.110  0.2956 -0.5454  0.0625
17963TIP3    H175380   2.980   0.464  36.037 -0.8914 -2.4682 -0.2633
17963TIP3    H275381   3.089   0.494  36.138  0.8937  0.2406 -2.7858
17964TIP3   OH275382   3.341   3.159   9.384  0.4941 -0.1073 -0.1896
17964TIP3    H175383   3.335   3.078   9.434 -1.0446 -0.3330 -0.6851
17964TIP3    H275384   3.428   3.194   9.405  0.5407 -1.0433  1.2970
17965TIP3   OH275385   3.585   4.091   3.678 -0.5710  0.4554  0.3613
17965TIP3    H175386   3.600   3.997   3.688 -0.9498  0.5960  2.8704
17965TIP3    H275387   3.672   4.129   3.674 -0.3486  0.1424  1.5728
17966TIP3   OH275388   0.960   1.862  31.899 -0.3250 -0.3344  0.2409
17966TIP3    H175389   1.055   1.860  31.912 -0.2243 -0.8151 -0.4857
17966TIP3    H275390   0.948   1.831  31.809 -1.1946 -0.5909  0.4389
17967TIP3   OH275391   0.588   4.324  26.341 -0.5868 -0.2151  0.7789
17967TIP3    H175392   0.662   4.384  26.333 -1.3477  0.5223 -1.7732
17967TIP3    H275393   0.620   4.242  26.303 -0.2413 -0.7826  2.2452
17968TIP3   OH275394   3.543   3.798  30.351  0.0594 -0.1033  0.4338
17968TIP3    H175395   3.502   3.716  30.376 -0.4081 -0.3725 -1.1482
17968TIP3    H275396   3.490   3.865  30.394  0.0789 -0.5777  1.2316
17969TIP3   OH275397   1.924   2.659  14.918  0.6911  0.3057 -0.0730
17969TIP3    H175398   1.954   2.636  14.830  2.0380 -0.5998  0.5799
17969TIP3    H275399   1.881   2.580  14.950  0.0598  0.6853  0.0297
17970TIP3   OH275400   1.980   1.243  30.532  0.2012 -0.1911  0.0690
17970TIP3    H175401   1.890   1.238  30.498  0.0549 -1.3310  0.5804
17970TIP3    H275402   2.034   1.249  30.453 -0.3005  0.2457 -0.2554
17971TIP3   OH275403   2.244   4.226  34.683  0.2717  0.0781 -0.2015
17971TIP3    H175404   2.283   4.175  34.754  0.7878  1.5238  0.5740
17971TIP3    H275405   2.173   4.274  34.724 -0.0837  0.1620 -0.8884
17972TIP3   OH275406   0.780   4.304   3.105 -0.0985 -0.2751  0.9554
17972TIP3    H175407   0.779   4.337   3.195 -0.7106  1.8694  0.2182
17972TIP3    H275408   0.688   4.288   3.084 -0.1185  0.6967  0.2379
17973TIP3   OH275409   1.538   3.997   7.873 -0.3531  0.4415  0.0312
17973TIP3    H175410   1.465   4.053   7.901  0.7198  2.1910 -0.4932
17973TIP3    H275411   1.521   3.982   7.779 -0.4485  0.1885  0.0889
17974TIP3   OH275412   2.969   3.629  36.696 -0.2338 -0.2498  0.2655
17974TIP3    H175413   2.874   3.622  36.707 -0.1325 -0.8692  0.7966
17974TIP3    H275414   3.005   3.563  36.755  0.6240  1.4940  1.7637
17975TIP3   OH275415   1.759   3.325  32.664 -0.1781 -0.2268 -0.0173
17975TIP3    H175416   1.755   3.392  32.733  0.4602 -0.0539 -0.1448
17975TIP3    H275417   1.851   3.319  32.641  0.1656 -2.8410  1.6342
17976TIP3   OH275418   0.431   3.066   6.499 -0.0336  0.0242 -0.4031
17976TIP3    H175419   0.501   3.082   6.562 -1.5103  0.6494  1.1668
17976TIP3    H275420   0.427   3.145   6.445  0.4501 -0.0124 -0.4903
17977TIP3   OH275421   2.027   3.479   4.394  0.2255  0.5181 -0.3724
17977TIP3    H175422   2.110   3.433   4.408  0.7994  1.5162 -0.4151
17977TIP3    H275423   1.962   3.409   4.393  0.9726 -0.2265  0.3635
17978TIP3   OH275424   0.541   4.179  34.177  0.2025  0.0221 -0.1696
17978TIP3    H175425   0.485   4.187  34.100  0.5724  1.4444 -0.3086
17978TIP3    H275426   0.626   4.151  34.142  0.0071 -0.6448 -0.1244
17979TIP3   OH275427   0.115   2.631  10.410  0.2611 -0.1069 -0.3534
17979TIP3    H175428   0.044   2.622  10.347 -0.4612 -2.4019  0.6575
17979TIP3    H275429   0.156   2.715  10.389 -1.9228  0.6882 -1.7947
17980TIP3   OH275430   1.120   3.620   1.475 -0.2714 -0.2811 -0.4765
17980TIP3    H175431   1.214   3.607   1.467 -0.2372  0.6634 -1.9485
17980TIP3    H275432   1.084   3.531   1.475  0.5909 -0.6493 -0.0203
17981TIP3   OH275433   2.081   2.921   4.146 -0.8353 -0.0392  0.1010
17981TIP3    H175434   2.009   2.978   4.172 -1.7174 -0.5191 -1.1907
17981TIP3    H275435   2.160   2.974   4.161 -1.6730  2.2117 -2.4996
17982TIP3   OH275436   2.825   1.643  37.298  0.0741 -0.0638  0.4796
17982TIP3    H175437   2.781   1.718  37.338  0.4259  0.3853  0.0304
17982TIP3    H275438   2.918   1.663  37.305  0.1892 -0.7198  0.8588
17983TIP3   OH275439   0.545   0.937  10.378  0.6272 -0.2266  0.7398
17983TIP3    H175440   0.574   0.851  10.407  0.3605 -0.7773 -0.5537
17983TIP3    H275441   0.480   0.919  10.310 -0.3495  0.9979  1.3242
17984TIP3   OH275442   1.681   2.185   6.864 -0.2920 -0.4789 -0.4005
17984TIP3    H175443   1.669   2.279   6.875  2.0160 -0.1303 -0.2155
17984TIP3    H275444   1.692   2.173   6.770 -3.1542 -0.9945 -0.7384
17985TIP3   OH275445   0.949   1.615  40.267 -0.1566 -0.4441 -0.0502
17985TIP3    H175446   0.925   1.704  40.240 -1.2140 -0.6490  0.1502
17985TIP3    H275447   1.044   1.616  40.270 -0.1374  0.5945 -0.3529
17986TIP3   OH275448   4.129   2.539  21.857  0.1202 -0.4119  0.4038
17986TIP3    H175449   4.211   2.533  21.806 -0.5673 -2.7813 -0.5428
17986TIP3    H275450   4.155   2.582  21.939  1.6429  1.8138 -1.1065
17987TIP3   OH275451   0.717   4.142   3.929  0.8866  0.2096 -0.6236
17987TIP3    H175452   0.648   4.175   3.986  1.0944 -0.7557  0.2188
17987TIP3    H275453   0.677   4.068   3.883  1.2915 -0.2315 -0.2776
17988TIP3   OH275454   1.191   1.672  34.933  0.0922 -0.1112  0.1615
17988TIP3    H175455   1.280   1.647  34.958 -0.1228 -0.2508  0.8048
17988TIP3    H275456   1.201   1.716  34.849  1.0399  1.9416  1.2929
17989TIP3   OH275457   1.898   2.554  41.224  0.0125  0.3992 -0.1930
17989TIP3    H175458   1.878   2.527  41.313 -0.3065  1.2901  0.0134
17989TIP3    H275459   1.947   2.480  41.187 -0.0147 -0.0522  0.6524
17990TIP3   OH275460   0.511   3.776  26.469 -0.1514 -0.3974  0.0911
17990TIP3    H175461   0.510   3.842  26.400  0.4334 -0.0627  0.3968
17990TIP3    H275462   0.561   3.816  26.540  0.5618 -1.3225  0.1317
17991TIP3   OH275463   3.512   2.311  12.301  0.2480  0.7539  0.3047
17991TIP3    H175464   3.433   2.366  12.299 -1.1862 -1.2145 -0.5954
17991TIP3    H275465   3.479   2.224  12.324  2.4702  0.2639  1.9305
17992TIP3   OH275466   3.616   4.386   1.649 -0.1830 -0.1568 -0.4609
17992TIP3    H175467   3.526   4.357   1.635 -0.5153  0.4386  0.4172
17992TIP3    H275468   3.662   4.356   1.571 -0.6080 -2.5905  0.1470
17993TIP3   OH275469   1.566   1.832  29.730  0.3697  0.2301  0.1213
17993TIP3    H175470   1.580   1.834  29.825 -0.6391  1.8775  0.2836
17993TIP3    H275471   1.607   1.751  29.702  2.3422  0.5720  1.6986
17994TIP3   OH275472   1.473   3.006  34.225 -0.0006 -0.3810 -0.2559
17994TIP3    H175473   1.407   3.063  34.186 -1.0932 -0.4361  1.4069
17994TIP3    H275474   1.492   3.047  34.310  0.3587 -1.6464  0.2871
17995TIP3   OH275475   1.610   2.030  36.679  0.2840  0.2770  0.4400
17995TIP3    H175476   1.587   2.092  36.609  0.2720  0.2956  0.4599
17995TIP3    H275477   1.644   1.953  36.634  0.6248  0.4317  0.4233
17996TIP3   OH275478   3.365   2.636   0.092 -0.0788 -0.1255 -0.4488
17996TIP3    H175479   3.381   2.712   0.036 -1.3420  1.6626  1.4630
17996TIP3    H275480   3.344   2.674   0.178 -0.6791 -2.6511  0.5952
17997TIP3   OH275481   2.225   3.016  30.584 -0.0183  0.1947 -0.3342
17997TIP3    H175482   2.169   2.984  30.513 -0.3784  0.7389 -0.2944
17997TIP3    H275483   2.233   2.940  30.643  0.8385 -0.4759 -1.2839
17998TIP3   OH275484   1.181   0.083   2.630 -0.1459 -0.9932 -0.2661
17998TIP3    H175485   1.228   0.054   2.709  0.0532  1.6767  0.6743
17998TIP3    H275486   1.249   0.093   2.564  0.1749 -0.1308  0.1837
17999TIP3   OH275487   4.072   3.525  11.899 -0.2808 -0.2723  0.9463
17999TIP3    H175488   4.069   3.448  11.843 -0.1197 -0.8831  1.7665
17999TIP3    H275489   4.165   3.544  11.910 -0.3292  0.5168  0.1209
18000TIP3   OH275490   2.062   4.360   9.192 -0.5865 -0.5155  1.1412
18000TIP3    H175491   2.041   4.268   9.210 -2.6826 -0.1578  0.7724
18000TIP3    H275492   2.096   4.360   9.103 -0.9206 -0.8880  1.0107
18001TIP3   OH275493   0.284   4.394   4.053 -0.5442  0.3267 -0.5555
18001TIP3    H175494   0.330   4.478   4.050  0.7537 -0.3904 -1.1099
18001TIP3    H275495   0.353   4.328   4.051 -1.5613 -0.7720 -0.4600
18002TIP3   OH275496   4.096   3.791  10.261 -0.3974 -0.6452  0.1735
18002TIP3    H175497   4.037   3.853  10.218 -0.7768 -1.0419  0.1160
18002TIP3    H275498   4.062   3.705  10.238  0.7902 -0.9161 -0.6827
18003TIP3   OH275499   0.998   2.080   3.380 -0.1018 -0.6528 -0.3806
18003TIP3    H175500   1.029   2.160   3.338 -0.8193 -0.6111 -0.8546
18003TIP3    H275501   1.025   2.010   3.321 -0.3807 -0.6683 -0.4902
18004TIP3   OH275502   3.284   0.690   5.061  0.3746 -0.7506  0.0711
18004TIP3    H175503   3.317   0.693   4.972 -0.4721  0.9166 -0.2195
18004TIP3    H275504   3.337   0.755   5.108  1.9553 -2.7549  1.2498
18005TIP3   OH275505   2.468   2.344   7.799  0.1073  0.7630 -0.2749
18005TIP3    H175506   2.447   2.432   7.769 -1.0053  1.0572  1.2106
18005TIP3    H275507   2.390   2.316   7.848  0.9057 -0.5571  0.3177
18006TIP3   OH275508   1.816   1.689  32.510  0.6259  0.4734  0.1137
18006TIP3    H175509   1.773   1.617  32.557  0.0099  1.2458  0.7785
18006TIP3    H275510   1.868   1.733  32.577  0.4893  1.0221 -0.1370
18007TIP3   OH275511   0.533   4.150   0.033 -0.0409  0.4332  0.7354
18007TIP3    H175512   0.528   4.061  -0.000 -1.7224  0.6875  0.1749
18007TIP3    H275513   0.589   4.196  -0.029 -0.6431  0.1817 -0.0050
18008TIP3   OH275514   0.729   4.378  40.236  0.1110  0.6888  0.0828
18008TIP3    H175515   0.717   4.462  40.280  1.3379  0.5106  0.7811
18008TIP3    H275516   0.822   4.361  40.242  0.1102  0.0424 -1.4949
18009TIP3   OH275517   4.399   0.658  38.834 -0.4353  0.4919  0.3212
18009TIP3    H175518   4.422   0.713  38.909  0.3956  1.0703 -0.3385
18009TIP3    H275519   4.451   0.579  38.845  0.5844  1.0649 -0.2409
18010TIP3   OH275520   1.518   2.155  37.909  0.1324 -0.3899  0.4795
18010TIP3    H175521   1.557   2.145  37.996  0.3012 -0.5092  0.3925
18010TIP3    H275522   1.425   2.139  37.923 -0.0908  1.1640  0.9203
18011TIP3   OH275523   3.684   2.772  37.395 -0.4991  0.1874 -0.6625
18011TIP3    H175524   3.710   2.753  37.305 -0.9408  0.0912 -0.7689
18011TIP3    H275525   3.721   2.859  37.413 -0.2245  0.1118 -0.8617
18012TIP3   OH275526   2.573   4.334  12.446  0.3051 -0.5817 -0.3063
18012TIP3    H175527   2.627   4.389  12.503  0.0694 -1.3920  0.7386
18012TIP3    H275528   2.512   4.395  12.404  0.5169  0.0430  0.2800
18013TIP3   OH275529   2.813   3.494  36.965  0.3840  0.1440 -0.5176
18013TIP3    H175530   2.731   3.453  36.991  1.6511 -2.5066 -0.3911
18013TIP3    H275531   2.787   3.565  36.907 -2.0454  0.5183  0.8999
18014TIP3   OH275532   1.126   0.250  32.790  0.4119 -0.2195 -0.0166
18014TIP3    H175533   1.218   0.225  32.794 -0.0367 -1.8840  0.6777
18014TIP3    H275534   1.094   0.238  32.880 -0.8504 -1.2465 -0.5647
18015TIP3   OH275535   1.430   3.632   7.522 -0.5669 -0.2615  0.5144
18015TIP3    H175536   1.352   3.681   7.496 -0.3859  0.5028  1.3511
18015TIP3    H275537   1.395   3.553   7.564 -0.9183  0.1731  1.0715
18016TIP3   OH275538   0.090   3.051   5.669  0.3895 -0.1525  0.5609
18016TIP3    H175539   0.032   3.049   5.593 -0.7381 -0.5596  1.4204
18016TIP3    H275540   0.140   3.132   5.658 -1.6010  1.1739  0.7031
18017TIP3   OH275541   0.943   0.559  37.156 -0.1781  0.2990 -0.3913
18017TIP3    H175542   0.939   0.652  37.174  0.0841  0.2619 -0.1284
18017TIP3    H275543   0.889   0.518  37.223  1.6028  0.0801  0.9940
18018TIP3   OH275544   3.053   2.179   2.183  0.8958  0.3309  0.1146
18018TIP3    H175545   3.026   2.250   2.124  0.4096  0.2529  0.2352
18018TIP3    H275546   3.080   2.108   2.124  1.4139  0.6260 -0.0052
18019TIP3   OH275547   1.404   0.589   3.895 -0.5253  0.5872  0.1712
18019TIP3    H175548   1.335   0.648   3.865 -1.5077 -0.4283  0.3578
18019TIP3    H275549   1.478   0.607   3.836 -1.5330  0.4728 -1.1932
18020TIP3   OH275550   4.115   0.592  37.148  0.2242 -0.6543 -0.1699
18020TIP3    H175551   4.143   0.680  37.126  0.6723 -0.8015 -0.2000
18020TIP3    H275552   4.192   0.538  37.134  0.5836 -0.7442  1.9457
18021TIP3   OH275553   4.144   3.474  35.154 -1.0955  0.3841 -0.1857
18021TIP3    H175554   4.134   3.475  35.058 -1.5506 -0.5490 -0.1604
18021TIP3    H275555   4.087   3.544  35.185 -1.0830  0.5757 -0.5888
18022TIP3   OH275556   4.251   0.063  41.229  0.5534  0.6072  0.3311
18022TIP3    H175557   4.269  -0.016  41.177  0.0622 -0.6072  1.9463
18022TIP3    H275558   4.311   0.057  41.303 -2.1629 -0.4028  2.6142
18023TIP3   OH275559   3.990   2.655  28.805 -0.1740 -0.1061  0.3618
18023TIP3    H175560   4.001   2.560  28.807 -1.5704 -0.2905  0.3957
18023TIP3    H275561   4.043   2.687  28.878  0.5154 -0.8314  0.1877
18024TIP3   OH275562   3.103   3.886  34.469 -0.1218  0.5471  0.1505
18024TIP3    H175563   3.153   3.804  34.471 -2.0149 -0.7424 -1.4226
18024TIP3    H275564   3.109   3.915  34.378 -1.7493  0.6310  0.0461
18025TIP3   OH275565   0.744   0.941  37.228  0.2173  0.7668 -0.3950
18025TIP3    H175566   0.674   0.896  37.182 -1.7264  1.4720  1.6789
18025TIP3    H275567   0.724   1.034  37.217  0.4299  0.9646  0.7369
18026TIP3   OH275568   0.932   3.174  29.205  0.2824 -0.3799  0.1769
18026TIP3    H175569   1.000   3.148  29.144  0.5263  0.2412  0.1703
18026TIP3    H275570   0.933   3.107  29.273  2.3507  0.7096  1.2930
18027TIP3   OH275571   1.835   0.334  36.758 -0.1007 -0.2299  0.3624
18027TIP3    H175572   1.752   0.353  36.713  0.4528  1.0352 -0.1970
18027TIP3    H275573   1.863   0.250  36.722 -1.2291 -0.7756  0.7075
18028TIP3   OH275574   2.144   2.680  36.254 -0.0698 -0.2353  0.4233
18028TIP3    H175575   2.218   2.623  36.237 -0.2276 -0.5901  0.9038
18028TIP3    H275576   2.068   2.622  36.254 -0.3372  0.1086  0.0356
18029TIP3   OH275577   2.203   0.641   9.143 -0.0772  0.1045 -0.2958
18029TIP3    H175578   2.232   0.731   9.155  1.9589 -0.4912 -0.3537
18029TIP3    H275579   2.223   0.598   9.226 -0.8898 -0.3529 -0.3214
18030TIP3   OH275580   1.654   2.022   2.803  0.0405 -0.0143  0.1511
18030TIP3    H175581   1.597   1.994   2.732 -0.8264  0.5157  0.6177
18030TIP3    H275582   1.710   1.947   2.820 -0.7764 -0.6929 -0.0668
18031TIP3   OH275583   1.242   4.029   3.711 -0.1726  0.8118 -1.0789
18031TIP3    H175584   1.185   3.953   3.725 -1.4900  1.9379 -0.1022
18031TIP3    H275585   1.307   4.024   3.781 -0.2272  0.5648 -1.0463
18032TIP3   OH275586   4.397   4.135  32.524  0.6696 -0.0943 -0.1187
18032TIP3    H175587   4.364   4.045  32.522 -0.4898  0.3032 -0.0142
18032TIP3    H275588   4.395   4.158  32.617  1.3242 -0.0847 -0.1062
18033TIP3   OH275589   3.755   1.429  13.123  0.1846 -0.9932  0.1839
18033TIP3    H175590   3.801   1.348  13.146  2.3553  0.0627 -0.1586
18033TIP3    H275591   3.775   1.443  13.030 -0.5246 -0.3089  0.1246
18034TIP3   OH275592   3.434   3.210  33.755 -0.5007  0.2999  0.5122
18034TIP3    H175593   3.490   3.170  33.821 -1.5421 -1.4006  0.4376
18034TIP3    H275594   3.345   3.194  33.787 -1.0098  2.6464  0.4784
18035TIP3   OH275595   3.605   4.132  12.126  0.0646 -0.2656  0.5130
18035TIP3    H175596   3.528   4.175  12.165  0.2920 -0.3782  1.0985
18035TIP3    H275597   3.643   4.083  12.198 -0.4519 -1.8319 -0.2389
18036TIP3   OH275598   3.499   2.858   8.000  0.1407 -0.1079  0.6354
18036TIP3    H175599   3.560   2.845   8.073 -1.2546 -0.6959  1.7511
18036TIP3    H275600   3.475   2.951   8.005 -0.1765 -0.2126  1.1278
18037TIP3   OH275601   0.680   1.405  10.949  0.6772  0.3866 -0.6654
18037TIP3    H175602   0.617   1.385  11.017 -0.5948 -0.1015 -1.9432
18037TIP3    H275603   0.764   1.373  10.984  0.2910  1.1729  1.1077
18038TIP3   OH275604   4.269   2.498   7.589  0.1218 -0.5863 -0.5688
18038TIP3    H175605   4.262   2.418   7.642  2.4932 -0.8136 -0.4838
18038TIP3    H275606   4.225   2.565   7.641 -1.9196 -1.7965 -0.6407
18039TIP3   OH275607   3.025   3.366  40.801 -0.3361 -0.3445  0.8463
18039TIP3    H175608   2.947   3.419  40.816 -0.6947 -0.6397  0.0816
18039TIP3    H275609   3.089   3.425  40.762 -0.0311 -0.0080  1.8325
18040TIP3   OH275610   3.551   1.347  39.464 -0.4974  0.3358 -0.1493
18040TIP3    H175611   3.639   1.365  39.431 -0.0317  1.1301  1.4327
18040TIP3    H275612   3.564   1.316  39.554 -1.8612  1.8814  0.6415
18041TIP3   OH275613   3.980   0.777  12.353 -0.2008 -0.2302  0.0499
18041TIP3    H175614   4.037   0.848  12.323  0.8735 -0.8131  0.6575
18041TIP3    H275615   3.899   0.789  12.304  1.1892 -0.7030 -2.5715
18042TIP3   OH275616   1.101   1.494  41.007 -0.3245 -0.4604 -0.1379
18042TIP3    H175617   1.021   1.491  40.954 -1.1061 -2.6135  0.9920
18042TIP3    H275618   1.113   1.403  41.036 -1.2261  0.7369  5.0441
18043TIP3   OH275619   2.153   4.364  27.347 -0.2947 -0.1512 -0.5114
18043TIP3    H175620   2.092   4.438  27.354  0.1715  0.3601 -1.5921
18043TIP3    H275621   2.097   4.287  27.358 -1.0636  0.3239 -0.9702
18044TIP3   OH275622   0.809   0.334  14.318  0.6722  0.1047 -0.2416
18044TIP3    H175623   0.719   0.360  14.338  0.5740 -1.3359  1.4180
18044TIP3    H275624   0.859   0.415  14.324 -0.0866  0.4882  1.6903
18045TIP3   OH275625   0.802   3.154  40.863  0.3209 -0.2191  0.4295
18045TIP3    H175626   0.767   3.103  40.936 -1.2200 -0.6804 -0.5572
18045TIP3    H275627   0.738   3.224  40.849 -0.5838 -1.3552 -1.7301
18046TIP3   OH275628   0.401   2.004  29.262  0.8274  0.2678  0.6108
18046TIP3    H175629   0.422   2.084  29.311 -0.9646 -0.3260  2.4978
18046TIP3    H275630   0.449   1.935  29.308 -1.4096 -0.3998  2.1197
18047TIP3   OH275631   2.778   1.040  26.858  0.6618  0.2734 -0.0854
18047TIP3    H175632   2.811   1.130  26.862  0.1581  0.4019  2.1975
18047TIP3    H275633   2.685   1.047  26.882  0.8476 -0.9603  1.0784
18048TIP3   OH275634   0.009   0.269   7.242 -0.0036  0.5759 -0.0449
18048TIP3    H175635  -0.061   0.325   7.276 -0.6757 -1.6417  2.4641
18048TIP3    H275636  -0.036   0.203   7.189  0.3507  0.0349  0.3203
18049TIP3   OH275637   2.986   2.533  29.634 -0.9742 -0.3277 -0.0480
18049TIP3    H175638   3.014   2.487  29.555 -0.5724 -1.1405  0.5472
18049TIP3    H275639   2.976   2.624  29.607 -1.3161 -0.6784 -1.1424
18050TIP3   OH275640   3.479   2.376   4.936 -1.0010  0.0189 -0.1745
18050TIP3    H175641   3.419   2.320   4.985 -0.9567  0.9423  0.9675
18050TIP3    H275642   3.460   2.464   4.967  2.6470  0.1938  2.1352
18051TIP3   OH275643   0.155   2.098  26.434 -0.4183  0.2767  0.5617
18051TIP3    H175644   0.113   2.101  26.520 -2.6197  0.6335 -0.4704
18051TIP3    H275645   0.210   2.019  26.437 -0.7242  0.0936  2.1503
18052TIP3   OH275646   0.178   0.250  34.471  0.0525  0.1116  0.3935
18052TIP3    H175647   0.105   0.310  34.453 -0.5920 -0.8626 -0.3704
18052TIP3    H275648   0.136   0.173  34.510  0.6526 -0.5034 -0.1621
18053TIP3   OH275649   3.463   1.502   2.747 -0.3218 -0.6941 -0.0004
18053TIP3    H175650   3.476   1.412   2.776 -0.1773 -0.4835  0.6028
18053TIP3    H275651   3.476   1.499   2.652  0.4811 -1.1575  0.1170
18054TIP3   OH275652   1.027   1.945   8.317  0.3456  0.6634 -0.3544
18054TIP3    H175653   1.077   1.966   8.396  1.0753  1.0295 -0.9047
18054TIP3    H275654   1.007   1.852   8.326  0.8864  0.5739  0.0046
18055TIP3   OH275655   3.791   3.397   5.087 -0.2045 -0.1162  0.0822
18055TIP3    H175656   3.710   3.437   5.118 -0.1813  0.2396 -0.3082
18055TIP3    H275657   3.836   3.369   5.167 -1.8321 -2.5930  0.2767
18056TIP3   OH275658   1.367   2.579  11.365 -0.2869 -1.0273  0.0785
18056TIP3    H175659   1.293   2.588  11.425  0.1988  0.6607  0.4770
18056TIP3    H275660   1.343   2.507  11.308 -1.8534 -1.0726  0.7525
18057TIP3   OH275661   3.259   4.236  40.237  0.8771 -0.3132  0.6706
18057TIP3    H175662   3.289   4.242  40.147  0.8010 -0.3713  0.6421
18057TIP3    H275663   3.232   4.144  40.247  0.3273 -0.1685  0.5722
18058TIP3   OH275664   0.752   0.620   2.719  0.3304  0.3947  0.1380
18058TIP3    H175665   0.811   0.544   2.719 -0.3923 -0.1918 -0.5451
18058TIP3    H275666   0.690   0.603   2.790 -1.0402 -0.6713 -1.2411
18059TIP3   OH275667   0.599   2.817   8.191 -0.1270 -0.4139  0.1208
18059TIP3    H175668   0.559   2.762   8.123  0.5173 -1.1810  0.3576
18059TIP3    H275669   0.656   2.758   8.240  0.3130  0.3914  0.5998
18060TIP3   OH275670   3.455   0.946  36.223  1.0685  0.7713  0.2283
18060TIP3    H175671   3.550   0.943  36.231  0.9000  0.0790  2.6325
18060TIP3    H275672   3.435   1.039  36.213  2.0499  0.7995 -1.9369
18061TIP3   OH275673   0.155   2.955  13.716 -0.2054  0.2244 -0.7416
18061TIP3    H175674   0.224   2.901  13.755  0.4672  1.3917 -0.2359
18061TIP3    H275675   0.093   2.893  13.679  0.1806 -0.8925  0.4174
18062TIP3   OH275676   0.662   3.538  27.705  0.4243  0.1076  0.7003
18062TIP3    H175677   0.727   3.595  27.663 -0.4102  1.0230  0.6079
18062TIP3    H275678   0.658   3.570  27.796  2.4860 -2.0915  1.6559
18063TIP3   OH275679   4.113   2.060   8.605  0.4694  0.0443 -0.0301
18063TIP3    H175680   4.145   1.999   8.671 -1.3997 -0.2784  0.6479
18063TIP3    H275681   4.031   2.094   8.641 -2.5973 -2.7462 -3.5549
18064TIP3   OH275682   0.626   0.773   5.007 -0.6482 -0.3883 -0.1455
18064TIP3    H175683   0.572   0.852   5.006 -2.3370 -1.5025 -0.9683
18064TIP3    H275684   0.599   0.727   5.087  0.2322 -0.2102  0.2610
18065TIP3   OH275685   1.375   2.626   7.965  0.3773  0.0092 -0.1458
18065TIP3    H175686   1.334   2.711   7.949 -1.8652 -0.9290  0.1583
18065TIP3    H275687   1.398   2.593   7.878 -0.0621  0.3268 -0.3868
18066TIP3   OH275688   0.511   2.036   3.115 -0.0513  0.1206 -0.0623
18066TIP3    H175689   0.472   2.122   3.098  1.3261  0.7806 -0.0044
18066TIP3    H275690   0.444   1.973   3.089 -0.5140  1.1926 -1.5409
18067TIP3   OH275691   1.026   2.835  13.322  0.0552 -0.3678 -0.3582
18067TIP3    H175692   1.055   2.749  13.293  0.9977  0.1502 -1.0267
18067TIP3    H275693   0.931   2.834  13.311  0.2473 -0.6247 -2.3797
18068TIP3   OH275694   4.162   4.268   7.955 -0.0589 -0.0614 -0.0332
18068TIP3    H175695   4.179   4.264   7.861 -1.5738 -0.6104 -0.3217
18068TIP3    H275696   4.070   4.296   7.961 -0.7837 -2.4026  1.1770
18069TIP3   OH275697   4.108   1.408  39.263  0.3368 -0.1797  0.1766
18069TIP3    H175698   4.062   1.486  39.231  1.1074 -0.6786 -2.3514
18069TIP3    H275699   4.038   1.347  39.284 -0.2315  0.3813 -0.0287
18070TIP3   OH275700   3.807   2.547  39.522  0.7029  0.6991 -0.0652
18070TIP3    H175701   3.832   2.553  39.615 -1.3047  2.8348  0.4186
18070TIP3    H275702   3.868   2.605  39.477  1.6623 -0.3174 -0.1169
18071TIP3   OH275703   3.863   3.816   7.413  0.3007 -0.1537 -0.0085
18071TIP3    H175704   3.823   3.770   7.339 -0.1737  0.5927 -0.2259
18071TIP3    H275705   3.900   3.896   7.375  0.8354 -0.1890  0.4179
18072TIP3   OH275706   0.278   2.677  32.821 -0.0100  0.0875 -0.6379
18072TIP3    H175707   0.198   2.647  32.863  0.0852  2.1010  1.1722
18072TIP3    H275708   0.277   2.636  32.734 -1.2846 -2.5893  0.5397
18073TIP3   OH275709   3.409   0.476  13.224  0.0275  0.2375  0.2873
18073TIP3    H175710   3.318   0.447  13.221 -0.2613  0.4762  3.2882
18073TIP3    H275711   3.408   0.564  13.187 -0.3460 -0.8367 -2.4642
18074TIP3   OH275712   3.780   0.813  10.944  0.2594  0.0331  0.3754
18074TIP3    H175713   3.873   0.807  10.965  0.0435 -0.0740  1.3355
18074TIP3    H275714   3.773   0.777  10.855  1.3600  1.5388 -0.3685
18075TIP3   OH275715   1.774   4.368   3.875 -0.5525  0.4918  0.3656
18075TIP3    H175716   1.689   4.399   3.844  0.0365  2.9155  1.0002
18075TIP3    H275717   1.830   4.445   3.874  1.9452 -1.2127 -0.8806
18076TIP3   OH275718   2.079   1.364  37.166 -0.3175  0.2416  0.4330
18076TIP3    H175719   1.992   1.324  37.166 -0.1450 -0.1338  0.0099
18076TIP3    H275720   2.073   1.435  37.103 -0.0873 -0.2963 -0.2034
18077TIP3   OH275721   1.128   2.458  33.045  0.4375 -0.0400  0.0825
18077TIP3    H175722   1.108   2.365  33.047  1.2841 -0.4317 -3.5425
18077TIP3    H275723   1.222   2.462  33.027  0.7089  1.5954  1.5568
18078TIP3   OH275724   0.857   4.220   4.269 -0.1688  0.0301 -0.1869
18078TIP3    H175725   0.788   4.229   4.203  0.2764 -1.2541 -0.8796
18078TIP3    H275726   0.817   4.168   4.339  0.2303 -1.2069 -0.8484
18079TIP3   OH275727   4.263   3.206  32.337 -0.0320 -0.3500 -0.2117
18079TIP3    H175728   4.313   3.151  32.276 -1.4270 -0.2691 -1.5064
18079TIP3    H275729   4.198   3.146  32.375 -0.6703  0.0938 -0.5922
18080TIP3   OH275730   0.429   4.005   9.503  0.0169 -0.3290 -0.6144
18080TIP3    H175731   0.407   3.982   9.593 -1.1691  1.4964 -0.3712
18080TIP3    H275732   0.381   3.941   9.450  0.3917 -1.1601  0.0243
18081TIP3   OH275733   0.729   0.651   6.101 -0.1896 -0.5844 -0.2843
18081TIP3    H175734   0.782   0.573   6.088  0.4902 -0.3027  0.6919
18081TIP3    H275735   0.771   0.697   6.173 -0.6803  0.5992 -0.7260
18082TIP3   OH275736   4.306   4.288  30.571  0.5898 -0.0755 -0.4315
18082TIP3    H175737   4.377   4.348  30.548  0.9157  0.0868  0.9376
18082TIP3    H275738   4.321   4.267  30.663  0.2433 -1.9407 -0.7652
18083TIP3   OH275739   3.301   2.730  28.753 -0.2775 -0.2895  0.0916
18083TIP3    H175740   3.365   2.660  28.759 -0.4483 -0.9009 -3.1903
18083TIP3    H275741   3.262   2.735  28.840  2.7723 -1.2367  1.6482
18084TIP3   OH275742   0.818   2.771   0.618  0.3655  0.0236  0.2606
18084TIP3    H175743   0.876   2.845   0.637  0.4704  0.3244 -1.1403
18084TIP3    H275744   0.877   2.697   0.604  0.2942 -0.1679  0.9304
18085TIP3   OH275745   1.834   2.312  14.818 -0.0619  0.4891 -0.6704
18085TIP3    H175746   1.755   2.307  14.764 -0.7653  1.6853  0.1820
18085TIP3    H275747   1.886   2.381  14.778 -0.8333  1.7583  0.4273
18086TIP3   OH275748   0.720   2.520  28.182  0.4674  0.0019  0.7499
18086TIP3    H175749   0.775   2.488  28.254  2.1630  1.5017  0.1974
18086TIP3    H275750   0.746   2.612  28.171 -2.8318  1.0788  1.0326
18087TIP3   OH275751   2.014   0.616  28.412  0.3022 -0.5831 -0.2334
18087TIP3    H175752   1.973   0.682  28.356 -0.4563 -0.7359  0.1330
18087TIP3    H275753   2.052   0.666  28.484 -0.4015 -0.5509  0.1226
18088TIP3   OH275754   3.005   3.647  33.523  0.0467 -0.0138  0.0924
18088TIP3    H175755   2.933   3.633  33.461  0.1552 -0.0716 -0.0205
18088TIP3    H275756   2.980   3.726  33.570 -1.8096 -1.8778  2.4828
18089TIP3   OH275757   4.010   0.348   8.522  0.0689 -0.5966 -0.5715
18089TIP3    H175758   3.964   0.350   8.605  1.9381  1.1296  0.5137
18089TIP3    H275759   3.943   0.372   8.457 -1.3038 -1.4974  0.4669
18090TIP3   OH275760   1.796   1.325  41.065 -0.4596  0.2738  0.2119
18090TIP3    H175761   1.747   1.406  41.081 -1.8878 -0.6136  0.4791
18090TIP3    H275762   1.791   1.277  41.148  1.0047  0.1962  0.2899
18091TIP3   OH275763   0.960   1.965  41.639 -0.6148  0.0290 -0.1107
18091TIP3    H175764   0.914   1.914  41.706 -0.3194 -0.5927 -0.3744
18091TIP3    H275765   1.051   1.934  41.644  0.0307  1.8799  1.0459
18092TIP3   OH275766   1.882   1.037  11.236 -0.0400 -0.3739 -0.5974
18092TIP3    H175767   1.943   1.103  11.202 -2.3151  1.0112 -2.3485
18092TIP3    H275768   1.922   0.953  11.214  0.5558  0.4831 -3.1053
18093TIP3   OH275769   4.288   3.096  28.003 -0.0445 -0.0206  0.0035
18093TIP3    H175770   4.323   3.158  27.940  1.5267  0.2721  1.1197
18093TIP3    H275771   4.202   3.072  27.967  0.3270  0.9606 -1.6535
18094TIP3   OH275772   2.004   2.738   0.961 -0.3128  0.0409  0.2878
18094TIP3    H175773   1.944   2.665   0.944 -1.6973  0.8992  1.2243
18094TIP3    H275774   2.085   2.696   0.990 -1.4816 -1.1582  2.0682
18095TIP3   OH275775   3.143   0.179  36.071  0.4866 -0.1875  0.1351
18095TIP3    H175776   3.107   0.260  36.107 -0.8458 -0.6164 -0.1852
18095TIP3    H275777   3.160   0.199  35.979 -0.0595 -0.3329 -0.0013
18096TIP3   OH275778   3.558   2.912   7.113 -0.0891  0.6664 -0.7012
18096TIP3    H175779   3.645   2.873   7.117  0.6681  2.0564 -2.1936
18096TIP3    H275780   3.501   2.840   7.087  0.9077  0.0874 -1.3765
18097TIP3   OH275781   3.762   1.134   0.742  0.1571 -0.0284 -0.1740
18097TIP3    H175782   3.691   1.167   0.797  0.0810  0.7899 -0.7550
18097TIP3    H275783   3.738   1.160   0.653  0.5211 -0.9158 -0.5416
18098TIP3   OH275784   3.260   2.426   7.569  0.4992  0.1003  0.4949
18098TIP3    H175785   3.311   2.494   7.527  1.3540 -1.0688 -0.4303
18098TIP3    H275786   3.169   2.457   7.563  0.8576  1.0942  0.0139
18099TIP3   OH275787   0.543   0.133  31.123 -0.5441 -0.0005 -0.0935
18099TIP3    H175788   0.637   0.125  31.134 -0.6322  0.0806  0.7458
18099TIP3    H275789   0.517   0.052  31.080 -0.1890 -0.3287  0.3071
18100TIP3   OH275790   2.353   2.629  40.648 -0.2222  0.2301 -0.0516
18100TIP3    H175791   2.367   2.537  40.629  1.8033  0.1030  1.6051
18100TIP3    H275792   2.317   2.630  40.737  1.0707  1.0013  0.5151
18101TIP3   OH275793   1.545   3.725  15.419  0.1007  0.0890 -0.0791
18101TIP3    H175794   1.602   3.774  15.360 -0.8904  0.8054 -0.4604
18101TIP3    H275795   1.599   3.710  15.497  0.8017  0.7684 -0.4204
18102TIP3   OH275796   0.985   3.594  32.497  0.0576  0.3064  0.1968
18102TIP3    H175797   0.993   3.527  32.429 -0.5091  0.1321  0.2937
18102TIP3    H275798   1.034   3.669  32.463 -2.0116  1.0113 -1.4166
18103TIP3   OH275799   1.148   3.120   1.757 -0.3791  0.1076  0.3357
18103TIP3    H175800   1.130   3.176   1.680  1.5355  0.3015 -0.0124
18103TIP3    H275801   1.072   3.062   1.762 -0.7656  0.3974 -1.4334
18104TIP3   OH275802   4.178   3.877  31.308  0.1957 -0.0385  0.3612
18104TIP3    H175803   4.238   3.839  31.372 -0.5908  2.3262  2.6773
18104TIP3    H275804   4.227   3.948  31.267 -0.5209  0.9784  1.2265
18105TIP3   OH275805   2.530   0.025   9.205  0.0018  0.8187 -0.1004
18105TIP3    H175806   2.541  -0.056   9.155  0.4836 -0.4140  1.8824
18105TIP3    H275807   2.606   0.079   9.180 -0.4819  0.8305 -1.6665
18106TIP3   OH275808   4.356   3.701   9.838  0.3161 -0.1197 -0.4393
18106TIP3    H175809   4.317   3.775   9.885  0.6430 -0.5164  0.4796
18106TIP3    H275810   4.450   3.721   9.836  0.4085 -0.5104 -0.1705
18107TIP3   OH275811   2.496   3.879  33.362 -0.3153 -0.3920 -0.1652
18107TIP3    H175812   2.480   3.832  33.443  0.1543 -0.3529 -0.0430
18107TIP3    H275813   2.438   3.955  33.365 -1.7871 -1.4422 -0.7973
18108TIP3   OH275814   3.518   0.504  31.463 -0.3352  0.2700  0.1419
18108TIP3    H175815   3.469   0.562  31.405 -0.2907 -1.1000 -1.3378
18108TIP3    H275816   3.609   0.514  31.436 -0.1820  0.3715  0.6761
18109TIP3   OH275817   0.397   1.804  27.274  0.1506  0.7136 -0.1449
18109TIP3    H175818   0.396   1.743  27.348 -0.4216  1.8698  0.8271
18109TIP3    H275819   0.305   1.814  27.250  0.4315 -1.6191 -2.7557
18110TIP3   OH275820   1.178   0.798  37.017 -0.0284  0.2903 -0.6926
18110TIP3    H175821   1.251   0.836  37.066  0.4049 -0.3542 -0.8272
18110TIP3    H275822   1.103   0.807  37.076  0.2229  0.6831 -0.4301
18111TIP3   OH275823   2.703   2.566  29.877 -0.4026 -0.8475 -0.3265
18111TIP3    H175824   2.608   2.566  29.878 -0.4225 -0.3889  1.6888
18111TIP3    H275825   2.727   2.486  29.830 -1.7647 -1.4036 -0.1145
18112TIP3   OH275826   2.690   1.503  37.096  0.2705 -0.2886  0.3397
18112TIP3    H175827   2.747   1.466  37.029 -0.7345  2.4915 -2.2883
18112TIP3    H275828   2.743   1.569  37.140  0.4138 -0.9378  1.1721
18113TIP3   OH275829   4.086   2.349  37.708 -0.1556 -0.2420 -0.0606
18113TIP3    H175830   4.065   2.404  37.632  0.5348  0.2111  0.0697
18113TIP3    H275831   4.017   2.368  37.771  1.1226  2.0061  0.7584
18114TIP3   OH275832   0.209   1.099  39.069 -0.1738  0.2645  0.3840
18114TIP3    H175833   0.209   1.093  38.974 -0.1178  0.4197  0.3736
18114TIP3    H275834   0.278   1.038  39.097  0.8668  1.3350  0.2402
18115TIP3   OH275835   2.602   2.534  39.496  0.4672  0.0994 -0.4322
18115TIP3    H175836   2.550   2.610  39.470 -0.5247 -0.5643 -0.4271
18115TIP3    H275837   2.645   2.561  39.576  0.9811  1.0318 -0.9994
18116TIP3   OH275838   3.147   3.351  32.737 -0.0378 -0.3797  0.1590
18116TIP3    H175839   3.193   3.285  32.685  1.4457 -1.0721  2.2066
18116TIP3    H275840   3.121   3.304  32.816 -1.2869  0.8831  0.5256
18117TIP3   OH275841   1.004   3.861   9.670  0.1624  0.1456  0.1482
18117TIP3    H175842   0.920   3.900   9.645 -0.6694 -0.3098  2.0796
18117TIP3    H275843   1.031   3.911   9.747  1.9006  0.5454 -0.6665
18118TIP3   OH275844   1.594   0.691  30.496  0.3053  0.5337  0.1438
18118TIP3    H175845   1.522   0.732  30.448 -0.0589 -0.1661  0.0850
18118TIP3    H275846   1.559   0.606  30.523 -0.4913  1.8537  3.9374
18119TIP3   OH275847   2.372   4.233  11.674  0.0550  0.1295  0.0703
18119TIP3    H175848   2.389   4.165  11.609  2.6559 -0.5354  1.3008
18119TIP3    H275849   2.344   4.309  11.623  0.3391 -0.8735 -1.6521
18120TIP3   OH275850   0.313   2.911  35.784 -0.0417  0.1204 -0.5316
18120TIP3    H175851   0.232   2.910  35.734  0.1498 -2.8445 -0.9448
18120TIP3    H275852   0.288   2.886  35.873  0.3705 -0.3974 -0.5601
18121TIP3   OH275853   2.814   3.396  33.514  0.0995 -0.0473 -0.3859
18121TIP3    H175854   2.786   3.306  33.527  0.1609  0.0342  0.3462
18121TIP3    H275855   2.858   3.396  33.429  2.3318 -1.2574  0.6832
18122TIP3   OH275856   3.990   1.309  12.257 -0.0371  0.2679  0.3288
18122TIP3    H175857   3.934   1.241  12.219 -1.4355  0.7233  1.5002
18122TIP3    H275858   4.005   1.370  12.185 -2.2543  0.8667  0.2931
18123TIP3   OH275859   0.906   0.442   1.780  0.3906  0.0280  0.5415
18123TIP3    H175860   0.976   0.426   1.843  0.4458 -0.6030  0.3297
18123TIP3    H275861   0.828   0.403   1.821 -0.0689  1.5924  1.2267
18124TIP3   OH275862   2.350   2.447  29.082  0.4923 -0.4690  0.0569
18124TIP3    H175863   2.432   2.400  29.069  0.6197 -0.9470  2.1991
18124TIP3    H275864   2.372   2.518  29.142 -0.4011  0.2656 -0.4500
18125TIP3   OH275865   1.057   0.597  39.819  0.0864  0.1254 -0.0834
18125TIP3    H175866   1.032   0.594  39.911  0.1906  0.3678 -0.0468
18125TIP3    H275867   1.102   0.681  39.809 -0.8553  0.5907 -0.5907
18126TIP3   OH275868   2.672   1.779   4.906 -0.0689  0.2222 -0.2015
18126TIP3    H175869   2.679   1.779   5.002 -1.9681  0.4434 -0.0314
18126TIP3    H275870   2.748   1.829   4.877  0.6301  0.0211  1.1695
18127TIP3   OH275871   2.509   1.898  27.388  0.0281  0.1363  0.1191
18127TIP3    H175872   2.415   1.897  27.408 -0.3235 -0.8319 -1.4503
18127TIP3    H275873   2.514   1.874  27.296  2.0628 -4.1546  1.1392
18128TIP3   OH275874   2.713   4.360  36.842 -0.3862  0.0564  0.0148
18128TIP3    H175875   2.705   4.451  36.873  0.2842 -0.1255  0.7576
18128TIP3    H275876   2.743   4.369  36.751  1.5364  0.5919  0.6575
18129TIP3   OH275877   3.212   1.847  26.318 -0.5793 -0.3639 -0.1313
18129TIP3    H175878   3.239   1.757  26.304 -2.8526 -0.8886 -1.5602
18129TIP3    H275879   3.233   1.892  26.236 -0.4269  0.1518  0.1856
18130TIP3   OH275880   2.682   3.787  41.488  0.0206  0.8365  0.2914
18130TIP3    H175881   2.657   3.878  41.473  0.1690  0.9346  0.6169
18130TIP3    H275882   2.713   3.786  41.579  2.7632  1.0844 -0.5558
18131TIP3   OH275883   3.589   3.585  34.366 -0.0420 -0.3296 -0.9549
18131TIP3    H175884   3.641   3.664  34.382  1.4865 -1.7835  2.1654
18131TIP3    H275885   3.607   3.562  34.275 -0.9833  3.1272 -2.1528
18132TIP3   OH275886   2.082   0.315  15.217 -0.1067  0.5184 -0.4374
18132TIP3    H175887   2.148   0.385  15.212 -0.0832  0.4853 -0.5796
18132TIP3    H275888   2.059   0.297  15.126  1.5609 -1.2633 -0.5498
18133TIP3   OH275889   1.027   1.372  27.968 -0.1054  0.2691  0.2525
18133TIP3    H175890   1.107   1.358  27.917  0.1239  2.2278  0.0093
18133TIP3    H275891   0.986   1.448  27.928 -2.2394 -0.8022  0.2431
18134TIP3   OH275892   2.798   2.422  36.298  0.3125 -0.5486  0.7566
18134TIP3    H175893   2.812   2.358  36.229 -3.0707 -0.0027 -0.6165
18134TIP3    H275894   2.786   2.506  36.253  0.8650  0.3720  2.2259
18135TIP3   OH275895   2.510   3.492  32.651  0.4902 -0.3497  0.2740
18135TIP3    H175896   2.416   3.512  32.658  0.5465  0.3644 -0.8046
18135TIP3    H275897   2.553   3.570  32.687  0.6973 -1.5014  2.7189
18136TIP3   OH275898   0.991   3.591  17.376  0.4888  0.0681  0.0605
18136TIP3    H175899   0.957   3.556  17.294 -1.3494 -1.0146  1.1915
18136TIP3    H275900   1.030   3.516  17.420  3.6714  1.0977 -0.7627
18137TIP3   OH275901   3.077   0.579  11.185 -0.2079 -0.0398  0.3079
18137TIP3    H175902   3.022   0.570  11.107  1.2060 -0.3923 -0.6873
18137TIP3    H275903   3.131   0.500  11.185  1.0249  0.7803  0.6682
18138TIP3   OH275904   3.639   2.181  41.115  0.0011 -0.8421  0.8375
18138TIP3    H175905   3.605   2.106  41.163  0.2605 -1.1427  0.5546
18138TIP3    H275906   3.619   2.256  41.171 -2.6579 -0.7684 -0.0473
18139TIP3   OH275907   1.350   1.127  28.116 -0.4889  0.0071 -0.1131
18139TIP3    H175908   1.265   1.170  28.113 -0.0131  1.0039 -3.5497
18139TIP3    H275909   1.408   1.191  28.155 -0.9514  0.0622  0.4914
18140TIP3   OH275910   3.551   0.924  28.317 -0.0860 -0.3690  0.2010
18140TIP3    H175911   3.576   0.975  28.240 -1.9308  0.3722  0.0351
18140TIP3    H275912   3.567   0.984  28.390  2.3785 -1.3313  0.5408
18141TIP3   OH275913   3.132   1.713  10.978  0.8017 -0.5692  0.0065
18141TIP3    H175914   3.047   1.748  10.950  0.1624 -1.2424  0.9981
18141TIP3    H275915   3.196   1.779  10.952 -0.1081  0.2571 -0.1808
18142TIP3   OH275916   4.350   1.193   1.066  0.1417  0.1651 -0.0961
18142TIP3    H175917   4.319   1.233   1.147 -0.4932 -0.1694 -0.1602
18142TIP3    H275918   4.436   1.232   1.051  0.4332 -0.0372  0.9318
18143TIP3   OH275919   2.772   2.162  39.811  0.0563 -0.2417  0.0788
18143TIP3    H175920   2.809   2.242  39.772 -2.2196  0.3997 -0.9409
18143TIP3    H275921   2.726   2.119  39.738 -0.5182 -1.3881  1.0833
18144TIP3   OH275922   2.209   0.318  36.766 -0.3161  0.1104  0.0059
18144TIP3    H175923   2.176   0.238  36.726  0.8974 -1.7621  2.4277
18144TIP3    H275924   2.188   0.308  36.859  1.9333  1.4706  0.7387
18145TIP3   OH275925   1.190   3.878  33.378 -0.9619  0.5125  0.1045
18145TIP3    H175926   1.097   3.899  33.367 -0.6104  1.5148 -1.3456
18145TIP3    H275927   1.200   3.791  33.338 -1.4686 -0.1513  1.3659
18146TIP3   OH275928   2.103   0.674  36.287  0.1887  0.6817  0.5419
18146TIP3    H175929   2.104   0.578  36.286 -0.7874  0.6591 -0.8751
18146TIP3    H275930   2.135   0.697  36.374  1.6718 -0.8973  0.4772
18147TIP3   OH275931   4.190   3.644  40.491 -0.0766 -0.0275 -0.3685
18147TIP3    H175932   4.172   3.556  40.460 -2.1160 -0.0719  0.7112
18147TIP3    H275933   4.208   3.695  40.412  3.2502 -1.7418 -0.8898
18148TIP3   OH275934   0.336   2.727  37.420  0.1226 -0.7423  0.4801
18148TIP3    H175935   0.294   2.732  37.334 -0.1813  0.1131  0.6655
18148TIP3    H275936   0.263   2.730  37.483  0.2215 -2.8831  0.7746
18149TIP3   OH275937   1.013   2.720  27.580  0.2279  0.4379 -0.5105
18149TIP3    H175938   1.029   2.806  27.541 -2.8868  0.9691 -0.8886
18149TIP3    H275939   0.919   2.719  27.596  0.4518 -2.2710  1.1050
18150TIP3   OH275940   0.094   0.736   2.258 -0.0104 -0.2003 -0.0253
18150TIP3    H175941   0.080   0.661   2.200  1.4668 -0.4424 -0.0960
18150TIP3    H275942   0.006   0.772   2.272 -0.6958 -1.7163 -0.2781
18151TIP3   OH275943   2.440   1.399  39.227  0.1222 -0.1025  0.1772
18151TIP3    H175944   2.448   1.400  39.322  1.2547 -0.7775  0.1126
18151TIP3    H275945   2.528   1.376  39.196 -0.5633 -1.3288 -0.9756
18152TIP3   OH275946   3.519   2.633   5.378 -0.1083 -0.1143 -0.5266
18152TIP3    H175947   3.558   2.555   5.418  0.7193 -0.4799 -1.9684
18152TIP3    H275948   3.593   2.694   5.368 -1.2327  2.3222  3.6227
18153TIP3   OH275949   2.814   0.597   1.210 -0.2154  0.1956  0.2730
18153TIP3    H175950   2.873   0.528   1.242  0.0451  1.1904  2.0277
18153TIP3    H275951   2.745   0.602   1.276 -0.4062  1.3948  0.0013
18154TIP3   OH275952   4.207   4.218   7.085 -0.0822  0.3742  0.4119
18154TIP3    H175953   4.226   4.141   7.031 -4.9101 -0.1300 -1.1066
18154TIP3    H275954   4.212   4.187   7.175  2.5431 -0.3219  0.1103
18155TIP3   OH275955   3.872   1.958  21.123  0.8027 -0.6932  0.5708
18155TIP3    H175956   3.829   1.873  21.134  1.2487 -0.9013  0.7185
18155TIP3    H275957   3.921   1.949  21.040  0.3719 -0.3760  0.2774
18156TIP3   OH275958   0.967   3.621  31.818 -0.1456  0.0256  0.0931
18156TIP3    H175959   0.915   3.621  31.898 -0.4212  1.4027 -0.0598
18156TIP3    H275960   0.904   3.603  31.749 -0.5952  2.2730 -0.1562
18157TIP3   OH275961   3.562   3.397  30.084 -0.0824 -0.3168 -0.2042
18157TIP3    H175962   3.501   3.326  30.106 -0.3615  0.6476  2.6906
18157TIP3    H275963   3.637   3.382  30.141  0.5419  0.8409 -0.6936
18158TIP3   OH275964   3.221   0.774   5.380 -0.5485 -0.1972  0.1478
18158TIP3    H175965   3.274   0.761   5.458  0.2053  1.1870 -0.0986
18158TIP3    H275966   3.146   0.715   5.391  0.9061 -2.0367  0.6135
18159TIP3   OH275967   1.591   4.227  38.369  0.2831  0.1814 -0.0689
18159TIP3    H175968   1.574   4.256  38.459  1.1584 -3.4245  1.4578
18159TIP3    H275969   1.528   4.156  38.355 -0.3649  1.1525 -2.6877
18160TIP3   OH275970   3.484   0.400   6.198  0.0353 -0.0729  0.1185
18160TIP3    H175971   3.399   0.381   6.158  0.2449  0.8847 -0.8040
18160TIP3    H275972   3.532   0.448   6.131  0.7269  0.7861  1.2070
18161TIP3   OH275973   2.890   4.322   8.636  0.1540 -0.2157 -0.7388
18161TIP3    H175974   2.878   4.228   8.622  3.0548 -1.5561  3.6647
18161TIP3    H275975   2.967   4.345   8.584  0.3011 -0.6447 -0.7106
18162TIP3   OH275976   2.238   1.395  11.895 -0.0093 -0.3145  0.4279
18162TIP3    H175977   2.238   1.434  11.983  0.7782 -0.6080  0.5587
18162TIP3    H275978   2.289   1.455  11.842 -0.0935 -0.3804  0.2715
18163TIP3   OH275979   2.456   2.077  37.669  0.1372  0.0759  0.0768
18163TIP3    H175980   2.441   2.168  37.695  1.6538  0.3809 -0.0170
18163TIP3    H275981   2.522   2.082  37.600 -0.2382 -1.0596 -0.3917
18164TIP3   OH275982   1.910   1.941  36.355 -0.0071 -0.3411  0.8628
18164TIP3    H175983   1.975   1.940  36.284 -0.0871 -0.6647  0.7887
18164TIP3    H275984   1.922   1.857  36.399 -0.9878 -0.8081  0.2750
18165TIP3   OH275985   2.710   1.481  32.384  0.2019  0.0500  0.0006
18165TIP3    H175986   2.614   1.478  32.392  0.1305 -0.7023 -0.9876
18165TIP3    H275987   2.740   1.506  32.472 -0.9714  2.5420 -0.2169
18166TIP3   OH275988   1.172   2.057  36.849 -0.0401  0.0009 -0.2552
18166TIP3    H175989   1.226   2.130  36.879  1.0412 -0.4058 -1.1547
18166TIP3    H275990   1.196   2.046  36.757 -1.2199 -0.5861 -0.5065
18167TIP3   OH275991   0.420   2.976  33.229  0.0929 -0.6357 -0.8586
18167TIP3    H175992   0.408   2.914  33.157 -1.6913  0.9269 -2.0081
18167TIP3    H275993   0.384   2.931  33.305 -0.6367 -1.2620 -1.5443
18168TIP3   OH275994   3.135   4.230   3.719  0.2110 -0.7521  0.3719
18168TIP3    H175995   3.150   4.167   3.789  0.4466  1.3800  2.3509
18168TIP3    H275996   3.222   4.258   3.692  0.0831  0.2916  1.0185
18169TIP3   OH275997   1.926   2.768  31.569 -0.2155  0.0288  0.2410
18169TIP3    H175998   1.985   2.711  31.521  1.4085  1.8853 -0.0993
18169TIP3    H275999   1.918   2.728  31.655  3.8931  1.0700  1.3218
18170TIP3   OH276000   4.257   2.592  22.117 -0.1937 -0.0298  0.6194
18170TIP3    H176001   4.300   2.667  22.075  0.1641 -1.2621 -1.3342
18170TIP3    H276002   4.329   2.532  22.137 -0.5701 -0.2406  1.3522
18171TIP3   OH276003   2.260   2.885  39.643 -0.4078 -0.3601  0.3094
18171TIP3    H176004   2.272   2.934  39.724 -0.7518  0.4863 -0.1390
18171TIP3    H276005   2.328   2.817  39.646 -2.0961 -2.0724  2.5528
18172TIP3   OH276006   1.604   2.876  11.791 -0.2784  0.0219 -0.2676
18172TIP3    H176007   1.576   2.967  11.801 -1.7097 -0.4428  0.2737
18172TIP3    H276008   1.633   2.870  11.700  0.1844  1.1034 -0.2041
18173TIP3   OH276009   3.870   2.556  34.532 -0.6682  0.2274 -0.4979
18173TIP3    H176010   3.939   2.549  34.598 -1.0506 -0.1209 -0.1330
18173TIP3    H276011   3.794   2.514  34.572 -1.3803  1.4341 -0.5138
18174TIP3   OH276012   1.071   1.985  27.699 -0.2752 -0.2563 -0.2957
18174TIP3    H176013   1.040   2.027  27.779 -0.8649 -1.0429 -0.0913
18174TIP3    H276014   0.994   1.980  27.643  0.1360  0.2912 -0.9187
18175TIP3   OH276015   0.327   3.419  41.086 -0.1884  0.1389 -0.2893
18175TIP3    H176016   0.263   3.472  41.039 -0.0340  0.7301  0.1554
18175TIP3    H276017   0.299   3.329  41.071 -2.5176  0.4032  1.7574
18176TIP3   OH276018   0.145   1.264   6.216 -0.6631 -0.2665  0.1540
18176TIP3    H176019   0.199   1.222   6.283 -2.4266 -0.8224  1.2793
18176TIP3    H276020   0.180   1.230   6.133  2.3856  1.3974  0.5984
18177TIP3   OH276021   0.053   3.286  31.876 -0.1567 -0.5950  0.6066
18177TIP3    H176022   0.092   3.292  31.789 -1.6888 -1.3363 -0.1728
18177TIP3    H276023   0.086   3.363  31.922 -0.7071  0.8294 -1.2272
18178TIP3   OH276024   4.250   1.011   8.344 -0.0713  0.2170  0.4022
18178TIP3    H176025   4.206   1.066   8.408 -1.2487  0.2491 -0.4125
18178TIP3    H276026   4.222   0.922   8.366 -0.3114  0.2081  0.0610
18179TIP3   OH276027   2.665   1.500  13.017 -0.6876  0.1013 -0.1915
18179TIP3    H176028   2.657   1.586  12.978 -2.2285 -0.1924 -0.5749
18179TIP3    H276029   2.668   1.517  13.112  0.9208  0.6685 -0.3160
18180TIP3   OH276030   3.538   3.717  38.289  0.2192  0.7974 -0.3495
18180TIP3    H176031   3.531   3.807  38.321 -2.4099  0.3429  0.5935
18180TIP3    H276032   3.590   3.672  38.355  2.9025  1.8595 -1.5799
18181TIP3   OH276033   1.718   2.388  10.122 -0.2504  0.0401  0.4650
18181TIP3    H176034   1.719   2.318  10.187 -1.7510  0.0814  0.5629
18181TIP3    H276035   1.808   2.393  10.091  0.2490 -0.7678  1.6976
18182TIP3   OH276036   2.239   3.079  30.179  0.0820 -0.1859 -0.1211
18182TIP3    H176037   2.149   3.079  30.214 -0.5525  0.5333 -1.6789
18182TIP3    H276038   2.246   2.997  30.131 -0.5287  0.7086 -1.8268
18183TIP3   OH276039   1.435   3.638   1.277 -0.3051  0.3939 -0.0797
18183TIP3    H176040   1.530   3.641   1.270 -0.2885 -0.1903 -0.1841
18183TIP3    H276041   1.409   3.568   1.216 -0.7687  0.3179  0.2009
18184TIP3   OH276042   2.616   0.240   5.048 -0.1916 -0.3356  0.3980
18184TIP3    H176043   2.646   0.309   4.989  0.5606 -1.0936 -0.1341
18184TIP3    H276044   2.552   0.191   4.997  0.2232 -0.7970  0.3073
18185TIP3   OH276045   1.886   4.147  38.575  0.1768 -0.1786 -0.4850
18185TIP3    H176046   1.819   4.183  38.634  1.9330  1.1765  0.7899
18185TIP3    H276047   1.909   4.220  38.518  0.9504 -0.4541 -0.5377
18186TIP3   OH276048   3.912   3.683  33.829 -0.1501 -0.0517  0.4768
18186TIP3    H176049   3.915   3.716  33.739 -0.6639 -1.8669 -0.2429
18186TIP3    H276050   3.819   3.685  33.852  0.0350  0.9726  1.2176
18187TIP3   OH276051   3.907   1.386  33.170 -0.1834  0.4216  0.0684
18187TIP3    H176052   3.946   1.331  33.237  0.2271 -0.0764 -0.5723
18187TIP3    H276053   3.924   1.476  33.199  0.6973  0.2104  0.2183
18188TIP3   OH276054   0.465   0.876  25.921  0.6239  0.2699  0.3160
18188TIP3    H176055   0.403   0.944  25.947  1.7261  0.8797  1.4860
18188TIP3    H276056   0.496   0.839  26.004 -0.1707 -1.9029 -0.2916
18189TIP3   OH276057   3.514   3.976  38.751 -0.0971 -0.3228  0.1714
18189TIP3    H176058   3.473   4.062  38.742 -0.5039 -0.6179 -0.9927
18189TIP3    H276059   3.569   3.983  38.829  1.4035  1.6051 -0.9944
18190TIP3   OH276060   2.147   1.064   4.648  0.0402  0.0980  0.1895
18190TIP3    H176061   2.225   1.085   4.596  0.2701 -0.2864  0.3778
18190TIP3    H276062   2.090   1.140   4.637  1.1032  1.1143  1.3042
18191TIP3   OH276063   2.602   0.566  19.039  0.2296  0.2515 -0.8076
18191TIP3    H176064   2.582   0.515  18.960 -1.5193 -0.9668  0.3222
18191TIP3    H276065   2.527   0.624  19.050 -0.5683 -0.9839  0.9482
18192TIP3   OH276066   3.812   2.915  34.079  0.2418  0.4204  0.0376
18192TIP3    H176067   3.847   2.973  34.012  0.3737  1.0670  0.6522
18192TIP3    H276068   3.754   2.971  34.132  2.6979  0.8148  2.5260
18193TIP3   OH276069   0.478   1.959  37.791  0.6995  0.7072 -0.2760
18193TIP3    H176070   0.445   2.046  37.812  0.2405  0.3533  0.5196
18193TIP3    H276071   0.544   1.941  37.858 -0.8137 -0.4540  0.9896
18194TIP3   OH276072   2.247   1.683  38.687  0.1697  0.6647 -0.1508
18194TIP3    H176073   2.233   1.588  38.698 -2.1893  1.0768  1.2828
18194TIP3    H276074   2.342   1.694  38.696  0.5295 -1.5621 -0.4565
18195TIP3   OH276075   3.594   0.650  35.315  0.7244 -0.6286  0.6140
18195TIP3    H176076   3.577   0.605  35.232  1.4027 -1.9324  1.1482
18195TIP3    H276077   3.507   0.671  35.349  0.4488  1.1520 -1.0360
18196TIP3   OH276078   0.776   0.072  10.625 -0.3985  0.1343 -0.0744
18196TIP3    H176079   0.846   0.015  10.657  0.2897  2.4585  3.0010
18196TIP3    H276080   0.821   0.146  10.586 -1.2524  0.1766 -1.0350
18197TIP3   OH276081   1.952   4.077   9.350  0.1932  0.3543  0.4482
18197TIP3    H176082   1.906   3.993   9.347  1.3840 -0.3112 -0.5126
18197TIP3    H276083   1.945   4.105   9.441 -0.3207 -0.7430  0.7682
18198TIP3   OH276084   0.484   1.240  29.792 -0.1111  0.5306 -0.0101
18198TIP3    H176085   0.462   1.161  29.841  0.5633  0.3787  0.0614
18198TIP3    H276086   0.509   1.209  29.705  0.1695  0.6632  0.0228
18199TIP3   OH276087   3.058   1.107  38.319 -0.0052  0.1202 -0.3319
18199TIP3    H176088   3.053   1.138  38.409 -0.2634 -0.1789 -0.2443
18199TIP3    H276089   3.077   1.186  38.268 -1.1372  0.5223 -0.1641
18200TIP3   OH276090   3.513   1.175   0.864  0.1021  0.1268 -0.1316
18200TIP3    H176091   3.544   1.094   0.904 -2.7042 -0.9979  0.0381
18200TIP3    H276092   3.508   1.237   0.936 -1.3744 -0.7705  0.5896
18201TIP3   OH276093   2.423   4.164  30.377  0.3831  0.0287  0.4734
18201TIP3    H176094   2.501   4.159  30.321 -0.2812  0.7769 -0.5496
18201TIP3    H276095   2.398   4.256  30.375  0.2608  0.0377  1.9105
18202TIP3   OH276096   1.419   2.744  18.978 -0.1010  0.1367  0.2195
18202TIP3    H176097   1.427   2.756  19.072  0.5691  2.3297 -0.0741
18202TIP3    H276098   1.501   2.703  18.952 -0.0674  0.0139  0.5105
18203TIP3   OH276099   4.144   0.109  41.611 -0.1297  0.1292 -0.7639
18203TIP3    H176100   4.218   0.061  41.574 -0.7312 -0.8979 -0.6774
18203TIP3    H276101   4.176   0.199  41.621  1.9727 -0.7490  1.5865
18204TIP3   OH276102   3.345   0.175  28.624  0.4048 -0.6241 -0.4723
18204TIP3    H176103   3.264   0.179  28.674  1.3985 -1.2389  1.2931
18204TIP3    H276104   3.370   0.267  28.611 -0.6643 -0.4249 -1.2391
18205TIP3   OH276105   3.804   2.553  26.876 -0.0164 -0.1931  0.3769
18205TIP3    H176106   3.826   2.460  26.867 -0.0293 -0.2125  0.5371
18205TIP3    H276107   3.713   2.558  26.846 -0.6135 -0.5494  2.0235
18206TIP3   OH276108   1.845   0.092   5.465  0.4773 -0.0692 -0.5344
18206TIP3    H176109   1.784   0.059   5.531 -0.9403  2.6310 -0.3439
18206TIP3    H276110   1.919   0.125   5.515  1.1063 -1.2950 -0.6127
18207TIP3   OH276111   2.495   1.720  11.046  0.4673  0.1431 -0.1758
18207TIP3    H176112   2.516   1.705  10.954  0.0340  1.2986 -0.4777
18207TIP3    H276113   2.564   1.778  11.078  0.5990 -0.2299  0.2297
18208TIP3   OH276114   1.084   4.061   5.933 -0.1606 -0.4285  0.0007
18208TIP3    H176115   1.152   3.995   5.923 -0.7668 -0.7616 -2.5524
18208TIP3    H276116   1.113   4.134   5.878 -0.5895  0.5648  1.0335
18209TIP3   OH276117   1.347   0.127  33.488  0.3742  0.1575  0.0690
18209TIP3    H176118   1.295   0.205  33.506  1.7682  0.9274  0.8517
18209TIP3    H276119   1.416   0.157  33.429  0.5333 -0.6336 -0.1653
18210TIP3   OH276120   4.220   0.723   7.868  0.1376 -0.3573  0.4915
18210TIP3    H176121   4.296   0.775   7.894 -0.1638  0.2435  0.2067
18210TIP3    H276122   4.172   0.708   7.949  1.0745 -1.6273  0.8458
18211TIP3   OH276123   2.149   2.898  35.536 -0.8365  0.1437 -0.9090
18211TIP3    H176124   2.079   2.834  35.545 -0.7691  0.2430  0.7007
18211TIP3    H276125   2.116   2.976  35.581 -0.4304  0.8251 -1.7688
18212TIP3   OH276126   0.196   3.285   4.782 -0.1748 -0.0326 -0.1133
18212TIP3    H176127   0.206   3.280   4.877  1.4118  1.2372 -0.1663
18212TIP3    H276128   0.103   3.302   4.768 -0.4148 -0.2059  1.2254
18213TIP3   OH276129   3.829   1.920  31.578 -0.1328 -0.3674 -0.1299
18213TIP3    H176130   3.922   1.927  31.556  0.0839 -2.7070 -0.1617
18213TIP3    H276131   3.785   1.918  31.493  0.0828 -2.1963 -0.2345
18214TIP3   OH276132   0.849   0.060  38.512 -0.4639 -0.1640  0.7805
18214TIP3    H176133   0.853   0.022  38.600  0.5297 -1.0911  0.3576
18214TIP3    H276134   0.760   0.042  38.482 -0.2703 -1.4503  0.9166
18215TIP3   OH276135   0.319   4.058   5.828 -0.3832  0.2610 -0.1087
18215TIP3    H176136   0.279   4.089   5.747  0.5062  0.9991 -0.2715
18215TIP3    H276137   0.333   3.964   5.812 -0.6439  0.3025 -0.6229
18216TIP3   OH276138   3.567   1.961  35.289 -0.0378  0.1420  0.5210
18216TIP3    H176139   3.523   2.045  35.300 -0.6980  0.1602 -1.7909
18216TIP3    H276140   3.518   1.900  35.344  0.0196  1.1079  1.6606
18217TIP3   OH276141   2.064   2.292   7.273  0.0729 -0.0648 -0.5086
18217TIP3    H176142   2.040   2.207   7.235  2.4658 -2.2889  2.3932
18217TIP3    H276143   2.129   2.328   7.212  0.0865 -1.0032 -1.0671
18218TIP3   OH276144   1.138   0.231   0.404 -0.1983  0.2570 -0.2967
18218TIP3    H176145   1.135   0.263   0.314 -3.5707  0.9378 -0.0689
18218TIP3    H276146   1.140   0.311   0.457 -0.1009 -0.0936  0.2304
18219TIP3   OH276147   2.529   0.983   8.639  0.2857 -0.0285  0.5285
18219TIP3    H176148   2.554   0.989   8.731  3.0661 -0.6575 -0.1097
18219TIP3    H276149   2.528   0.889   8.621 -0.5651  0.0725 -0.0312
18220TIP3   OH276150   0.100   1.373  38.174 -0.4363  0.1695  0.4064
18220TIP3    H176151   0.063   1.302  38.224 -1.3862  0.8835  0.7377
18220TIP3    H276152   0.040   1.386  38.100 -1.7111  2.2552  1.7065
18221TIP3   OH276153   2.738   1.023  29.668  0.1301  0.3628  0.1886
18221TIP3    H176154   2.676   1.095  29.668 -1.1659 -0.7096  1.1132
18221TIP3    H276155   2.725   0.979  29.584 -1.2433 -0.5506  0.8460
18222TIP3   OH276156   2.436   4.106  37.572 -0.1502  0.2792  0.1000
18222TIP3    H176157   2.390   4.103  37.488  0.0262  1.7322 -0.0762
18222TIP3    H276158   2.526   4.133  37.549 -0.2426  1.2171  0.7762
18223TIP3   OH276159   3.548   1.728   9.967 -0.3660  0.5155  0.8805
18223TIP3    H176160   3.499   1.796  10.013  1.1170  2.3148 -0.1127
18223TIP3    H276161   3.630   1.769   9.941  0.6401 -1.6828  0.3070
18224TIP3   OH276162   3.950   2.239  29.423 -0.1518 -0.1763 -0.3823
18224TIP3    H176163   3.962   2.169  29.487  0.3787 -0.3692 -0.6796
18224TIP3    H276164   3.987   2.317  29.465 -1.7521  0.1872  0.3951
18225TIP3   OH276165   1.534   3.250   4.247  0.0441  0.8023 -0.0680
18225TIP3    H176166   1.500   3.161   4.236 -0.1429  1.0198 -1.3896
18225TIP3    H276167   1.476   3.289   4.312  1.1210 -0.5188  1.8158
18226TIP3   OH276168   2.436   0.212  28.168 -0.1226 -0.1280  0.1093
18226TIP3    H176169   2.365   0.273  28.148 -0.3782 -0.5926 -0.4379
18226TIP3    H276170   2.466   0.238  28.255  0.3370  1.2968 -0.4600
18227TIP3   OH276171   4.165   1.169  35.531 -0.1282  0.0283 -0.1380
18227TIP3    H176172   4.253   1.196  35.504  0.6693 -2.3322 -0.1773
18227TIP3    H276173   4.107   1.233  35.490  1.4898  0.8568 -1.2745
18228TIP3   OH276174   1.630   3.512   3.346  0.3610  0.3873  0.0430
18228TIP3    H176175   1.578   3.563   3.408  1.1556  0.5657  0.5894
18228TIP3    H276176   1.721   3.530   3.371  0.6710 -0.9754 -0.0156
18229TIP3   OH276177   1.384   3.323  13.887 -0.2408 -0.1766 -0.0326
18229TIP3    H176178   1.336   3.278  13.819 -0.6969 -0.9116  0.7576
18229TIP3    H276179   1.412   3.254  13.947  2.8859  0.0335 -1.0581
18230TIP3   OH276180   1.678   2.279  29.203 -0.1775 -0.6526  0.1405
18230TIP3    H176181   1.646   2.299  29.115  3.2288 -1.9052 -1.5661
18230TIP3    H276182   1.732   2.354  29.226  0.5600 -1.2151  0.2578
18231TIP3   OH276183   0.843   0.696  13.508 -0.0123  0.1991 -0.4725
18231TIP3    H176184   0.798   0.637  13.448 -0.5446  0.8891 -0.7728
18231TIP3    H276185   0.774   0.731  13.564  0.5269 -0.7332  0.8295
18232TIP3   OH276186   1.068   2.483  14.086  0.0145  0.6124 -0.6529
18232TIP3    H176187   1.161   2.492  14.066 -0.0745 -0.8462 -1.9349
18232TIP3    H276188   1.065   2.451  14.176  0.6801  1.9973 -0.1227
18233TIP3   OH276189   0.455   1.753  30.967 -0.3485 -0.2202 -0.1541
18233TIP3    H176190   0.522   1.777  30.903  0.7759 -2.2021  0.1924
18233TIP3    H276191   0.479   1.801  31.046 -0.3149  0.3334 -0.4926
18234TIP3   OH276192   0.680   0.194   7.378 -0.0669  0.4426  0.0582
18234TIP3    H176193   0.605   0.254   7.380 -0.5834 -0.1985  0.0144
18234TIP3    H276194   0.731   0.217   7.455 -0.2225  0.9864  0.0065
18235TIP3   OH276195   1.814   2.490  31.466  0.0035 -0.3214 -0.0884
18235TIP3    H176196   1.910   2.490  31.460 -0.0275 -1.4817 -0.7353
18235TIP3    H276197   1.797   2.482  31.560  0.5148  1.1611  0.1707
18236TIP3   OH276198   1.657   2.359  26.863  0.5393 -0.1674 -0.3054
18236TIP3    H176199   1.688   2.314  26.943 -1.4398 -0.6413  0.2477
18236TIP3    H276200   1.695   2.446  26.869 -0.2304  0.0941  1.6327
18237TIP3   OH276201   3.548   3.271  31.557  0.3864 -0.4912  0.8428
18237TIP3    H176202   3.476   3.294  31.498  0.6102 -0.2884  0.6473
18237TIP3    H276203   3.563   3.350  31.609 -0.7815 -1.1043  2.2077
18238TIP3   OH276204   2.795   0.399   7.007 -0.4329 -0.0429  0.0103
18238TIP3    H176205   2.779   0.372   7.098 -2.2312  0.0840 -0.2261
18238TIP3    H276206   2.725   0.462   6.988  0.5394  0.7248 -1.1420
18239TIP3   OH276207   0.074   1.062   8.521  0.2682 -0.2655 -0.4642
18239TIP3    H176208   0.157   1.014   8.516  1.1865  1.0856  0.9016
18239TIP3    H276209   0.084   1.134   8.458 -0.0438 -0.3538 -0.6139
18240TIP3   OH276210   1.575   0.738  15.248  0.4659  0.4191  0.7719
18240TIP3    H176211   1.613   0.810  15.299  0.9815 -0.6787  2.0025
18240TIP3    H276212   1.591   0.660  15.301  1.6992 -0.9146 -1.3920
18241TIP3   OH276213   3.629   1.065  30.976  0.4256 -0.2292  0.1799
18241TIP3    H176214   3.545   1.056  30.930 -0.7251  0.4902  2.0243
18241TIP3    H276215   3.691   1.091  30.907 -0.9859 -0.1987 -1.1429
18242TIP3   OH276216   3.261   1.794  28.569 -0.1185  0.0146  0.2593
18242TIP3    H176217   3.288   1.827  28.655  0.5568 -1.6283  0.7146
18242TIP3    H276218   3.214   1.713  28.588  2.4381 -1.9082 -0.9780
18243TIP3   OH276219   2.621   0.301   9.367 -0.3018  0.5919  0.3524
18243TIP3    H176220   2.556   0.311   9.298 -1.7387  1.4952  1.7643
18243TIP3    H276221   2.700   0.344   9.333 -0.9002  0.8328 -0.7839
18244TIP3   OH276222   3.617   2.203  37.834  0.4518 -0.1609  0.2455
18244TIP3    H176223   3.653   2.159  37.911  2.1087  1.1229  0.2508
18244TIP3    H276224   3.524   2.179  37.834  0.7070 -1.2941  1.8418
18245TIP3   OH276225   1.737   3.315  11.436 -0.3841 -0.6565 -0.0555
18245TIP3    H176226   1.745   3.346  11.526  3.3582 -0.7506 -0.2380
18245TIP3    H276227   1.763   3.223  11.440 -0.8528 -0.8559 -1.1637
18246TIP3   OH276228   0.982   2.424   3.884  0.1064 -0.1000 -0.0092
18246TIP3    H176229   0.995   2.398   3.975 -1.4999 -0.5840  0.1112
18246TIP3    H276230   1.044   2.496   3.870 -1.4081  1.8012  2.2664
18247TIP3   OH276231   3.260   4.028  37.089 -0.9550  0.0021 -0.1418
18247TIP3    H176232   3.250   4.079  37.170 -0.8083  0.9462 -0.7108
18247TIP3    H276233   3.260   4.093  37.019 -1.1053 -0.8102 -0.9156
18248TIP3   OH276234   1.170   2.338   7.669  0.1740  0.4142 -0.7809
18248TIP3    H176235   1.086   2.384   7.677  0.1773  0.1556  1.0248
18248TIP3    H276236   1.146   2.246   7.668  0.4694  0.3038  0.6689
18249TIP3   OH276237   0.934   1.753   4.001  0.0885  0.1399  0.5113
18249TIP3    H176238   0.864   1.737   4.064  0.8708  0.0505  1.3861
18249TIP3    H276239   0.931   1.677   3.942 -1.1477  0.6008 -0.0530
18250TIP3   OH276240   3.120   0.812   7.092  0.0157 -0.4473 -0.6963
18250TIP3    H176241   3.131   0.792   7.185 -0.9947 -0.1930 -0.5112
18250TIP3    H276242   3.207   0.836   7.062  0.0526  1.1826  0.5981
18251TIP3   OH276243   0.230   1.879  30.813 -0.0918  0.0469 -0.2844
18251TIP3    H176244   0.288   1.953  30.830  0.5353 -0.4565 -0.2223
18251TIP3    H276245   0.288   1.808  30.787 -0.6984 -0.3968 -0.4446
18252TIP3   OH276246   0.533   3.401  27.940  0.1316 -0.0401  0.5837
18252TIP3    H176247   0.539   3.496  27.950 -0.1145 -0.1850  2.5746
18252TIP3    H276248   0.564   3.384  27.851 -0.1311  1.9179  0.0712
18253TIP3   OH276249   3.530   2.453  37.720 -0.2104  0.5570  0.1590
18253TIP3    H176250   3.530   2.451  37.625  1.2109  1.9384  0.0815
18253TIP3    H276251   3.596   2.389  37.746  0.6428  1.3969  0.1184
18254TIP3   OH276252   0.381   1.216   8.112  0.2107 -0.0416  0.3898
18254TIP3    H176253   0.422   1.203   8.197 -0.7558  0.2244  0.9107
18254TIP3    H276254   0.406   1.304   8.086 -0.6698  0.4308  1.0854
18255TIP3   OH276255   0.337   3.462  24.295 -0.0782 -0.5597  0.2917
18255TIP3    H176256   0.351   3.377  24.253  1.9531  0.2968 -0.9424
18255TIP3    H276257   0.336   3.442  24.389  1.6101 -1.8582  0.0987
18256TIP3   OH276258   3.800   1.689  10.406  0.3016 -0.5197 -0.1227
18256TIP3    H176259   3.806   1.621  10.472 -0.2992  0.2520  0.7449
18256TIP3    H276260   3.764   1.765  10.452  0.7511  0.3241 -1.1098
18257TIP3   OH276261   2.826   3.563  35.355 -0.1002  0.5641 -0.3429
18257TIP3    H176262   2.817   3.637  35.414  2.3384 -0.2920  1.2227
18257TIP3    H276263   2.746   3.512  35.368  0.0412  0.7943  1.6788
18258TIP3   OH276264   1.768   2.746  14.308 -0.7076 -0.1173 -0.1910
18258TIP3    H176265   1.747   2.793  14.227 -4.6445  0.6782  1.0574
18258TIP3    H276266   1.703   2.675  14.312  1.4196 -2.1413  0.8289
18259TIP3   OH276267   1.963   0.568  32.164 -0.0868 -0.5812 -1.0114
18259TIP3    H176268   1.900   0.633  32.195 -1.2990 -1.0001 -2.4691
18259TIP3    H276269   1.992   0.602  32.079  2.4568  0.0949  0.0455
18260TIP3   OH276270   1.913   3.738  34.079  0.0332  0.1891 -0.5909
18260TIP3    H176271   1.953   3.793  34.011  1.6915 -0.4128 -0.1458
18260TIP3    H276272   1.970   3.749  34.155  1.3231 -3.2298 -0.9145
18261TIP3   OH276273   2.469   1.672  35.394  0.5928  0.5101 -0.5703
18261TIP3    H176274   2.414   1.692  35.470  0.9941 -2.4141  0.6220
18261TIP3    H276275   2.407   1.638  35.329  0.4446  1.6078 -1.0229
18262TIP3   OH276276   2.782   1.116   6.079 -0.2303 -0.4922  0.2303
18262TIP3    H176277   2.832   1.142   6.001  1.2900 -2.3323  0.5192
18262TIP3    H276278   2.708   1.176   6.080  1.6574  2.0496 -0.5186
18263TIP3   OH276279   3.705   0.463   3.375 -0.3942  0.5727 -0.4232
18263TIP3    H176280   3.737   0.473   3.286  0.0687  0.9988 -0.2124
18263TIP3    H276281   3.715   0.550   3.415  0.5592  0.0984  0.4145
18264TIP3   OH276282   1.590   3.385  10.568  0.0535  0.5753  0.7085
18264TIP3    H176283   1.539   3.309  10.597  0.1009 -0.1752 -1.0789
18264TIP3    H276284   1.620   3.362  10.480 -0.4525  2.9256 -0.1398
18265TIP3   OH276285   0.509   3.042   9.837 -0.3284 -0.6994  0.2754
18265TIP3    H176286   0.595   3.005   9.818 -0.7826 -0.0339 -4.0441
18265TIP3    H276287   0.527   3.119   9.891  1.8701 -0.3111 -0.9174
18266TIP3   OH276288   2.152   1.161  10.118 -0.8558 -0.0176 -0.1343
18266TIP3    H176289   2.170   1.068  10.129 -1.3305  0.0454  1.2783
18266TIP3    H276290   2.237   1.204  10.129 -0.4587 -0.3309 -1.7495
18267TIP3   OH276291   1.013   0.582   3.213  0.0127 -0.1858 -0.2004
18267TIP3    H176292   1.076   0.543   3.152  0.2954  1.4894 -1.0202
18267TIP3    H276293   0.993   0.511   3.274  2.5596 -0.8360 -0.0129
18268TIP3   OH276294   1.695   1.374   2.927 -0.1439 -0.0203  0.7105
18268TIP3    H176295   1.728   1.347   2.841 -1.7035 -1.0509  0.3975
18268TIP3    H276296   1.714   1.468   2.931 -2.8363  0.8305 -2.1507
18269TIP3   OH276297   2.679   3.277   2.811 -0.2008 -0.0456 -0.0893
18269TIP3    H176298   2.746   3.252   2.748  0.2426  2.0132 -0.4818
18269TIP3    H276299   2.709   3.239   2.894  0.6172 -0.4568 -0.5619
18270TIP3   OH276300   0.631   3.576   3.742  0.0367 -0.3642 -0.2239
18270TIP3    H176301   0.685   3.534   3.809 -1.0080  0.6659  1.3114
18270TIP3    H276302   0.562   3.621   3.790 -0.5322  0.7637 -1.9733
18271TIP3   OH276303   3.681   2.503  25.202  0.3071  0.1052 -0.7366
18271TIP3    H176304   3.670   2.594  25.227 -1.0153 -0.0280 -0.7672
18271TIP3    H276305   3.763   2.501  25.151  1.2810  0.9465  0.7259
18272TIP3   OH276306   2.359   2.622   1.648  0.2604  0.3968 -0.2429
18272TIP3    H176307   2.343   2.543   1.699  0.5984  1.2577  1.2308
18272TIP3    H276308   2.426   2.669   1.696 -0.1982  1.7751 -0.8998
18273TIP3   OH276309   2.173   3.714   1.919  0.1102  0.3835  0.0318
18273TIP3    H176310   2.235   3.690   1.851  1.9417  1.8536  1.1101
18273TIP3    H276311   2.121   3.785   1.881  0.1938  0.2743 -0.2905
18274TIP3   OH276312   2.400   1.985  13.326  0.0349 -0.1817  0.6321
18274TIP3    H176313   2.355   1.966  13.243  0.1974 -2.7722  1.0551
18274TIP3    H276314   2.489   1.953  13.312  0.3244  0.2303  1.4970
18275TIP3   OH276315   2.285   2.419  10.075 -0.1396  0.4825 -0.2757
18275TIP3    H176316   2.309   2.396  10.164  0.9490  0.7476 -0.4933
18275TIP3    H276317   2.268   2.336  10.032  2.9206  0.0430 -0.8212
18276TIP3   OH276318   1.719   1.623   7.665  0.3685  0.1333  0.4280
18276TIP3    H176319   1.809   1.629   7.632  0.3168 -3.3631 -0.7871
18276TIP3    H276320   1.723   1.555   7.732 -1.3943 -0.2576  0.1875
18277TIP3   OH276321   1.865   2.822   0.037 -0.1577 -0.1605  0.5611
18277TIP3    H176322   1.813   2.794  -0.038 -0.3652  1.5806 -0.0069
18277TIP3    H276323   1.933   2.756   0.046 -0.7814 -0.9635 -0.4844
18278TIP3   OH276324   2.045   1.297  12.488 -0.5578  0.1915  0.1608
18278TIP3    H176325   2.036   1.392  12.481 -0.4241  0.2966  1.1837
18278TIP3    H276326   2.013   1.263  12.405  1.1280  1.2382 -0.9755
18279TIP3   OH276327   1.546   0.816  38.751  0.5274  0.3231  0.2752
18279TIP3    H176328   1.621   0.759  38.770 -0.1588 -0.5935  0.2573
18279TIP3    H276329   1.584   0.887  38.699  1.3185 -0.3524 -0.1013
18280TIP3   OH276330   1.946   3.820  16.291 -0.0214 -0.8138  0.1053
18280TIP3    H176331   2.005   3.790  16.222 -0.2903 -0.3670 -0.3255
18280TIP3    H276332   2.003   3.857  16.357  0.1595  0.2647 -0.6281
18281TIP3   OH276333   3.823   2.391  38.467  0.2685 -0.8866  0.0563
18281TIP3    H176334   3.804   2.309  38.420  3.6062 -0.5057 -2.3106
18281TIP3    H276335   3.764   2.455  38.426  0.1639 -1.4165 -0.6540
18282TIP3   OH276336   2.603   3.937   2.375 -0.1388 -0.1275  0.3009
18282TIP3    H176337   2.599   4.030   2.355  0.4342 -0.2070 -0.1870
18282TIP3    H276338   2.576   3.894   2.294 -0.0720 -0.3974  0.4206
18283TIP3   OH276339   1.275   0.872  35.601 -0.1474 -0.3823 -0.1126
18283TIP3    H176340   1.234   0.860  35.686  2.2349 -1.4064  0.9914
18283TIP3    H276341   1.277   0.784  35.562  0.7044 -0.3161 -0.2463
18284TIP3   OH276342   1.096   0.521  12.043  0.2387  0.0126  0.1676
18284TIP3    H176343   1.018   0.484  12.002 -0.0703  0.9599 -0.1180
18284TIP3    H276344   1.063   0.594  12.096  1.2536  2.9955 -2.9914
18285TIP3   OH276345   0.975   0.615   2.039 -0.2783 -0.2013  0.0647
18285TIP3    H176346   1.069   0.618   2.020 -0.2144 -1.0983  0.2021
18285TIP3    H276347   0.971   0.616   2.135 -0.2829 -2.4446  0.1378
18286TIP3   OH276348   2.141   1.025   8.964  0.0070  0.1052 -0.5953
18286TIP3    H176349   2.094   1.101   8.930 -0.2970  0.2757  0.1748
18286TIP3    H276350   2.092   1.000   9.043  1.4566  0.5653  0.4817
18287TIP3   OH276351   1.643   0.314  35.994 -0.0651 -0.7508 -0.6029
18287TIP3    H176352   1.625   0.279  35.906 -1.7283  0.9852 -1.0210
18287TIP3    H276353   1.580   0.386  36.004  2.2047  1.1576  0.7914
18288TIP3   OH276354   3.402   0.151  41.239 -0.1458  0.2395  0.5238
18288TIP3    H176355   3.478   0.201  41.268 -0.3162  0.1644  1.1031
18288TIP3    H276356   3.327   0.196  41.277 -0.4025  0.3435 -0.0911
18289TIP3   OH276357   3.240   3.876   8.514 -0.1580  0.7667 -0.7444
18289TIP3    H176358   3.202   3.814   8.575 -1.3064  2.0964 -0.0463
18289TIP3    H276359   3.242   3.829   8.430 -3.3244  0.5358 -0.8168
18290TIP3   OH276360   0.184   4.084  28.316  0.0148  0.4194 -0.5697
18290TIP3    H176361   0.155   4.007  28.266  0.7300 -2.0440  2.4740
18290TIP3    H276362   0.112   4.101  28.377  0.3734  1.4272 -0.4091
18291TIP3   OH276363   2.006   2.140  28.220 -0.2219  0.8703  0.0265
18291TIP3    H176364   1.994   2.177  28.307 -2.2162 -0.9083  0.5670
18291TIP3    H276365   1.984   2.047  28.230  2.7859 -0.1695 -1.6605
18292TIP3   OH276366   1.523   3.561   2.045  0.8317 -0.1550  0.1955
18292TIP3    H176367   1.585   3.514   2.101 -0.8298 -1.7669  0.8071
18292TIP3    H276368   1.488   3.493   1.986 -1.2700  0.3722  0.7497
18293TIP3   OH276369   0.051   0.630  12.124 -0.2710  0.0481 -0.2473
18293TIP3    H176370   0.053   0.721  12.152 -0.3554  0.6068 -1.9551
18293TIP3    H276371   0.135   0.594  12.152 -0.9057  0.1465  1.9348
18294TIP3   OH276372   3.483   1.179  40.145  0.1240  0.1469 -0.0266
18294TIP3    H176373   3.569   1.196  40.185 -0.0499  1.5968 -0.2050
18294TIP3    H276374   3.491   1.092  40.107  1.0144 -0.3692  1.2659
18295TIP3   OH276375   1.203   4.322  11.868 -0.2018 -0.0982  0.0887
18295TIP3    H176376   1.291   4.285  11.869 -0.3428 -0.4661 -0.5290
18295TIP3    H276377   1.151   4.264  11.923 -0.1909 -0.2226 -0.0326
18296TIP3   OH276378   0.397   4.128  29.998  0.0342 -0.2734  0.4082
18296TIP3    H176379   0.359   4.156  29.915  0.1625  0.8623  0.7177
18296TIP3    H276380   0.492   4.135  29.985  0.1079 -1.4880  0.1871
18297TIP3   OH276381   4.303   2.984  33.511 -0.1180 -0.0410 -0.0752
18297TIP3    H176382   4.324   2.927  33.585  0.0881  1.8528  1.4101
18297TIP3    H276383   4.388   3.015  33.480 -0.2857  1.4977  0.8842
18298TIP3   OH276384   2.929   1.977  40.987 -0.3858  0.2314 -0.6782
18298TIP3    H176385   3.021   2.001  40.976 -0.5590  1.4685  0.4230
18298TIP3    H276386   2.930   1.881  40.990  1.0408  0.2483  0.5803
18299TIP3   OH276387   0.329   3.416  21.507 -0.0134 -0.4659  0.5124
18299TIP3    H176388   0.292   3.354  21.445  1.8903 -1.0821 -0.0766
18299TIP3    H276389   0.323   3.501  21.463  0.7068 -0.7980 -0.2466
18300TIP3   OH276390   1.886   3.583  32.698 -0.4019 -0.3281 -0.1164
18300TIP3    H176391   1.852   3.523  32.764  0.1797  0.0572  0.5519
18300TIP3    H276392   1.859   3.670  32.729  3.4247  0.3368  2.0026
18301TIP3   OH276393   1.038   1.610  28.805  0.2916 -0.4483 -0.3739
18301TIP3    H176394   0.993   1.695  28.807 -0.5525 -0.8882 -0.3334
18301TIP3    H276395   1.010   1.570  28.723 -2.0450 -2.1208  1.1461
18302TIP3   OH276396   2.617   0.830  10.682  0.4747 -0.2950 -0.5243
18302TIP3    H176397   2.712   0.846  10.687  0.4391 -0.3768  1.0371
18302TIP3    H276398   2.599   0.772  10.756 -0.5075 -1.9285 -1.9903
18303TIP3   OH276399   3.232   4.236  32.275  0.6359  0.2348 -0.5745
18303TIP3    H176400   3.138   4.236  32.290  0.3270 -0.6913 -2.2096
18303TIP3    H276401   3.251   4.322  32.236  0.3813  0.2180 -0.7317
18304TIP3   OH276402   0.225   2.491   3.534 -0.0396 -0.2391 -0.8463
18304TIP3    H176403   0.303   2.470   3.585 -0.6807 -1.3667 -0.2815
18304TIP3    H276404   0.222   2.586   3.532  0.3661 -0.1681  0.6613
18305TIP3   OH276405   3.347   4.221   2.264  0.5744  0.0034  0.2749
18305TIP3    H176406   3.252   4.210   2.270  0.4328 -1.7846 -2.8463
18305TIP3    H276407   3.382   4.135   2.288  1.1270 -0.3379 -1.5796
18306TIP3   OH276408   3.547   1.335  33.820 -0.0113 -0.5569  0.0738
18306TIP3    H176409   3.572   1.243  33.821  0.3002 -0.4883 -0.7127
18306TIP3    H276410   3.535   1.358  33.912  1.0866 -1.0564  0.3557
18307TIP3   OH276411   3.995   0.724  23.112  0.2212  0.0561  0.2997
18307TIP3    H176412   3.977   0.694  23.023 -0.0440 -0.7299  0.6120
18307TIP3    H276413   4.059   0.794  23.101  2.1781 -1.7458 -0.3361
18308TIP3   OH276414   3.296   2.927   9.557 -0.1243 -0.4050  0.2212
18308TIP3    H176415   3.203   2.946   9.571 -0.0983 -0.5066  0.5338
18308TIP3    H276416   3.326   2.890   9.640 -0.0451 -1.3487 -0.2158
18309TIP3   OH276417   0.755   3.761  12.903 -0.3077 -0.2530  0.0601
18309TIP3    H176418   0.771   3.688  12.963 -1.3997  0.7372  1.6463
18309TIP3    H276419   0.668   3.744  12.866  0.2995 -0.7822 -1.1735
18310TIP3   OH276420   1.559   3.631  33.001  0.0300 -0.7673 -0.3123
18310TIP3    H176421   1.572   3.683  32.921  1.0696  1.0292  0.9528
18310TIP3    H276422   1.558   3.696  33.071  1.6697 -2.4998  1.4063
18311TIP3   OH276423   1.069   1.734  10.994 -0.0753  0.1187  0.1875
18311TIP3    H176424   1.140   1.674  10.972 -0.7932 -0.6675 -0.0411
18311TIP3    H276425   1.065   1.732  11.090  0.7638  0.8338  0.2438
18312TIP3   OH276426   1.268   3.827  17.388 -0.2763 -0.7492  0.2092
18312TIP3    H176427   1.236   3.884  17.318  2.0923  0.0123 -0.3499
18312TIP3    H276428   1.192   3.775  17.414 -1.4557 -0.4155 -2.2974
18313TIP3   OH276429   3.244   0.303  34.244 -0.7653 -0.5751  0.1193
18313TIP3    H176430   3.258   0.398  34.254 -1.5109 -0.6919  3.2078
18313TIP3    H276431   3.291   0.281  34.163  4.1556  1.5330  1.9658
18314TIP3   OH276432   0.066   3.457  22.462 -0.1262  0.3934  0.4653
18314TIP3    H176433  -0.025   3.460  22.431 -0.3048 -1.6382  0.6822
18314TIP3    H276434   0.107   3.389  22.410  0.8207  0.1118  1.5413
18315TIP3   OH276435   2.263   0.018  10.480  0.0576  0.9968 -0.1136
18315TIP3    H176436   2.236  -0.024  10.562  0.4512  0.7646 -0.0998
18315TIP3    H276437   2.351   0.050  10.497 -0.0072  1.2996 -0.3237
18316TIP3   OH276438   2.409   2.678   2.398 -0.5681  0.0266  0.2027
18316TIP3    H176439   2.318   2.681   2.370 -0.4654 -0.7614 -0.2435
18316TIP3    H276440   2.457   2.727   2.332 -0.5226 -0.5412 -0.1889
18317TIP3   OH276441   1.872   0.940  33.885 -0.1228  0.1424 -0.2657
18317TIP3    H176442   1.827   1.024  33.896 -0.7047 -0.2798  0.6321
18317TIP3    H276443   1.890   0.935  33.791  0.6626  1.6472 -0.2321
18318TIP3   OH276444   0.143   3.990   5.417 -0.0443 -0.3542  0.2565
18318TIP3    H176445   0.234   4.008   5.443 -0.0598 -1.1242  0.8568
18318TIP3    H276446   0.135   3.895   5.421 -0.5813 -0.3650 -0.8273
18319TIP3   OH276447   0.074   1.674  25.011  0.2815  0.1686  0.2201
18319TIP3    H176448   0.051   1.588  24.976 -1.5081  0.1908  1.2015
18319TIP3    H276449   0.112   1.721  24.937  1.4735 -1.5013 -0.2817
18320TIP3   OH276450   4.042   4.322  26.576  0.3721 -0.1421 -0.9282
18320TIP3    H176451   4.047   4.241  26.525  0.8192 -1.3350  0.9170
18320TIP3    H276452   3.997   4.297  26.657  0.6075  1.4410 -0.2717
18321TIP3   OH276453   3.718   1.375   5.828  0.0023  0.0747 -0.2300
18321TIP3    H176454   3.758   1.324   5.758 -0.5850  0.0538 -0.5627
18321TIP3    H276455   3.734   1.466   5.802 -1.5706  0.1039 -1.2421
18322TIP3   OH276456   0.086   1.511   1.021 -0.7425 -0.2787 -0.2319
18322TIP3    H176457   0.038   1.449   0.966 -2.2667 -0.6292  1.3997
18322TIP3    H276458   0.071   1.596   0.980 -0.8277 -0.6791 -1.0428
18323TIP3   OH276459   4.101   1.931  40.680  0.5425  0.2648  0.1492
18323TIP3    H176460   4.032   1.871  40.651  0.8377  0.6842 -1.5289
18323TIP3    H276461   4.055   2.010  40.706  0.3069  0.1579  0.0675
18324TIP3   OH276462   3.858   3.000  35.202  0.4051  0.2031  0.0178
18324TIP3    H176463   3.861   2.949  35.283 -0.6089  0.4900  0.2550
18324TIP3    H276464   3.919   3.072  35.218  0.7264 -0.1164  0.2606
18325TIP3   OH276465   4.205   2.133  38.606 -0.1593  0.2799 -0.7072
18325TIP3    H176466   4.181   2.075  38.533 -2.2719  0.2749 -0.0774
18325TIP3    H276467   4.156   2.098  38.681  0.8026  1.1756  0.3697
18326TIP3   OH276468   3.425   3.498  30.429 -0.5350  0.3955  0.2420
18326TIP3    H176469   3.409   3.542  30.512  1.9347  0.1399  0.9381
18326TIP3    H276470   3.504   3.446  30.444  0.3623  0.8143 -2.4342
18327TIP3   OH276471   1.346   3.683   8.652  0.3646  0.6717 -0.3509
18327TIP3    H176472   1.331   3.588   8.650 -1.5154  0.9260  0.2712
18327TIP3    H276473   1.441   3.691   8.664  0.3998 -1.1669  1.1376
18328TIP3   OH276474   0.248   3.382  38.349  0.5564  0.0768  0.5582
18328TIP3    H176475   0.277   3.461  38.395  1.5735  0.6148 -0.9361
18328TIP3    H276476   0.323   3.322  38.354  0.8916  0.3495 -0.8065
18329TIP3   OH276477   2.825   1.003   9.954 -0.3331  0.1050 -0.6327
18329TIP3    H176478   2.849   1.067  10.021 -0.9260  1.4272 -1.6377
18329TIP3    H276479   2.855   0.919   9.989  0.6915  0.9547  0.6144
18330TIP3   OH276480   0.517   0.237  20.964 -0.3593 -0.2808  0.7543
18330TIP3    H176481   0.563   0.317  20.989  2.5253 -1.7155  0.4505
18330TIP3    H276482   0.491   0.251  20.873 -0.8587  0.6908  1.0371
18331TIP3   OH276483   2.341   0.759  41.502 -0.5686  0.0351  0.3197
18331TIP3    H176484   2.296   0.738  41.584 -0.5040  1.7537  0.8429
18331TIP3    H276485   2.388   0.840  41.521 -0.8849  0.7037 -1.5475
18332TIP3   OH276486   0.031   0.715  22.574  0.5280  0.1637 -1.1546
18332TIP3    H176487   0.102   0.678  22.521 -0.4172 -2.1359 -0.9453
18332TIP3    H276488   0.048   0.684  22.663 -1.3805 -1.5856 -1.3265
18333TIP3   OH276489   0.433   1.184  29.297 -0.0717  0.1348  0.0912
18333TIP3    H176490   0.432   1.096  29.259  2.4826  0.6516 -1.4414
18333TIP3    H276491   0.475   1.238  29.230 -1.1851  2.4679  1.1582
18334TIP3   OH276492   1.062   2.634   8.376  0.3861  0.0114  0.2695
18334TIP3    H176493   1.081   2.674   8.461 -1.1859  0.1871  0.5784
18334TIP3    H276494   1.145   2.595   8.348  0.5530 -1.5938  2.6972
18335TIP3   OH276495   2.133   0.451   4.126 -0.1158 -0.0011  0.4905
18335TIP3    H176496   2.084   0.465   4.207 -0.0841  1.0091  0.3446
18335TIP3    H276497   2.225   0.456   4.153 -0.1008  1.0601  0.2924
18336TIP3   OH276498   0.782   1.831  14.480  0.0598  0.5164 -0.1649
18336TIP3    H176499   0.831   1.768  14.533  0.6783  0.0241 -1.2858
18336TIP3    H276500   0.718   1.777  14.433  0.4088  0.7637 -0.9274
18337TIP3   OH276501   0.955   4.031  31.962  0.8288  0.0309 -0.2533
18337TIP3    H176502   0.861   4.014  31.974  0.4526  0.5783 -2.1692
18337TIP3    H276503   0.966   4.123  31.983  0.8462  0.0879 -0.5111
18338TIP3   OH276504   0.338   2.819  26.554  0.0530  0.2271 -0.3050
18338TIP3    H176505   0.340   2.725  26.540  1.6961  0.4424 -1.7066
18338TIP3    H276506   0.289   2.854  26.480  0.8231  0.6009 -0.6475
18339TIP3   OH276507   2.998   2.798  36.396 -0.4022 -1.2673  0.5910
18339TIP3    H176508   2.955   2.757  36.471 -1.7951  0.7751  0.9913
18339TIP3    H276509   2.945   2.772  36.321 -0.4648 -1.3105  0.6495
18340TIP3   OH276510   0.611   2.921  30.893 -0.0759  0.6114  0.2995
18340TIP3    H176511   0.663   2.963  30.962  0.8838  0.6875 -0.4475
18340TIP3    H276512   0.599   2.990  30.827  1.1210 -0.1311 -0.7302
18341TIP3   OH276513   3.551   1.244  12.620  0.1814  0.1215 -0.1803
18341TIP3    H176514   3.621   1.242  12.685 -0.4309 -0.4663  0.4756
18341TIP3    H276515   3.498   1.167  12.640 -1.5511  1.3929  0.3301
18342TIP3   OH276516   2.640   1.269  27.719  0.4801  0.3096  0.0464
18342TIP3    H176517   2.602   1.240  27.803  0.4572  1.2127  0.3588
18342TIP3    H276518   2.721   1.313  27.744  0.4616  0.6008 -0.4022
18343TIP3   OH276519   3.630   3.146   2.572  0.4445 -0.2863 -0.0052
18343TIP3    H176520   3.634   3.085   2.646  0.5955 -0.8952 -0.5010
18343TIP3    H276521   3.536   3.164   2.562  0.5713  2.9452  2.7921
18344TIP3   OH276522   0.105   1.668   6.611 -0.0176 -0.0145  1.0411
18344TIP3    H176523   0.194   1.634   6.623  0.2407  0.1294 -0.3395
18344TIP3    H276524   0.111   1.724   6.534 -1.2113  0.3912  1.2250
18345TIP3   OH276525   0.322   3.523   7.125  0.4465  0.1554  0.0834
18345TIP3    H176526   0.318   3.435   7.161 -0.7292 -0.7152 -2.0291
18345TIP3    H276527   0.266   3.575   7.182 -2.6431 -1.5190 -1.1857
18346TIP3   OH276528   0.165   0.485  39.986 -0.0013  0.4998  0.3576
18346TIP3    H176529   0.117   0.493  39.904 -0.5548 -0.2643  0.5935
18346TIP3    H276530   0.120   0.544  40.047  0.5212  1.2023  0.0629
18347TIP3   OH276531   2.134   0.115  11.233 -0.5352 -0.1882  0.4078
18347TIP3    H176532   2.062   0.178  11.236  0.5599  1.1044  0.4156
18347TIP3    H276533   2.210   0.166  11.208  1.1970 -0.7145  3.9782
18348TIP3   OH276534   3.329   0.250  34.790 -0.1404 -0.3441 -0.1353
18348TIP3    H176535   3.250   0.273  34.840  0.7321  1.7838  0.3648
18348TIP3    H276536   3.346   0.327  34.735  2.2365 -0.2467  0.6368
18349TIP3   OH276537   2.649   3.632   3.970 -0.0054 -0.3142  0.4577
18349TIP3    H176538   2.576   3.578   4.000 -0.3979  0.0040  0.0802
18349TIP3    H276539   2.645   3.627   3.874 -0.4902  0.9599  0.3935
18350TIP3   OH276540   1.318   2.092   7.784  0.3653 -0.3619 -0.1136
18350TIP3    H176541   1.253   2.041   7.832  0.0795  0.2112  0.1221
18350TIP3    H276542   1.340   2.039   7.707 -2.3577  0.5689 -1.6522
18351TIP3   OH276543   1.629   0.705  12.777 -0.5501  0.2389  0.0296
18351TIP3    H176544   1.670   0.622  12.753  0.0309  0.8546 -1.1429
18351TIP3    H276545   1.628   0.757  12.697  1.7094  2.4912  1.3142
18352TIP3   OH276546   1.283   2.450   4.211  0.2593  0.5347  0.2683
18352TIP3    H176547   1.332   2.400   4.147 -0.1668 -0.9297  1.0392
18352TIP3    H276548   1.191   2.432   4.190  0.1195 -0.3389  1.5522
18353TIP3   OH276549   0.139   2.481   6.665  0.3051  0.5207 -0.0105
18353TIP3    H176550   0.130   2.551   6.730  0.0420 -0.6062  1.2012
18353TIP3    H276551   0.211   2.427   6.697  1.3075  0.8583 -1.5624
18354TIP3   OH276552   0.027   1.501  27.212 -0.5020  0.0693  0.0067
18354TIP3    H176553  -0.039   1.447  27.255 -0.1646  0.5412  1.1436
18354TIP3    H276554   0.063   1.444  27.143 -0.1025 -1.2069  1.2256
18355TIP3   OH276555   1.823   2.754   1.778 -0.0334  0.3399  0.2594
18355TIP3    H176556   1.754   2.779   1.839 -0.0543  0.2882  0.2562
18355TIP3    H276557   1.858   2.672   1.813  0.0554  0.3884  0.2859
18356TIP3   OH276558   0.310   1.053   5.253  0.0676  0.1746 -0.0708
18356TIP3    H176559   0.286   1.076   5.343  1.0253 -0.5072  0.3858
18356TIP3    H276560   0.405   1.066   5.250 -0.2713  3.0362 -1.8691
18357TIP3   OH276561   0.598   1.867  37.114 -0.0715  0.5785 -0.1668
18357TIP3    H176562   0.623   1.826  37.197 -0.6910  0.2143 -0.1449
18357TIP3    H276563   0.617   1.960  37.126  1.1201  0.3411 -0.1191
18358TIP3   OH276564   2.890   0.698  11.864  0.6519  0.3225 -0.2653
18358TIP3    H176565   2.871   0.790  11.882  0.2032  0.0491  0.7167
18358TIP3    H276566   2.805   0.654  11.872  0.9723 -0.2718 -0.0563
18359TIP3   OH276567   0.675   1.597  14.349  0.4894  0.2898 -1.0005
18359TIP3    H176568   0.751   1.634  14.304 -0.1233  1.1282 -1.3709
18359TIP3    H276569   0.712   1.535  14.412  1.5562  1.7056 -0.1870
18360TIP3   OH276570   2.911   4.273   7.564 -0.3417 -0.2289  0.3121
18360TIP3    H176571   2.951   4.202   7.513 -0.0274  1.0362 -1.2912
18360TIP3    H276572   2.980   4.339   7.571 -0.3609 -0.3749  2.4892
18361TIP3   OH276573   1.331   1.562  29.427 -0.0880  0.4455 -0.0588
18361TIP3    H176574   1.367   1.651  29.423  0.5759  0.1330 -2.1295
18361TIP3    H276575   1.380   1.520  29.498 -0.5941  1.7827  1.1273
18362TIP3   OH276576   3.004   3.955   3.871  0.3643  0.3087  0.4413
18362TIP3    H176577   3.066   3.932   3.801 -0.8165 -1.2582 -0.1604
18362TIP3    H276578   3.046   3.925   3.951  1.5105  1.6501  0.3783
18363TIP3   OH276579   2.195   4.210   6.487 -0.2859 -0.3631  0.6293
18363TIP3    H176580   2.183   4.128   6.534 -1.4991  0.0198  1.0208
18363TIP3    H276581   2.122   4.215   6.426  1.4028 -0.9758 -1.5643
18364TIP3   OH276582   0.568   1.083  35.406 -0.0366 -0.5768 -0.5978
18364TIP3    H176583   0.485   1.104  35.448 -0.4339 -2.4587 -0.3623
18364TIP3    H276584   0.635   1.110  35.469 -0.5529 -1.0092  0.1512
18365TIP3   OH276585   1.319   4.361  36.012  0.0635  0.2424  0.9565
18365TIP3    H176586   1.225   4.366  36.034 -0.7802 -1.3466 -1.8155
18365TIP3    H276587   1.345   4.452  36.001 -1.0824  0.7355  1.9765
18366TIP3   OH276588   3.599   0.614   8.675  0.1262  0.7854  0.2617
18366TIP3    H176589   3.589   0.589   8.583 -0.8380  2.0826 -0.0153
18366TIP3    H276590   3.694   0.627   8.685  0.0791  2.9626 -1.2548
18367TIP3   OH276591   2.029   0.710   7.280 -0.0247  0.4633  0.6283
18367TIP3    H176592   2.007   0.627   7.236  1.7177  0.7530 -0.8889
18367TIP3    H276593   2.085   0.684   7.353  1.1333  0.3325 -0.2870
18368TIP3   OH276594   0.923   3.669  30.875  0.8600  0.5548 -0.2389
18368TIP3    H176595   0.896   3.592  30.826 -0.8575  0.5088  0.7213
18368TIP3    H276596   0.918   3.643  30.967  0.8740  1.6125  0.0840
18369TIP3   OH276597   0.633   1.990  32.050  0.1940  0.3436  0.5304
18369TIP3    H176598   0.545   1.963  32.025  0.3075 -0.1910  0.6982
18369TIP3    H276599   0.645   1.957  32.139  2.4398 -4.4340 -1.1666
18370TIP3   OH276600   1.922   3.403  10.486 -0.3096 -0.0633 -0.9641
18370TIP3    H176601   1.874   3.344  10.544  0.5754  0.0636 -0.0636
18370TIP3    H276602   1.857   3.434  10.424 -1.2701 -0.3264 -0.1212
18371TIP3   OH276603   1.083   0.263   1.936 -0.4097 -0.1871 -0.2207
18371TIP3    H176604   1.140   0.221   1.871  1.6895 -0.4029  1.6261
18371TIP3    H276605   1.132   0.257   2.018 -1.9505  2.0152  0.9750
18372TIP3   OH276606   2.928   4.164  28.632  0.3038 -0.4264  0.7218
18372TIP3    H176607   3.002   4.130  28.583  0.4665  0.3679  0.4158
18372TIP3    H276608   2.878   4.086  28.657  0.8858 -0.9146  0.3671
18373TIP3   OH276609   0.719   4.309  39.525  0.2257  0.3063  0.2092
18373TIP3    H176610   0.651   4.252  39.489  0.1321 -0.4924  1.5814
18373TIP3    H276611   0.789   4.249  39.552  1.1785  1.0551 -0.5082
18374TIP3   OH276612   1.590   0.823   0.980 -0.0225  0.0809 -0.4285
18374TIP3    H176613   1.678   0.800   1.012 -0.3532 -0.0058  0.4510
18374TIP3    H276614   1.597   0.916   0.957 -0.0229  0.4318  0.8783
18375TIP3   OH276615   2.496   1.428  36.771  0.1827 -0.5059  0.1255
18375TIP3    H176616   2.518   1.391  36.857 -2.0469  0.1058  1.0499
18375TIP3    H276617   2.495   1.523  36.786 -0.1384 -0.3952 -0.5957
18376TIP3   OH276618   0.648   4.166  33.557  0.7540  0.1149 -0.2593
18376TIP3    H176619   0.702   4.217  33.496  0.3083 -0.2118 -0.9398
18376TIP3    H276620   0.563   4.161  33.515  1.0877 -2.1759 -0.7770
18377TIP3   OH276621   1.868   2.784   4.307  0.5273 -0.1619 -0.5311
18377TIP3    H176622   1.946   2.822   4.347 -1.0702  0.6557  2.0262
18377TIP3    H276623   1.819   2.859   4.274 -0.2869 -0.4422  0.0272
18378TIP3   OH276624   4.203   1.775   1.194  0.0702  0.2444 -0.2018
18378TIP3    H176625   4.293   1.807   1.196 -0.1451  0.8005  0.8543
18378TIP3    H276626   4.211   1.687   1.158  1.1549 -0.0650  0.7169
18379TIP3   OH276627   0.050   4.197  40.876  0.4752  0.0990  0.3283
18379TIP3    H176628   0.061   4.198  40.781  1.7251  0.1499  0.4572
18379TIP3    H276629   0.113   4.262  40.908  1.8417 -1.6455  1.3485
18380TIP3   OH276630   2.664   2.449   1.002 -0.2214 -0.2053 -0.2014
18380TIP3    H176631   2.649   2.357   1.023  1.5940 -0.6626 -0.6567
18380TIP3    H276632   2.680   2.491   1.087 -2.0471 -0.0741  0.1014
18381TIP3   OH276633   2.689   0.855   6.869  0.4264  0.0881  0.1002
18381TIP3    H176634   2.778   0.819   6.868 -0.4320 -2.4068 -2.8781
18381TIP3    H276635   2.641   0.797   6.927  0.9566  2.5820  3.3091
18382TIP3   OH276636   1.022   1.376  34.074 -0.2701  0.1842 -0.1217
18382TIP3    H176637   1.011   1.457  34.024 -1.9427 -1.2247 -2.2169
18382TIP3    H276638   1.108   1.343  34.047 -0.6320  0.0678 -1.2155
18383TIP3   OH276639   1.597   2.685   6.581  0.3821 -0.2935  0.1651
18383TIP3    H176640   1.604   2.591   6.563  2.6451 -0.0998 -0.1980
18383TIP3    H276641   1.544   2.690   6.661  1.1520 -1.9562  0.8244
18384TIP3   OH276642   2.377   4.386  38.964 -0.3804 -0.5750  0.9160
18384TIP3    H176643   2.320   4.348  39.031  0.9971 -0.6877  2.0406
18384TIP3    H276644   2.458   4.337  38.970  0.4396  0.6727  0.4502
18385TIP3   OH276645   0.999   4.173   2.195 -0.1719  0.2255 -0.2366
18385TIP3    H176646   1.032   4.192   2.282 -0.9380 -0.4642  0.2209
18385TIP3    H276647   0.905   4.188   2.201 -0.1056  1.1929 -1.2414
18386TIP3   OH276648   0.517   1.141   8.327  0.4902  0.0780  0.3347
18386TIP3    H176649   0.475   1.069   8.280  0.5758  0.4560 -0.3335
18386TIP3    H276650   0.607   1.111   8.340  0.8547  0.5154 -0.9734
18387TIP3   OH276651   1.840   4.289  32.393  0.2773 -0.0043 -0.3137
18387TIP3    H176652   1.839   4.344  32.471 -0.1643 -0.3107 -0.0951
18387TIP3    H276653   1.927   4.251  32.392 -0.1327 -1.0620  0.8106
18388TIP3   OH276654   2.417   3.777   9.780 -1.0808  0.2604  0.2654
18388TIP3    H176655   2.433   3.713   9.848  1.3633  0.4021 -0.1110
18388TIP3    H276656   2.394   3.857   9.828 -1.3279 -0.1342  0.8227
18389TIP3   OH276657   1.233   2.474  13.789  0.0929  0.0383 -0.2544
18389TIP3    H176658   1.225   2.379  13.804 -0.6042  0.3855  1.8141
18389TIP3    H276659   1.274   2.480  13.703 -0.2630 -2.1396 -0.6501
18390TIP3   OH276660   2.141   0.475  35.733  0.7544 -0.0487 -0.7423
18390TIP3    H176661   2.202   0.547  35.751  1.0792 -0.4789 -0.0619
18390TIP3    H276662   2.194   0.410  35.685  0.4185  0.2291 -1.5064
18391TIP3   OH276663   2.215   0.428   3.445 -0.0573  0.4615 -0.4099
18391TIP3    H176664   2.265   0.413   3.525 -0.4156 -0.9904 -0.4425
18391TIP3    H276665   2.141   0.368   3.451 -0.4796  0.8491 -1.5086
18392TIP3   OH276666   1.008   3.475   2.885  0.1088 -0.1666 -0.8138
18392TIP3    H176667   1.081   3.482   2.946  1.0347 -0.1911 -1.8810
18392TIP3    H276668   0.958   3.400   2.916  1.5299 -1.2504 -1.0481
18393TIP3   OH276669   4.044   3.824  41.037 -0.7348  0.0400 -0.0936
18393TIP3    H176670   4.092   3.823  41.120 -1.6147 -1.4584  0.4387
18393TIP3    H276671   4.083   3.896  40.988  1.4142 -0.5168  0.6645
18394TIP3   OH276672   4.401   3.869  34.165 -1.0278 -0.2080  0.5278
18394TIP3    H176673   4.376   3.806  34.097 -0.9424  0.3374 -0.0177
18394TIP3    H276674   4.391   3.954  34.123  3.1469  0.0724 -0.2462
18395TIP3   OH276675   1.954   3.535   0.911 -0.0983 -0.1063  0.0944
18395TIP3    H176676   1.909   3.572   0.834 -0.6909  1.0728  0.9642
18395TIP3    H276677   1.884   3.494   0.961  0.1948 -0.3732  0.2832
18396TIP3   OH276678   0.296   0.228   2.040  0.1598 -0.0960  0.1477
18396TIP3    H176679   0.222   0.189   2.087  1.1461 -0.6021  1.3245
18396TIP3    H276680   0.284   0.322   2.052  0.3842 -0.2085  1.4533
18397TIP3   OH276681   1.614   3.501  36.770  0.5711 -0.0581 -0.4702
18397TIP3    H176682   1.654   3.557  36.836 -1.7678  0.9889  0.1657
18397TIP3    H276683   1.619   3.413  36.806  0.7332  0.2872  0.3650
18398TIP3   OH276684   0.802   2.185  21.987  0.5537  0.0343 -0.6100
18398TIP3    H176685   0.732   2.156  22.046 -0.2364 -0.3404 -1.6919
18398TIP3    H276686   0.758   2.242  21.924  1.3355  0.2615 -0.9664
18399TIP3   OH276687   1.522   3.924  40.236  0.2888 -0.7471  0.2168
18399TIP3    H176688   1.597   3.972  40.271 -0.1808  0.0336  0.1783
18399TIP3    H276689   1.448   3.982  40.251  0.0799 -0.2608 -2.2837
18400TIP3   OH276690   0.617   2.273  10.198  0.1296 -0.1882 -0.1103
18400TIP3    H176691   0.602   2.360  10.233 -0.2441 -0.5971  0.7632
18400TIP3    H276692   0.567   2.271  10.116  0.2928  0.4654 -0.2347
18401TIP3   OH276693   3.024   0.803   2.768  0.5245  0.1305  0.1430
18401TIP3    H176694   2.969   0.850   2.705  2.7001  0.7047 -1.4382
18401TIP3    H276695   2.996   0.836   2.853 -1.1989  0.7648 -0.6273
18402TIP3   OH276696   0.825   3.233  32.682 -0.2585 -0.6489 -0.3657
18402TIP3    H176697   0.810   3.250  32.775  2.1399  0.3844 -0.0845
18402TIP3    H276698   0.869   3.149  32.680 -0.6414 -0.8444 -0.6050
18403TIP3   OH276699   3.964   1.765  38.733 -0.2651 -0.2290  0.0364
18403TIP3    H176700   3.990   1.700  38.668 -0.6272 -0.7259  0.3840
18403TIP3    H276701   3.947   1.715  38.812 -1.2877  0.1880  0.1004
18404TIP3   OH276702   0.998   4.149   1.315 -0.0398  0.1376 -0.6464
18404TIP3    H176703   0.929   4.188   1.261  0.5168  4.0820  1.0872
18404TIP3    H276704   0.964   4.155   1.405  1.8620  0.7458  0.0837
18405TIP3   OH276705   2.296   2.002  38.688  0.3412  0.3678 -0.3815
18405TIP3    H176706   2.304   1.944  38.612  0.1899 -1.7170  1.1277
18405TIP3    H276707   2.202   2.014  38.700  0.1805 -1.9365  1.2940
18406TIP3   OH276708   0.101   1.507  38.522 -0.0661  0.0980 -0.4660
18406TIP3    H176709   0.153   1.477  38.448  0.0994  1.3273 -0.8818
18406TIP3    H276710   0.073   1.595  38.497  0.9176  1.0031  1.3743
18407TIP3   OH276711   0.519   4.084  22.622  0.3988  0.4054  0.2037
18407TIP3    H176712   0.574   4.089  22.544 -0.9443 -0.7864 -0.8626
18407TIP3    H276713   0.545   4.002  22.664  0.0769  0.2948  0.1887
18408TIP3   OH276714   3.541   1.995   0.636  0.4095 -0.1093  0.0539
18408TIP3    H176715   3.473   2.029   0.695  1.4211  1.5833  0.3088
18408TIP3    H276716   3.622   2.005   0.685  0.9994 -1.0598 -0.6817
18409TIP3   OH276717   3.817   3.731   4.259  0.7149 -0.8934 -0.5746
18409TIP3    H176718   3.844   3.668   4.193 -0.8551 -1.5423 -0.6488
18409TIP3    H276719   3.750   3.685   4.310 -1.1366  0.9242 -1.1785
18410TIP3   OH276720   1.917   2.055   6.153 -0.1617 -0.0430 -0.0753
18410TIP3    H176721   1.901   1.961   6.166 -2.9035 -0.0437 -2.4260
18410TIP3    H276722   1.898   2.070   6.061  1.2887  2.7037 -0.0407
18411TIP3   OH276723   3.956   1.574  23.206 -0.0219 -0.2464 -0.3667
18411TIP3    H176724   4.003   1.646  23.247 -1.6721  1.3193 -1.0919
18411TIP3    H276725   3.959   1.503  23.270 -0.4669  1.3004  1.4551
18412TIP3   OH276726   1.968   2.882   4.937 -0.3985 -0.5448 -0.3780
18412TIP3    H176727   1.882   2.857   4.971 -0.6618  2.4435  1.5524
18412TIP3    H276728   1.949   2.943   4.865  0.0332  0.7022  0.5291
18413TIP3   OH276729   4.241   2.507  28.424  0.5204 -0.3237 -0.5440
18413TIP3    H176730   4.269   2.597  28.408 -1.2840  0.7507  1.7905
18413TIP3    H276731   4.166   2.496  28.364 -0.7861  0.6574  0.8204
18414TIP3   OH276732   1.497   2.082   8.946 -0.2847  0.2110 -0.4543
18414TIP3    H176733   1.588   2.067   8.973 -0.2881  0.5886 -0.2079
18414TIP3    H276734   1.504   2.139   8.869 -0.1781 -2.8655 -2.8941
18415TIP3   OH276735   0.896   1.854   1.992 -0.0551 -0.2692 -0.1711
18415TIP3    H176736   0.865   1.941   2.016 -0.0512  0.2796 -2.0216
18415TIP3    H276737   0.977   1.843   2.042  0.4170  1.1577 -0.5842
18416TIP3   OH276738   1.874   0.193   3.101 -0.1488  0.3095  0.0579
18416TIP3    H176739   1.965   0.176   3.079 -0.0583  0.5096  0.2722
18416TIP3    H276740   1.834   0.106   3.110 -0.6453  0.1657 -2.6709
18417TIP3   OH276741   3.981   2.019  30.129 -0.6822 -0.3432 -0.3791
18417TIP3    H176742   4.074   2.016  30.152 -1.0468  0.0924  1.3323
18417TIP3    H276743   3.956   1.928  30.117 -0.4284 -0.6211  1.0150
18418TIP3   OH276744   0.486   3.575   8.733  0.4506  0.0945  0.2815
18418TIP3    H176745   0.444   3.525   8.664 -0.0155  0.2453  0.4532
18418TIP3    H276746   0.530   3.647   8.687 -1.3677  1.2568  0.2665
18419TIP3   OH276747   0.241   3.789  12.671  0.4220 -0.2140 -0.2236
18419TIP3    H176748   0.277   3.757  12.753  1.4413  0.6484 -0.3179
18419TIP3    H276749   0.314   3.784  12.608 -0.4153 -1.1379 -1.1641
18420TIP3   OH276750   0.860   0.439   0.128 -0.2933 -0.7968  0.3335
18420TIP3    H176751   0.904   0.377   0.069 -1.5370 -1.8718  0.4863
18420TIP3    H276752   0.823   0.506   0.071 -2.0064 -2.1486 -0.2269
18421TIP3   OH276753   3.423   2.449  26.592 -0.2037 -0.9732 -0.3451
18421TIP3    H176754   3.479   2.385  26.550 -0.0190 -0.7069 -0.5099
18421TIP3    H276755   3.376   2.491  26.520 -0.0073 -0.6307 -0.2773
18422TIP3   OH276756   2.562   2.241   2.810 -0.2715 -0.5694 -0.0902
18422TIP3    H176757   2.475   2.277   2.826  0.4373  1.2129 -0.0128
18422TIP3    H276758   2.592   2.286   2.731  1.0809 -0.1943  0.6147
18423TIP3   OH276759   1.738   0.917  39.141 -0.3478 -0.8661  0.2836
18423TIP3    H176760   1.813   0.901  39.083  1.0492  1.4317  1.3582
18423TIP3    H276761   1.758   0.999  39.186 -4.4149  0.9740 -0.7961
18424TIP3   OH276762   0.264   2.726  37.104 -0.0511 -0.1728 -0.2154
18424TIP3    H176763   0.342   2.671  37.118 -0.6695 -1.0481 -0.1574
18424TIP3    H276764   0.200   2.668  37.065 -0.7119  0.5298 -0.1991
18425TIP3   OH276765   3.263   1.764   2.190 -0.0477 -0.5988  0.0349
18425TIP3    H176766   3.272   1.681   2.238  2.8738  0.7382  2.0538
18425TIP3    H276767   3.299   1.745   2.103  0.1348 -1.5710  0.3084
18426TIP3   OH276768   4.208   1.067  39.276  0.4530  0.2692  0.7802
18426TIP3    H176769   4.263   1.104  39.344 -0.3213 -1.4360  2.4200
18426TIP3    H276770   4.264   1.003  39.232  0.1198 -0.7741  1.8194
18427TIP3   OH276771   4.323   1.747  22.510 -0.4537 -0.0700  0.1672
18427TIP3    H176772   4.382   1.762  22.583 -0.2903 -0.0143  0.0240
18427TIP3    H276773   4.345   1.815  22.447  0.1228 -0.7504 -0.3813
18428TIP3   OH276774   2.764   4.390  26.976  0.3512 -0.3369  0.5895
18428TIP3    H176775   2.826   4.442  27.026 -0.7005  1.4339  0.1200
18428TIP3    H276776   2.681   4.400  27.022  0.0922 -1.5439  0.4268
18429TIP3   OH276777   2.127   1.390  41.448  0.1824 -0.2363 -0.0403
18429TIP3    H176778   2.221   1.376  41.459  0.1073  0.1420  1.3077
18429TIP3    H276779   2.119   1.442  41.368  1.0961 -0.4607 -0.2848
18430TIP3   OH276780   1.157   3.578  26.595  0.2755  0.2178  0.0170
18430TIP3    H176781   1.101   3.516  26.548 -1.5326  0.7926  1.3133
18430TIP3    H276782   1.232   3.525  26.624 -0.8326 -1.1753  0.4112
18431TIP3   OH276783   0.451   1.459  32.721  0.9183  0.4050  0.2444
18431TIP3    H176784   0.540   1.426  32.712  0.4343 -0.5805 -1.2763
18431TIP3    H276785   0.423   1.428  32.807  1.1781 -1.5153 -0.3121
18432TIP3   OH276786   2.009   2.899  10.912  0.2082  0.3471 -0.4793
18432TIP3    H176787   2.071   2.968  10.937  0.3048 -0.7475  2.7930
18432TIP3    H276788   2.065   2.824  10.891  0.0903 -0.0720  0.6127
18433TIP3   OH276789   1.978   1.443  30.750  0.4743 -0.1637  0.0485
18433TIP3    H176790   2.064   1.473  30.778  1.0506 -0.0858 -1.6808
18433TIP3    H276791   1.995   1.375  30.685 -0.7660 -0.3309 -0.1393
18434TIP3   OH276792   0.978   3.460   8.211  0.1930 -0.3346 -0.1194
18434TIP3    H176793   1.052   3.501   8.255  0.6127 -2.4380  1.2554
18434TIP3    H276794   0.907   3.462   8.276  0.0687 -1.2841 -0.2161
18435TIP3   OH276795   1.099   2.468  33.998  0.0510 -0.2830  0.0598
18435TIP3    H176796   1.097   2.556  33.959 -0.9497 -0.5339 -0.4881
18435TIP3    H276797   1.154   2.417  33.939  0.8932  0.0415  0.5520
18436TIP3   OH276798   1.210   3.626   6.223  0.1464  0.3284 -0.0701
18436TIP3    H176799   1.163   3.588   6.148  0.4894  1.0796 -0.6818
18436TIP3    H276800   1.152   3.696   6.255  0.0011  0.0109  0.3715
18437TIP3   OH276801   1.379   0.736  26.668 -0.1427  0.3825  0.5277
18437TIP3    H176802   1.309   0.675  26.643  0.2372 -1.0037  2.5342
18437TIP3    H276803   1.460   0.685  26.657  0.6157  1.9385 -1.6899
18438TIP3   OH276804   4.049   1.658  11.196 -0.4774  0.2460  0.2726
18438TIP3    H176805   4.127   1.606  11.217 -0.1566  0.2279 -0.8897
18438TIP3    H276806   3.981   1.623  11.254  0.4870  0.6180  1.6944
18439TIP3   OH276807   0.396   2.045   6.668  0.3364 -0.2148  0.1751
18439TIP3    H176808   0.348   2.065   6.588  2.5216 -0.7033 -1.3670
18439TIP3    H276809   0.333   2.057   6.739 -1.1312  2.3165 -1.4241
18440TIP3   OH276810   1.433   3.753   9.798 -0.0914  0.5818  0.2239
18440TIP3    H176811   1.404   3.813   9.868 -1.1172  0.1062  0.2368
18440TIP3    H276812   1.523   3.732   9.820 -0.6060 -0.1224  1.8534
18441TIP3   OH276813   1.589   4.251  29.946  0.3492  0.5212  0.1754
18441TIP3    H176814   1.671   4.289  29.915 -0.5503  3.0886  0.7106
18441TIP3    H276815   1.526   4.269  29.876 -0.0845 -0.0961  0.3977
18442TIP3   OH276816   4.076   0.891   1.579 -0.3012  0.4696 -0.0493
18442TIP3    H176817   4.138   0.890   1.652  0.5437  1.5074 -0.7317
18442TIP3    H276818   4.102   0.816   1.525  0.0487  0.6181 -0.0866
18443TIP3   OH276819   1.267   2.354  28.602 -1.2299  0.1759  0.6200
18443TIP3    H176820   1.252   2.287  28.669  1.7399  1.0423  2.3283
18443TIP3    H276821   1.305   2.307  28.529 -0.8509 -0.2534  1.0903
18444TIP3   OH276822   0.350   3.175  28.568 -0.1820  0.1700 -0.4852
18444TIP3    H176823   0.267   3.166  28.615 -0.2703 -1.5767 -0.8907
18444TIP3    H276824   0.406   3.107  28.606  0.0437 -0.6783 -2.2188
18445TIP3   OH276825   1.886   0.917  15.804 -0.6681 -0.1760 -0.3282
18445TIP3    H176826   1.903   0.841  15.859  0.1477 -0.1493 -0.5309
18445TIP3    H276827   1.885   0.992  15.864  0.3228 -0.1331 -0.3527
18446TIP3   OH276828   0.167   1.526   1.908 -0.0519  0.0885  0.3553
18446TIP3    H176829   0.240   1.469   1.887 -0.2470  0.0569 -0.2518
18446TIP3    H276830   0.206   1.613   1.919 -0.1702  0.5444 -2.2295
18447TIP3   OH276831   1.532   2.918  28.046 -0.0680 -0.2818 -0.4051
18447TIP3    H176832   1.514   2.972  28.123 -3.1092 -0.5509 -0.7970
18447TIP3    H276833   1.623   2.936  28.025  0.0256  2.0259  1.5188
18448TIP3   OH276834   0.201   0.696  33.636  0.1390  0.0971  0.5074
18448TIP3    H176835   0.150   0.615  33.637 -2.0463  1.3415 -0.7826
18448TIP3    H276836   0.163   0.749  33.706  0.4619  0.6162  0.2928
18449TIP3   OH276837   0.001   2.975  12.501 -0.5026  0.5164  0.6042
18449TIP3    H176838   0.033   2.890  12.530 -1.3066  0.4423  1.3125
18449TIP3    H276839  -0.018   2.964  12.408 -1.8181 -0.4625  0.9643
18450TIP3   OH276840   0.419   1.303  12.267  0.1725 -0.0831 -0.0844
18450TIP3    H176841   0.388   1.393  12.273  0.7692  0.1259 -0.0083
18450TIP3    H276842   0.435   1.278  12.358 -2.9055 -1.3495  0.2229
18451TIP3   OH276843   0.397   3.223  29.187  0.7604  0.0272 -0.1915
18451TIP3    H176844   0.486   3.191  29.206  0.7085 -0.0539 -0.0876
18451TIP3    H276845   0.364   3.253  29.271 -1.1315 -4.3384  0.9220
18452TIP3   OH276846   1.876   3.647   4.999  0.0671  0.6831  0.4760
18452TIP3    H176847   1.811   3.616   4.936  0.6386  0.6043 -0.0765
18452TIP3    H276848   1.951   3.673   4.946  0.5963  0.5187  1.1309
18453TIP3   OH276849   3.747   2.096  34.611  0.0064  0.2338 -0.4590
18453TIP3    H176850   3.814   2.162  34.594  0.8030 -0.6060 -0.6753
18453TIP3    H276851   3.738   2.094  34.706  0.1249  0.5079 -0.4415
18454TIP3   OH276852   0.191   1.325  27.031 -0.4754 -0.8314 -0.2342
18454TIP3    H176853   0.159   1.246  26.988  0.8598 -0.7402 -1.4596
18454TIP3    H276854   0.262   1.294  27.087 -1.3893 -0.7758  0.9925
18455TIP3   OH276855   3.375   3.096   2.801  0.4004 -0.2274  0.4179
18455TIP3    H176856   3.381   3.097   2.705  0.4300  2.6368  0.3417
18455TIP3    H276857   3.459   3.061   2.830 -0.6402 -3.8947 -0.4899
18456TIP3   OH276858   1.861   3.241  41.093  0.7050 -0.5188 -0.0551
18456TIP3    H176859   1.890   3.253  41.003 -0.9031 -0.6185 -0.6265
18456TIP3    H276860   1.768   3.266  41.091  0.6881 -0.3600  1.6112
18457TIP3   OH276861   2.505   2.966  41.153 -0.2206  0.2294 -0.6951
18457TIP3    H176862   2.581   2.909  41.140 -0.8862 -0.9034  0.2384
18457TIP3    H276863   2.447   2.944  41.080 -0.4989 -0.3418 -0.3096
18458TIP3   OH276864   3.489   0.978   4.575 -0.4572  0.3569 -0.8111
18458TIP3    H176865   3.579   0.989   4.545  0.2812  0.9072  1.3566
18458TIP3    H276866   3.491   0.899   4.629 -1.1358  0.6394 -0.3448
18459TIP3   OH276867   2.374   3.570  39.522  0.2035  0.0406  0.4065
18459TIP3    H176868   2.281   3.587  39.515 -0.1928 -1.6639  0.9729
18459TIP3    H276869   2.416   3.645  39.480 -1.4343  0.2218 -1.0019
18460TIP3   OH276870   0.073   1.363  10.993 -0.6735  0.0233 -0.0034
18460TIP3    H176871  -0.019   1.336  10.991 -0.1472 -1.9474 -2.2313
18460TIP3    H276872   0.111   1.313  11.065 -0.7599 -1.5120 -0.9889
18461TIP3   OH276873   1.216   4.046  16.907 -0.2481  0.3719 -0.3535
18461TIP3    H176874   1.224   4.139  16.888 -0.6842  0.4127 -0.3456
18461TIP3    H276875   1.159   4.012  16.838 -0.8335  0.2838  0.1626
18462TIP3   OH276876   0.560   1.246  30.114 -0.4930  0.4330  0.3232
18462TIP3    H176877   0.494   1.178  30.098  0.0267 -0.0204  0.0489
18462TIP3    H276878   0.512   1.316  30.158 -0.8945 -0.4109  1.2816
18463TIP3   OH276879   1.842   3.877  17.433 -0.8646  0.9243 -0.2261
18463TIP3    H176880   1.858   3.809  17.499  0.7586  0.5446 -0.9514
18463TIP3    H276881   1.791   3.833  17.365 -0.1192  0.5116 -0.5283
18464TIP3   OH276882   0.668   4.052  31.988 -0.6304 -0.4802 -0.1831
18464TIP3    H176883   0.641   4.089  32.072  0.0409 -4.3541  1.9830
18464TIP3    H276884   0.589   4.012  31.952 -0.4060 -0.9911 -0.1179
18465TIP3   OH276885   0.931   4.262  38.708 -0.3653 -0.1429  0.0976
18465TIP3    H176886   0.913   4.322  38.781 -1.2221  1.0741 -1.0549
18465TIP3    H276887   0.899   4.177  38.739  0.1404  0.1407  1.4786
18466TIP3   OH276888   4.328   3.956  26.230  0.5386  0.0510 -0.1770
18466TIP3    H176889   4.269   4.026  26.259 -0.7385 -1.8685  2.1638
18466TIP3    H276890   4.335   3.968  26.135 -2.7962  0.9888 -0.4071
18467TIP3   OH276891   2.335   0.043  17.899 -0.2517 -1.0369 -0.2727
18467TIP3    H176892   2.349  -0.027  17.962 -0.6440 -0.1507  0.8477
18467TIP3    H276893   2.423   0.068  17.871  0.1526  0.1292  1.7686
18468TIP3   OH276894   2.266   0.366  10.043 -0.0842  0.4450  0.6200
18468TIP3    H176895   2.181   0.404  10.020  0.2958  0.4291 -0.9098
18468TIP3    H276896   2.323   0.390   9.970  0.2754 -2.7313 -0.2668
18469TIP3   OH276897   1.046   3.593   3.553  0.7050  0.2333 -0.1740
18469TIP3    H176898   1.089   3.541   3.621  1.1680 -1.3707 -1.6248
18469TIP3    H276899   1.008   3.667   3.600  0.8255 -0.9228  1.8471
18470TIP3   OH276900   2.333   3.263  10.462  0.2993  0.3877 -0.9120
18470TIP3    H176901   2.393   3.190  10.476 -0.4149  0.3231  2.8488
18470TIP3    H276902   2.258   3.245  10.518  0.4613  4.3175  0.9440
18471TIP3   OH276903   3.437   0.708  31.245  0.1971 -0.5405 -0.0944
18471TIP3    H176904   3.402   0.701  31.156  0.5172 -1.8441 -0.1478
18471TIP3    H276905   3.506   0.773  31.239 -0.6251  0.3185 -0.5050
18472TIP3   OH276906   0.727   3.157   1.343 -0.3208 -0.5890 -0.7755
18472TIP3    H176907   0.779   3.081   1.367  0.8243 -0.1715 -1.8021
18472TIP3    H276908   0.641   3.122   1.320  0.2796 -1.6182 -1.5001
18473TIP3   OH276909   1.140   2.449  38.884 -0.5116  0.3486  0.1802
18473TIP3    H176910   1.173   2.517  38.943 -1.1725  0.7241  0.1289
18473TIP3    H276911   1.049   2.436  38.912  0.5080 -3.0225  2.5517
18474TIP3   OH276912   2.184   0.429  14.181 -0.1973  0.6157 -0.1577
18474TIP3    H176913   2.157   0.521  14.184  0.7368  0.8859  0.6040
18474TIP3    H276914   2.103   0.380  14.198 -0.6088  1.3190 -0.0441
18475TIP3   OH276915   4.119   1.562   3.384 -0.5574 -0.1236  0.3511
18475TIP3    H176916   4.142   1.610   3.464 -2.8398 -1.0229  1.6425
18475TIP3    H276917   4.080   1.481   3.415 -0.5139 -1.0116 -1.7345
18476TIP3   OH276918   2.444   0.884  39.110  0.6081 -0.2231 -0.0793
18476TIP3    H176919   2.392   0.880  39.030 -0.0504  0.3308  0.3092
18476TIP3    H276920   2.503   0.958  39.097 -2.0823  2.3977  1.4026
18477TIP3   OH276921   1.604   1.231   8.982 -0.0533 -0.1001 -0.4707
18477TIP3    H176922   1.633   1.196   8.898 -0.0612 -0.2753 -0.4016
18477TIP3    H276923   1.512   1.254   8.968  0.0843  0.3412 -0.6534
18478TIP3   OH276924   1.999   4.197   0.394  0.3074 -0.2596 -0.6146
18478TIP3    H176925   2.045   4.123   0.432 -1.5690 -0.2246  1.9987
18478TIP3    H276926   2.040   4.274   0.432  0.9548  0.0036 -1.7867
18479TIP3   OH276927   2.802   3.145   4.739 -0.5402  0.5240  0.0949
18479TIP3    H176928   2.896   3.140   4.726  0.0235  3.3761  2.1109
18479TIP3    H276929   2.765   3.080   4.679  2.5627  0.5873 -2.0536
18480TIP3   OH276930   2.450   4.189   7.928 -0.5498  0.1945  0.6600
18480TIP3    H176931   2.423   4.107   7.887  3.5298 -1.0751  0.1449
18480TIP3    H276932   2.455   4.170   8.021  0.2102 -0.0883  0.5621
18481TIP3   OH276933   2.714   2.086  35.860 -0.0372  0.0592  0.2980
18481TIP3    H176934   2.649   2.090  35.930 -2.3787  0.3744 -1.7442
18481TIP3    H276935   2.760   2.003  35.874 -1.9382 -0.9339  0.9990
18482TIP3   OH276936   0.976   4.279   7.527 -0.0727 -0.4162 -0.0254
18482TIP3    H176937   0.935   4.276   7.613  1.4836  0.6165  0.8024
18482TIP3    H276938   1.041   4.208   7.528 -1.2071 -1.5298 -1.0318
18483TIP3   OH276939   0.999   1.436  37.655  0.0343 -0.1143  0.3527
18483TIP3    H176940   0.987   1.458  37.747  2.3281  1.9666  0.2392
18483TIP3    H276941   0.942   1.360  37.641 -0.7320 -0.1968  3.3359
18484TIP3   OH276942   0.094   2.362  12.610  0.7681 -0.2917 -0.5156
18484TIP3    H176943   0.082   2.288  12.670 -1.9912  0.1908 -0.3321
18484TIP3    H276944   0.129   2.323  12.530 -1.3190 -2.0143 -0.6946
18485TIP3   OH276945   2.394   2.008  33.908  0.4464 -0.0232 -0.6344
18485TIP3    H176946   2.300   2.018  33.921  0.4914  0.4991 -0.6803
18485TIP3    H276947   2.404   1.919  33.875  0.1442 -0.6698  0.9573
18486TIP3   OH276948   1.307   0.587   0.345  0.1138 -0.1425  0.4201
18486TIP3    H176949   1.348   0.515   0.393 -0.6796 -1.1070 -0.3213
18486TIP3    H276950   1.260   0.636   0.412  0.5795 -0.3593  0.9176
18487TIP3   OH276951   0.854   2.598  34.129  0.6454 -0.4773 -0.1602
18487TIP3    H176952   0.947   2.605  34.152  0.7399 -0.7272 -0.4558
18487TIP3    H276953   0.830   2.686  34.101 -0.2251  0.6750  3.5691
18488TIP3   OH276954   1.966   2.292  36.559 -0.1318 -0.5031  0.2131
18488TIP3    H176955   1.909   2.367  36.579  1.2497  0.1484  1.9209
18488TIP3    H276956   1.996   2.308  36.470  0.4378  1.2084  0.6742
18489TIP3   OH276957   0.893   2.121  32.113 -0.1806  0.4531  0.5545
18489TIP3    H176958   0.891   2.084  32.201  0.8781  0.0861  0.4457
18489TIP3    H276959   0.816   2.085  32.070 -0.4760  0.3019  1.2084
18490TIP3   OH276960   0.424   2.374  33.560 -0.3570 -1.0162 -0.0956
18490TIP3    H176961   0.497   2.380  33.498 -2.1369 -0.9649 -2.3221
18490TIP3    H276962   0.444   2.296  33.613  0.7449 -1.6936 -1.4356
18491TIP3   OH276963   1.728   0.288  30.105  0.1091 -0.4814  0.0947
18491TIP3    H176964   1.768   0.263  30.022 -0.4617 -0.7518 -0.1019
18491TIP3    H276965   1.663   0.220  30.123  2.5529 -2.3996  2.5087
18492TIP3   OH276966   1.963   2.056   2.977 -0.1177 -0.4263 -0.1821
18492TIP3    H176967   1.944   2.123   3.043  0.7087  1.0111 -1.3484
18492TIP3    H276968   2.018   2.100   2.912 -0.9385 -1.7625 -1.8768
18493TIP3   OH276969   4.373   2.977   2.284 -0.6159  0.1637  0.5878
18493TIP3    H176970   4.366   3.049   2.348 -0.5054  0.4715  0.2596
18493TIP3    H276971   4.433   2.915   2.325 -0.6584  0.2877  0.8459
18494TIP3   OH276972   0.078   1.156   1.519  1.0296  0.1666  0.2718
18494TIP3    H176973   0.172   1.173   1.510  0.9316  0.6048  0.0667
18494TIP3    H276974   0.072   1.061   1.534  1.5391  0.2138  0.8194
18495TIP3   OH276975   1.885   0.574  37.735  0.2142  0.2388  0.3113
18495TIP3    H176976   1.919   0.607  37.818  0.3460 -0.8851  0.7220
18495TIP3    H276977   1.953   0.594  37.672  1.0021 -0.6528  0.8521
18496TIP3   OH276978   0.138   1.851  29.637 -0.3007 -0.5442 -0.2131
18496TIP3    H176979   0.219   1.800  29.647 -0.0294 -0.0902 -0.0855
18496TIP3    H276980   0.167   1.941  29.629 -0.6549 -0.5576 -2.3610
18497TIP3   OH276981   4.219   2.422   8.237  0.2831 -0.2773 -0.4846
18497TIP3    H176982   4.277   2.360   8.282  1.3087  0.9307 -0.1064
18497TIP3    H276983   4.131   2.390   8.256  0.6454  0.3775  2.7431
18498TIP3   OH276984   1.756   2.350   7.245 -0.6165  0.1672 -0.2395
18498TIP3    H176985   1.755   2.255   7.232  0.8908  0.3276 -1.8420
18498TIP3    H276986   1.849   2.373   7.246 -0.9569  1.6446  0.1508
18499TIP3   OH276987   3.209   0.850  10.778 -0.0142 -0.2433  0.0945
18499TIP3    H176988   3.254   0.926  10.741  0.5138 -1.7593 -2.6520
18499TIP3    H276989   3.279   0.799  10.819  0.6666 -1.6602 -2.5414
18500TIP3   OH276990   0.225   2.711   7.331  0.0854 -0.2128  0.1226
18500TIP3    H176991   0.182   2.660   7.263 -1.4584 -0.0565  0.9322
18500TIP3    H276992   0.191   2.675   7.413 -1.3434  2.2922  0.7150
18501TIP3   OH276993   2.550   3.133   8.933  1.0255 -0.1541 -0.6738
18501TIP3    H176994   2.597   3.140   9.016 -2.3879  0.3240  1.4302
18501TIP3    H276995   2.533   3.040   8.922 -0.9891 -0.0233  0.8150
18502TIP3   OH276996   2.644   0.534  34.338  0.9273  0.3617 -0.1071
18502TIP3    H176997   2.587   0.591  34.286  0.0269 -0.0995  0.3509
18502TIP3    H276998   2.621   0.554  34.429 -0.6412 -1.8617  0.0835
18503TIP3   OH276999   3.377   1.177   0.621 -0.4057  0.1467 -0.4649
18503TIP3    H177000   3.427   1.174   0.703 -0.5377  0.4218 -0.3709
18503TIP3    H277001   3.286   1.184   0.649 -0.7497 -2.7436 -0.6074
18504TIP3   OH277002   0.785   2.239  36.794 -0.2797 -0.3488  0.6786
18504TIP3    H177003   0.826   2.273  36.873 -0.0537 -0.3292  0.5540
18504TIP3    H277004   0.700   2.283  36.790 -0.5136 -0.7496  1.1906
18505TIP3   OH277005   4.295   2.841  30.418  0.0042 -0.1750 -0.1092
18505TIP3    H177006   4.311   2.909  30.352 -2.0563  1.9035  1.3484
18505TIP3    H277007   4.338   2.874  30.497  1.0307 -1.7986  0.0373
18506TIP3   OH277008   0.502   2.284  10.733 -0.5172  0.2292 -0.3322
18506TIP3    H177009   0.573   2.247  10.785 -0.4005  1.3254  0.3171
18506TIP3    H277010   0.544   2.310  10.651 -0.0859  1.1815  0.1794
18507TIP3   OH277011   1.876   0.928  29.085  0.4860  0.3045  0.4573
18507TIP3    H177012   1.791   0.973  29.093  0.2487  0.1191 -0.7697
18507TIP3    H277013   1.897   0.934  28.992  2.2904  1.1792  0.8705
18508TIP3   OH277014   3.772   3.784  32.487 -0.1783  0.6947  0.0740
18508TIP3    H177015   3.817   3.703  32.511 -2.6829 -0.8942 -0.3127
18508TIP3    H277016   3.798   3.800  32.397 -0.8847 -0.6266 -0.3965
18509TIP3   OH277017   2.570   3.381  33.224  0.5179 -0.2819  0.2574
18509TIP3    H177018   2.541   3.382  33.315 -1.8589 -0.7535 -0.4421
18509TIP3    H277019   2.596   3.290  33.208  2.1697  0.0531  0.7579
18510TIP3   OH277020   3.071   0.741  33.946 -0.6269  0.6542 -0.1008
18510TIP3    H177021   3.103   0.777  33.864 -0.1270  2.2482  0.7603
18510TIP3    H277022   3.037   0.655  33.922  0.1784  0.7715 -1.8361
18511TIP3   OH277023   3.991   2.142  38.086 -0.3814  0.0052 -0.1363
18511TIP3    H177024   3.940   2.216  38.118 -1.3787 -0.0216 -1.5522
18511TIP3    H277025   4.057   2.127  38.153 -0.5371  1.7887  0.4669
18512TIP3   OH277026   1.836   3.812   7.854  0.2395 -0.0208  0.5502
18512TIP3    H177027   1.764   3.760   7.890  0.5265 -0.4513  0.5008
18512TIP3    H277028   1.806   3.838   7.767 -0.8056  1.7134  1.3661
18513TIP3   OH277029   3.006   3.634  29.004 -0.5906 -0.6304  0.2447
18513TIP3    H177030   2.981   3.711  29.055 -0.2461 -1.3188  1.4871
18513TIP3    H277031   2.926   3.582  28.997 -1.0741  0.2469 -1.4233
18514TIP3   OH277032   0.142   2.246   5.477  0.1911 -0.0890  0.6204
18514TIP3    H177033   0.120   2.164   5.522 -2.1393 -0.0952 -0.4007
18514TIP3    H277034   0.083   2.311   5.516 -0.4923  0.3184 -1.0233
18515TIP3   OH277035   2.605   4.225  34.412  0.3372  0.5831  0.1807
18515TIP3    H177036   2.633   4.286  34.480 -3.7266  2.8795  0.0948
18515TIP3    H277037   2.546   4.164  34.457  0.5288 -0.2613 -0.6602
18516TIP3   OH277038   2.558   0.279  36.625 -0.4719 -0.1469 -0.6078
18516TIP3    H177039   2.509   0.197  36.633  0.2601 -0.5954 -0.6168
18516TIP3    H277040   2.505   0.334  36.567 -0.7907 -0.7501 -0.8918
18517TIP3   OH277041   1.612   3.240  12.825 -0.4523 -0.1267  0.3531
18517TIP3    H177042   1.702   3.242  12.856 -0.0266  0.1392 -0.8189
18517TIP3    H277043   1.587   3.148  12.827  0.5861 -0.4863 -1.2341
18518TIP3   OH277044   4.205   0.309  41.096  0.2027  0.4165 -0.0438
18518TIP3    H177045   4.131   0.248  41.107  1.2719 -1.0953 -0.8874
18518TIP3    H277046   4.264   0.288  41.168 -0.4284  2.0995  1.0441
18519TIP3   OH277047   1.139   1.852   6.035 -0.2476  0.0679  0.2184
18519TIP3    H177048   1.156   1.758   6.024  0.3791  0.0188  1.3407
18519TIP3    H277049   1.089   1.877   5.958  0.1039 -1.0617 -0.4048
18520TIP3   OH277050   2.964   2.287   2.903 -0.0076 -0.7441  0.9914
18520TIP3    H177051   3.026   2.269   2.973  0.2277  1.0514  1.2835
18520TIP3    H277052   2.878   2.272   2.942  0.0658  1.2706  2.0454
18521TIP3   OH277053   3.949   3.418  21.777  0.1699  0.0938 -0.4774
18521TIP3    H177054   3.896   3.363  21.719 -1.9960  0.5445  0.9658
18521TIP3    H277055   3.978   3.490  21.721  0.8314 -1.1117 -1.7462
18522TIP3   OH277056   2.660   2.640   3.218  0.0384  0.0401 -0.2363
18522TIP3    H177057   2.720   2.617   3.147 -0.5258  0.3497 -0.8230
18522TIP3    H277058   2.707   2.615   3.298  0.8566  0.0871 -0.6915
18523TIP3   OH277059   3.467   3.796  13.130 -0.7619 -0.2439  0.0267
18523TIP3    H177060   3.489   3.869  13.188 -0.9016 -0.4891  0.4004
18523TIP3    H277061   3.529   3.802  13.058 -0.0791 -0.3739  0.5854
18524TIP3   OH277062   0.436   2.909   2.766 -0.5548 -0.1297  0.1000
18524TIP3    H177063   0.455   2.945   2.852 -0.3566  0.0918 -0.0339
18524TIP3    H277064   0.436   2.814   2.779  0.8754 -0.1614  0.0783
18525TIP3   OH277065   1.725   3.257  31.405 -0.2422  0.1404 -0.0317
18525TIP3    H177066   1.710   3.210  31.488  0.1244  0.9853  0.5230
18525TIP3    H277067   1.672   3.209  31.341 -0.5951 -0.4804  0.7067
18526TIP3   OH277068   2.768   1.223  40.623 -0.2977 -0.2319 -0.2514
18526TIP3    H177069   2.734   1.281  40.691 -0.6909 -1.1307  0.3384
18526TIP3    H277070   2.803   1.148  40.671  0.3504 -0.4193 -0.9901
18527TIP3   OH277071   4.218   0.562  34.672 -0.0970 -0.2517 -0.0241
18527TIP3    H177072   4.224   0.536  34.764  0.1577  0.0383  0.0437
18527TIP3    H277073   4.124   0.561  34.653 -0.2733  1.0596  0.6431
18528TIP3   OH277074   1.929   1.328  18.766 -0.1202  0.2791  0.7347
18528TIP3    H177075   1.970   1.413  18.777 -0.0338  0.3980 -0.3765
18528TIP3    H277076   1.975   1.271  18.829  0.3628  0.8690  0.9264
18529TIP3   OH277077   1.753   2.924  29.747 -0.3162  0.4314  0.7680
18529TIP3    H177078   1.730   2.892  29.835  0.8152 -2.0894  0.2472
18529TIP3    H277079   1.673   2.963  29.714 -1.1762  0.1235  2.3705
18530TIP3   OH277080   0.339   4.257  22.927 -0.0085  0.0436 -1.1658
18530TIP3    H177081   0.385   4.223  23.004  0.5180  1.0996 -0.9948
18530TIP3    H277082   0.247   4.238  22.943 -0.1621  1.9669  0.6898
18531TIP3   OH277083   1.135   0.692   4.919  0.0415  0.2106 -0.0658
18531TIP3    H177084   1.222   0.683   4.956 -0.1519 -0.6110  0.2061
18531TIP3    H277085   1.077   0.645   4.979 -0.3096 -0.9219 -1.2417
18532TIP3   OH277086   0.798   2.101  30.847  0.0259  0.0075 -0.1063
18532TIP3    H177087   0.799   2.094  30.751 -2.3868 -0.3171 -0.1710
18532TIP3    H277088   0.765   2.189  30.864  2.2045  0.7615  0.4910
18533TIP3   OH277089   3.634   1.313  32.231  0.3853  0.1689  0.2315
18533TIP3    H177090   3.580   1.385  32.200  0.1570  0.1167  0.5106
18533TIP3    H277091   3.661   1.268  32.151  0.6520  0.6504  0.0439
18534TIP3   OH277092   4.248   3.089   8.826  0.3553  0.3670  0.0202
18534TIP3    H177093   4.246   3.021   8.758  0.8791  0.3443  0.0268
18534TIP3    H277094   4.341   3.107   8.840  0.2162  1.7254 -0.6189
18535TIP3   OH277095   1.473   1.716   6.899  0.4529 -0.7723  0.4172
18535TIP3    H177096   1.531   1.646   6.929  0.7422  0.1115  2.0062
18535TIP3    H277097   1.529   1.794   6.894 -0.6599  0.2453  2.5957
18536TIP3   OH277098   3.998   4.318  35.635 -0.7361 -0.5282 -0.1204
18536TIP3    H177099   4.028   4.408  35.623  1.2582 -1.1860 -0.4262
18536TIP3    H277100   3.961   4.317  35.723 -1.1301  0.6690 -0.2548
18537TIP3   OH277101   2.805   3.600   6.147 -0.0163  0.0474  0.3132
18537TIP3    H177102   2.805   3.689   6.113 -1.8961 -0.0997 -0.1862
18537TIP3    H277103   2.831   3.546   6.073  0.0709  0.0961  0.3087
18538TIP3   OH277104   3.690   1.647  20.946 -0.3900 -0.5007  0.3594
18538TIP3    H177105   3.675   1.722  20.889 -2.6404 -0.1630  1.2976
18538TIP3    H277106   3.688   1.683  21.035 -1.5532 -1.6524  0.8243
18539TIP3   OH277107   1.225   3.920  36.697 -0.3582 -0.2523  0.1874
18539TIP3    H177108   1.163   3.974  36.648  0.3748 -0.0782 -0.5660
18539TIP3    H277109   1.194   3.925  36.788 -2.1018 -1.0808 -0.3136
18540TIP3   OH277110   0.010   0.948   0.240 -0.6290  0.1715  0.5292
18540TIP3    H177111  -0.056   1.014   0.263 -0.2184  0.4172  1.0116
18540TIP3    H277112   0.094   0.993   0.248 -0.3388 -0.4238  0.9251
18541TIP3   OH277113   3.354   0.856  10.007 -0.2758  0.2473  0.3337
18541TIP3    H177114   3.388   0.791  10.069 -0.1752 -0.8624 -0.8334
18541TIP3    H277115   3.303   0.804   9.944 -0.3435  1.3302 -0.5375
18542TIP3   OH277116   2.720   3.847  31.034 -0.2362  0.2351  0.1240
18542TIP3    H177117   2.626   3.862  31.035 -0.2578  0.0915  0.3947
18542TIP3    H277118   2.758   3.935  31.024 -0.4319  0.1042 -2.1981
18543TIP3   OH277119   0.988   1.516  34.307 -0.2667  0.6772 -0.4636
18543TIP3    H177120   1.021   1.445  34.253  0.9660  0.3918  0.6090
18543TIP3    H277121   0.966   1.475  34.391  0.7837  1.5662  0.2847
18544TIP3   OH277122   3.771   0.098  36.688 -0.4292 -0.3277  0.5280
18544TIP3    H177123   3.692   0.115  36.637 -0.5769 -0.0319  0.8497
18544TIP3    H277124   3.740   0.048  36.764 -0.6431  1.4557  1.6795
18545TIP3   OH277125   0.271   3.777  23.508 -0.3521 -0.4537 -0.6458
18545TIP3    H177126   0.190   3.795  23.461  1.1305  2.8875 -2.2666
18545TIP3    H277127   0.258   3.814  23.595 -0.7689 -0.5525 -0.6658
18546TIP3   OH277128   2.964   0.385   5.732 -0.0803 -0.6263  0.2015
18546TIP3    H177129   2.958   0.458   5.793  0.1383 -0.1025 -0.3978
18546TIP3    H277130   3.052   0.350   5.745  0.2892  0.0363 -0.4179
18547TIP3   OH277131   0.743   4.221   7.014 -0.3837  0.2054 -0.3097
18547TIP3    H177132   0.823   4.232   7.065 -0.9066 -0.3056  0.6475
18547TIP3    H277133   0.765   4.254   6.927  0.8689  0.0709 -0.0617
18548TIP3   OH277134   3.224   1.486  12.182  0.1941  0.1442 -0.1157
18548TIP3    H177135   3.255   1.443  12.262  0.3979 -1.1893 -0.8778
18548TIP3    H277136   3.252   1.428  12.111  0.5910  1.6245 -1.2159
18549TIP3   OH277137   3.013   1.566   2.006 -0.3826  0.5437  0.4294
18549TIP3    H177138   3.001   1.641   2.064  0.2995  0.6651  0.4276
18549TIP3    H277139   3.082   1.514   2.048 -0.7706 -0.0229  0.3733
18550TIP3   OH277140   3.158   4.346  30.075  0.0978  0.3201 -0.4049
18550TIP3    H177141   3.131   4.405  30.145  1.1610 -1.2002  1.3785
18550TIP3    H277142   3.155   4.258  30.114  0.4609 -0.6284 -2.3568
18551TIP3   OH277143   4.298   0.787   9.397 -0.4423  0.8634 -0.5290
18551TIP3    H177144   4.221   0.841   9.412  0.2569  1.5800  0.5603
18551TIP3    H277145   4.337   0.821   9.316 -0.2374  1.7189 -0.0723
18552TIP3   OH277146   2.454   2.937   1.362 -0.5846 -0.1410  0.3601
18552TIP3    H177147   2.421   2.863   1.310  0.9698 -0.8812  0.3542
18552TIP3    H277148   2.514   2.983   1.303  0.6440 -0.5710  1.2139
18553TIP3   OH277149   0.830   1.171  12.510 -0.1124 -0.5036 -0.2633
18553TIP3    H177150   0.821   1.265  12.494  1.3798 -0.3281 -0.2180
18553TIP3    H277151   0.833   1.133  12.422  1.7431 -0.2118 -0.3750
18554TIP3   OH277152   0.858   0.937  41.643  0.8217  0.6496 -0.0103
18554TIP3    H177153   0.882   0.959  41.733  0.1535  2.1225 -0.1741
18554TIP3    H277154   0.823   0.848  41.649  1.6499  0.3694  1.0226
18555TIP3   OH277155   1.695   3.676   9.791 -0.0203 -0.6154 -0.0243
18555TIP3    H177156   1.721   3.696   9.701 -0.8577  2.1126  0.2586
18555TIP3    H277157   1.752   3.730   9.845 -0.4946 -1.1483  1.0281
18556TIP3   OH277158   0.754   0.640   2.420 -1.1462 -0.0240  0.2158
18556TIP3    H177159   0.746   0.636   2.515 -2.5885 -1.0907  0.1012
18556TIP3    H277160   0.824   0.578   2.399  0.6793  1.7954  0.6734
18557TIP3   OH277161   1.669   3.900  32.115 -0.7113  0.3686  0.3745
18557TIP3    H177162   1.610   3.827  32.101  0.3457 -0.2269 -1.2541
18557TIP3    H277163   1.755   3.860  32.128 -0.2390  1.2761  0.1905
18558TIP3   OH277164   1.358   3.526  34.177  0.0455  0.9958 -0.5166
18558TIP3    H177165   1.398   3.611  34.156 -0.8255  1.5900  0.1670
18558TIP3    H277166   1.300   3.545  34.251  0.3382 -0.3377  0.0706
18559TIP3   OH277167   3.789   1.102  10.196  0.0549 -0.2494  0.0393
18559TIP3    H177168   3.709   1.149  10.217 -0.0169  0.3582 -1.4707
18559TIP3    H277169   3.802   1.042  10.269 -0.9571  0.6926  1.0186
18560TIP3   OH277170   2.435   1.297  28.252 -0.0370  0.1262  0.3993
18560TIP3    H177171   2.491   1.265  28.323  0.1358  0.1443  0.2731
18560TIP3    H277172   2.369   1.350  28.296 -0.4014 -0.5003  0.6243
18561TIP3   OH277173   1.816   3.046  27.743  0.0610 -0.2872  0.1476
18561TIP3    H177174   1.728   3.050  27.778 -0.9133 -1.2689 -2.0164
18561TIP3    H277175   1.824   2.959  27.705  1.2920  0.3998 -1.3171
18562TIP3   OH277176   2.051   3.044  39.517 -0.2162  0.2349  0.1724
18562TIP3    H177177   2.131   3.021  39.565 -0.9229 -1.7094  0.5339
18562TIP3    H277178   2.060   3.137  39.498  2.2925 -0.0050 -0.1288
18563TIP3   OH277179   4.167   2.917  39.806 -0.4983 -0.0050 -0.7326
18563TIP3    H177180   4.235   2.884  39.747 -0.6649 -0.1134 -0.8629
18563TIP3    H277181   4.137   2.840  39.853 -0.1324  0.1310 -0.2664
18564TIP3   OH277182   2.215   3.088   7.158 -0.3686 -0.1751 -0.3590
18564TIP3    H177183   2.163   3.153   7.205 -2.6030 -0.3982 -2.3109
18564TIP3    H277184   2.252   3.135   7.084 -0.8346 -0.7976 -1.0036
18565TIP3   OH277185   0.844   0.892  36.680 -0.3037 -0.5504 -0.4299
18565TIP3    H177186   0.927   0.863  36.716 -1.1328 -0.0858  2.0400
18565TIP3    H277187   0.854   0.986  36.670 -0.3613 -0.5669 -0.6499
18566TIP3   OH277188   3.740   1.930   0.836  0.3332  0.3822  0.0447
18566TIP3    H177189   3.829   1.897   0.848  0.9574  1.6063 -0.9889
18566TIP3    H277190   3.691   1.857   0.797  1.3243  0.2282 -0.9421
18567TIP3   OH277191   0.660   3.510   5.837  0.5890 -0.4119 -0.4329
18567TIP3    H177192   0.583   3.515   5.780 -0.2340 -1.2452  0.5615
18567TIP3    H277193   0.656   3.591   5.889 -0.6075 -1.2123  0.7901
18568TIP3   OH277194   3.231   3.260  12.590  0.1268 -0.0658 -0.6801
18568TIP3    H177195   3.188   3.265  12.675  1.4964 -0.5630  0.0693
18568TIP3    H277196   3.214   3.171  12.560 -0.3841  0.1198 -0.9456
18569TIP3   OH277197   2.866   1.200  38.012  0.5385  0.0965 -0.0255
18569TIP3    H177198   2.783   1.233  37.979  1.3716  1.3285 -0.9746
18569TIP3    H277199   2.901   1.270  38.066  1.1827 -0.2072 -0.0295
18570TIP3   OH277200   3.223   3.391  11.008 -0.8156  0.1092  0.2164
18570TIP3    H177201   3.200   3.305  10.971  0.0168  0.1153 -0.3412
18570TIP3    H277202   3.297   3.372  11.067  0.8141  0.7178 -1.5419
18571TIP3   OH277203   2.535   1.449   5.059 -0.2656  0.3492  0.1311
18571TIP3    H177204   2.594   1.468   4.987  0.5513 -1.7478  0.1740
18571TIP3    H277205   2.570   1.499   5.133  0.9212 -0.1288 -0.0875
18572TIP3   OH277206   0.165   4.233  13.704  0.3830  0.2007  0.0551
18572TIP3    H177207   0.244   4.221  13.651 -0.5228 -0.2395 -1.2654
18572TIP3    H277208   0.112   4.155  13.686 -1.0180  1.1891 -0.3245
18573TIP3   OH277209   2.423   2.960   0.917  0.0184  0.2584  0.1321
18573TIP3    H177210   2.355   2.964   0.850  0.1718 -0.8156 -0.1105
18573TIP3    H277211   2.383   2.913   0.990  1.2013 -2.6825 -0.9666
18574TIP3   OH277212   3.136   0.475  39.678  0.4255  0.1874 -0.3077
18574TIP3    H177213   3.051   0.467  39.635 -0.1478  2.1009  0.3700
18574TIP3    H277214   3.124   0.435  39.764  0.5292 -0.4142 -0.5601
18575TIP3   OH277215   1.029   1.305  36.467 -0.0422 -0.0463  0.0277
18575TIP3    H177216   1.048   1.383  36.520  0.7926  1.0720 -1.7814
18575TIP3    H277217   0.989   1.340  36.387  1.4262 -1.3318 -1.3408
18576TIP3   OH277218   0.412   4.170  13.100 -0.0116 -0.0920 -0.4183
18576TIP3    H177219   0.444   4.107  13.036  1.3930  0.0889  0.0597
18576TIP3    H277220   0.455   4.145  13.182 -1.0057  0.2763  0.2326
18577TIP3   OH277221   1.738   2.138   9.104 -0.1646 -0.7636  0.7033
18577TIP3    H177222   1.725   2.230   9.126  0.3049 -0.5522  0.1083
18577TIP3    H277223   1.833   2.127   9.100 -0.2253 -0.9067 -0.7377
18578TIP3   OH277224   3.912   1.410   8.066 -0.7275  0.0342  0.0073
18578TIP3    H177225   3.933   1.341   8.003 -0.1409 -0.1712  0.4187
18578TIP3    H277226   3.816   1.414   8.066 -0.8072 -1.2788  0.4986
18579TIP3   OH277227   1.112   2.997  16.882 -0.3604  0.0339 -0.3671
18579TIP3    H177228   1.061   2.952  16.949 -0.3498 -1.3393 -1.2209
18579TIP3    H277229   1.164   3.062  16.929  0.7188 -1.8316  1.1564
18580TIP3   OH277230   0.411   1.445  28.812 -0.0934 -0.3374 -0.2914
18580TIP3    H177231   0.351   1.401  28.752  0.1819 -0.4082 -0.5183
18580TIP3    H277232   0.497   1.409  28.791  0.0226 -0.2654  0.0577
18581TIP3   OH277233   2.296   2.253   0.929 -0.5222 -0.9196  0.2874
18581TIP3    H177234   2.237   2.248   1.005 -0.4733 -0.2573  0.3712
18581TIP3    H277235   2.334   2.165   0.923 -0.9840 -1.1496  0.6636
18582TIP3   OH277236   1.732   0.946   0.689 -0.4104  0.3352 -0.2535
18582TIP3    H177237   1.813   0.946   0.639  0.3637  0.2516  0.9478
18582TIP3    H277238   1.695   1.033   0.676 -0.7197  0.0037 -1.7048
18583TIP3   OH277239   1.625   4.032   0.056  0.1761  0.1950 -0.2371
18583TIP3    H177240   1.714   4.013   0.024  0.0886 -0.1384 -0.2814
18583TIP3    H277241   1.636   4.044   0.151  0.2784  0.2103 -0.2509
18584TIP3   OH277242   0.324   3.430   9.451  0.7005 -0.6897 -0.3484
18584TIP3    H177243   0.388   3.428   9.522 -0.1883  0.0535  0.4967
18584TIP3    H277244   0.375   3.408   9.373  1.6485 -1.7773  0.5363
18585TIP3   OH277245   0.696   2.452  26.654  0.0322 -0.1021  0.1980
18585TIP3    H177246   0.660   2.370  26.689 -1.0529  0.3938  0.2934
18585TIP3    H277247   0.639   2.520  26.689 -1.0841  0.4319 -2.4146
18586TIP3   OH277248   3.585   4.277  41.080 -0.1444  0.0589  0.0175
18586TIP3    H177249   3.498   4.288  41.043 -0.0476 -1.3028 -0.6730
18586TIP3    H277250   3.643   4.279  41.004  0.5780  2.0038  0.5497
18587TIP3   OH277251   1.622   2.751  35.126 -0.3906 -0.3741  0.4846
18587TIP3    H177252   1.556   2.803  35.173 -0.3993  0.0957 -0.0393
18587TIP3    H277253   1.700   2.807  35.126 -0.6818  0.0605 -0.9211
18588TIP3   OH277254   2.736   3.515   8.515 -0.4172 -0.0593  0.5335
18588TIP3    H177255   2.727   3.575   8.441 -1.4133 -0.7303  0.0917
18588TIP3    H277256   2.774   3.569   8.585  1.4512  0.3525 -0.7239
18589TIP3   OH277257   4.374   2.675  30.760 -0.2274  0.3047  0.1246
18589TIP3    H177258   4.464   2.662  30.729 -0.0168  0.0593  0.8210
18589TIP3    H277259   4.319   2.650  30.686  0.2742  0.2377 -0.2301
18590TIP3   OH277260   3.915   2.348  13.476 -0.5068  0.0924  0.1333
18590TIP3    H177261   3.828   2.354  13.435  0.3677 -3.2349 -2.7642
18590TIP3    H277262   3.972   2.401  13.419  0.2738 -2.5770 -1.7778
18591TIP3   OH277263   3.115   1.007  28.784  0.2376  0.9621  0.1387
18591TIP3    H177264   3.056   1.078  28.759  0.2074  0.1068 -2.6610
18591TIP3    H277265   3.090   0.984  28.873 -3.6969  0.6784 -0.8475
18592TIP3   OH277266   3.707   4.338  35.078  0.4891 -0.0507  0.2225
18592TIP3    H177267   3.785   4.300  35.119  1.0231  0.8346  0.0539
18592TIP3    H277268   3.698   4.289  34.996  1.3043  0.3254 -0.0992
18593TIP3   OH277269   0.356   1.571   5.898  0.2909 -0.0668 -0.3434
18593TIP3    H177270   0.305   1.603   5.972  0.3513  1.4708 -0.9255
18593TIP3    H277271   0.400   1.493   5.931  2.1210  1.8107  1.9973
18594TIP3   OH277272   3.902   3.788  30.453 -1.0495  0.0075  0.3344
18594TIP3    H177273   3.960   3.752  30.521 -1.5278 -0.5115  0.4741
18594TIP3    H277274   3.818   3.745  30.468 -1.2364  0.0997 -0.4171
18595TIP3   OH277275   3.631   4.302   6.051 -0.0985 -0.4089 -0.1945
18595TIP3    H177276   3.642   4.366   5.981 -0.1708 -0.3743 -0.1753
18595TIP3    H277277   3.613   4.355   6.129 -1.2359 -0.4771 -0.3872
18596TIP3   OH277278   3.872   2.247  38.704  0.7016 -0.0208  0.0612
18596TIP3    H177279   3.846   2.304  38.632  1.9324  0.9266  0.3546
18596TIP3    H277280   3.956   2.281  38.734  3.0924 -3.7064 -1.6865
18597TIP3   OH277281   0.585   1.249   8.985 -0.1822  0.7444 -0.0693
18597TIP3    H177282   0.611   1.223   8.896  3.2062  0.0483  0.9781
18597TIP3    H277283   0.582   1.167   9.034  2.8038  1.4500  1.4760
18598TIP3   OH277284   1.129   1.299   3.382  0.3884 -0.7158 -0.0633
18598TIP3    H177285   1.042   1.317   3.417  1.0645 -0.7562  1.7031
18598TIP3    H277286   1.141   1.205   3.397  1.2998 -0.4347  1.0540
18599TIP3   OH277287   3.101   3.804  39.064 -0.1222  0.2588  0.2898
18599TIP3    H177288   3.031   3.777  39.005  0.1576 -0.3096  0.2140
18599TIP3    H277289   3.055   3.840  39.140 -0.5380 -1.0669  0.7028
18600TIP3   OH277290   3.833   3.452  26.856  0.1943  0.4470 -1.0360
18600TIP3    H177291   3.899   3.489  26.914 -2.2209  1.9917  0.9593
18600TIP3    H277292   3.795   3.527  26.810 -0.8845 -0.2353 -1.3114
18601TIP3   OH277293   3.132   2.577  11.222 -0.0885 -0.4229 -0.4666
18601TIP3    H177294   3.083   2.499  11.248 -0.2532  0.1278  1.0022
18601TIP3    H277295   3.132   2.575  11.126 -1.0149 -1.6377 -0.4656
18602TIP3   OH277296   1.501   0.339  37.592 -0.0977 -0.2489  0.1287
18602TIP3    H177297   1.432   0.298  37.539 -1.2136  0.3508  1.0827
18602TIP3    H277298   1.582   0.295  37.565 -0.8510 -0.9791 -0.9988
18603TIP3   OH277299   2.472   0.297  35.312 -0.6041  0.1683 -0.0452
18603TIP3    H177300   2.479   0.208  35.345  2.5935  0.0034 -0.8335
18603TIP3    H277301   2.498   0.292  35.220 -0.8482  1.8157 -0.2434
18604TIP3   OH277302   2.437   0.593  30.056  0.4527  0.2921  0.0498
18604TIP3    H177303   2.381   0.550  29.991  0.6630  0.0663  0.0173
18604TIP3    H277304   2.476   0.522  30.106 -0.7393  0.4934  1.3111
18605TIP3   OH277305   2.126   0.709  18.843  0.4470  0.3621  0.2114
18605TIP3    H177306   2.036   0.716  18.810  1.1544  1.6191 -1.6471
18605TIP3    H277307   2.134   0.781  18.905  0.1702  0.2682  0.3547
18606TIP3   OH277308   3.679   2.860  26.530 -1.0303  0.3497  0.6830
18606TIP3    H177309   3.669   2.894  26.619 -1.7495  1.8691  0.0653
18606TIP3    H277310   3.591   2.831  26.505 -1.1873  1.3795 -0.0529
18607TIP3   OH277311   0.387   2.274  26.021 -0.1678  0.1251 -0.4687
18607TIP3    H177312   0.378   2.188  26.063  2.5581 -0.6307 -1.2185
18607TIP3    H277313   0.441   2.324  26.082  2.4117 -0.4179 -2.1569
18608TIP3   OH277314   0.247   3.486   8.572 -0.2400  1.0062 -0.0354
18608TIP3    H177315   0.179   3.548   8.598 -0.1478  1.6367 -1.2054
18608TIP3    H277316   0.256   3.499   8.477 -1.0875 -1.6642 -0.5609
18609TIP3   OH277317   4.122   3.914   2.167  0.2624  0.2474  0.1316
18609TIP3    H177318   4.129   4.009   2.172 -0.3016  0.3331 -0.5403
18609TIP3    H277319   4.082   3.889   2.250  0.2959  0.6075  0.2587
18610TIP3   OH277320   2.310   4.075  28.529  0.3908 -0.0070 -0.2590
18610TIP3    H177321   2.302   4.110  28.618  0.4367  0.0019 -0.2585
18610TIP3    H277322   2.220   4.073  28.496  0.1940 -1.4263  0.3160
18611TIP3   OH277323   3.789   1.162  11.332 -0.0517  0.4566  0.2366
18611TIP3    H177324   3.732   1.199  11.265 -0.6487  2.0219  1.5235
18611TIP3    H277325   3.741   1.086  11.364  0.7809 -1.0261 -1.8518
18612TIP3   OH277326   2.416   0.069  30.341  0.1612 -0.0323 -0.6665
18612TIP3    H177327   2.374   0.155  30.334 -0.4801 -0.3715 -1.0678
18612TIP3    H277328   2.445   0.049  30.253 -2.2198 -1.4604 -1.2203
18613TIP3   OH277329   2.199   3.414  29.953 -0.2416  0.1684  0.3359
18613TIP3    H177330   2.151   3.495  29.937 -2.0280 -0.8117  0.4636
18613TIP3    H277331   2.131   3.346  29.959  1.2014 -1.4016 -0.0828
18614TIP3   OH277332   3.755   1.811  29.653 -0.1116 -0.7198 -0.1104
18614TIP3    H177333   3.850   1.797  29.653 -0.1994 -1.3641 -1.2086
18614TIP3    H277334   3.721   1.748  29.590 -1.1493  0.3589 -0.6603
18615TIP3   OH277335   2.298   0.690  30.667  0.1044 -0.1625  0.6534
18615TIP3    H177336   2.231   0.623  30.665  0.7684 -0.8192 -0.0985
18615TIP3    H277337   2.306   0.720  30.576 -0.7244  1.4988  1.0835
18616TIP3   OH277338   2.735   0.299  40.886 -0.4749  0.0485 -0.0063
18616TIP3    H177339   2.829   0.310  40.877 -0.4247 -0.2094  0.2133
18616TIP3    H277340   2.704   0.289  40.796 -0.0650 -1.6881  0.0038
18617TIP3   OH277341   3.617   4.125  23.839  0.8869  0.4653 -0.2545
18617TIP3    H177342   3.679   4.158  23.903  1.2612  1.9610 -1.3226
18617TIP3    H277343   3.536   4.112  23.888  1.2388  1.3044  0.5674
18618TIP3   OH277344   0.896   1.516  37.232 -0.6339  0.3044 -0.2037
18618TIP3    H177345   0.800   1.526  37.237 -0.6930  0.2252 -1.0216
18618TIP3    H277346   0.930   1.604  37.242 -0.7918  0.3329  0.0954
18619TIP3   OH277347   1.887   2.726  29.632  0.3157  0.4677  0.2275
18619TIP3    H177348   1.826   2.781  29.681  1.5702  2.6226 -0.4858
18619TIP3    H277349   1.869   2.745  29.540  1.3072  0.3018 -0.0176
18620TIP3   OH277350   0.251   3.420  39.537  1.3275 -0.5071  0.0121
18620TIP3    H177351   0.209   3.506  39.540  0.1326 -0.8017 -3.2431
18620TIP3    H277352   0.177   3.359  39.529  2.2073 -1.6218  0.2545
18621TIP3   OH277353   2.940   3.736  31.762 -0.4683  1.0894  0.1788
18621TIP3    H177354   2.857   3.784  31.765  0.5775  2.9608  0.0521
18621TIP3    H277355   2.982   3.756  31.846  0.0424  0.4578  0.0807
18622TIP3   OH277356   3.724   0.423  11.666  0.0884  0.5251  0.2698
18622TIP3    H177357   3.809   0.400  11.628  0.4920  0.1904  1.3313
18622TIP3    H277358   3.665   0.353  11.636  0.1471  0.8456 -0.6016
18623TIP3   OH277359   2.993   0.216  38.907 -0.0694 -0.0374  0.6186
18623TIP3    H177360   3.030   0.279  38.845  0.9849 -1.0698  0.1663
18623TIP3    H277361   2.906   0.251  38.928 -0.0055  0.8979 -0.5833
18624TIP3   OH277362   3.247   2.604   4.176  0.2039 -0.0229 -0.4237
18624TIP3    H177363   3.312   2.577   4.241  0.1048  1.3448  0.2821
18624TIP3    H277364   3.270   2.554   4.097  0.1731 -1.8984  0.7013
18625TIP3   OH277365   0.895   2.246  26.803 -0.2837  0.1933 -0.3851
18625TIP3    H177366   0.920   2.153  26.811 -0.6895  0.0592 -0.6274
18625TIP3    H277367   0.820   2.245  26.743 -0.0629  0.7142 -0.6786
18626TIP3   OH277368   2.025   0.260  31.538  0.4017 -0.1011  0.4187
18626TIP3    H177369   2.065   0.313  31.469 -0.3740  1.3119  1.0086
18626TIP3    H277370   1.961   0.206  31.492  0.7164 -0.0158 -0.1224
18627TIP3   OH277371   2.065   3.317   8.343 -0.0920 -0.0015  0.0586
18627TIP3    H177372   2.060   3.412   8.339  1.3749  0.0666 -0.9268
18627TIP3    H277373   2.069   3.297   8.437 -0.1624  0.9112  0.2681
18628TIP3   OH277374   2.283   0.669   3.872  0.1114 -0.1431 -0.3305
18628TIP3    H177375   2.192   0.642   3.878  0.5198 -1.2331  1.9334
18628TIP3    H277376   2.303   0.708   3.957  1.6833  0.3120 -0.8630
18629TIP3   OH277377   2.315   1.655  34.756  0.2423  0.3043  0.1363
18629TIP3    H177378   2.267   1.634  34.836  1.5209  0.6228  1.0236
18629TIP3    H277379   2.247   1.672  34.691 -0.8271 -0.4510  1.0147
18630TIP3   OH277380   2.715   2.213  26.968  0.1318  1.1684 -0.0274
18630TIP3    H177381   2.650   2.256  26.914  1.3309  1.7118 -1.0942
18630TIP3    H277382   2.732   2.129  26.925 -0.7685  0.4479  0.9592
18631TIP3   OH277383   0.661   3.081  33.126  0.3531 -0.3081  0.3274
18631TIP3    H177384   0.723   3.074  33.198 -0.1284 -1.4988  0.6449
18631TIP3    H277385   0.580   3.043  33.159 -0.0979 -0.1849 -0.5893
18632TIP3   OH277386   2.674   1.619   1.335 -0.3022 -0.1361 -0.0114
18632TIP3    H177387   2.723   1.553   1.384  2.0994  0.4962 -1.4305
18632TIP3    H277388   2.598   1.572   1.302 -1.4453 -0.8662  3.2493
18633TIP3   OH277389   4.156   3.590  31.094 -0.0363  1.0522  0.1245
18633TIP3    H177390   4.165   3.673  31.048  0.9394  0.9656  0.1498
18633TIP3    H277391   4.062   3.573  31.094 -0.1151  1.3628 -1.3000
18634TIP3   OH277392   3.375   1.751   6.489 -0.4761 -0.5015  0.4734
18634TIP3    H177393   3.428   1.693   6.433 -1.1125  0.3637 -1.0801
18634TIP3    H277394   3.409   1.839   6.471 -1.6813 -0.0567  0.3060
18635TIP3   OH277395   1.286   2.919  33.109  0.0293 -0.3392 -0.4780
18635TIP3    H177396   1.250   2.881  33.029  0.4358  1.7657 -1.7354
18635TIP3    H277397   1.285   2.847  33.172 -2.1693 -1.5346 -1.7536
18636TIP3   OH277398   1.083   2.642  37.326 -0.4598 -0.1295  0.4036
18636TIP3    H177399   1.060   2.685  37.244  1.0883 -0.8852 -0.4858
18636TIP3    H277400   1.087   2.549  37.304  0.9270 -0.2577  1.0636
18637TIP3   OH277401   0.217   2.479  27.811  0.2309 -0.7025  0.5386
18637TIP3    H177402   0.235   2.503  27.902 -1.4154 -0.9249  0.9374
18637TIP3    H277403   0.190   2.388  27.815 -1.0431 -0.3655 -0.0037
18638TIP3   OH277404   0.325   2.308  10.421  0.6497 -0.1100 -0.2328
18638TIP3    H177405   0.317   2.383  10.363  1.1958 -0.1133 -0.3114
18638TIP3    H277406   0.415   2.310  10.452  0.5324 -0.4544  0.1453
18639TIP3   OH277407   4.229   3.110   1.052  0.2664  0.1287  0.4051
18639TIP3    H177408   4.148   3.079   1.012  1.1251 -0.7707 -0.7064
18639TIP3    H277409   4.225   3.206   1.043 -0.4067  0.0551 -0.1695
18640TIP3   OH277410   3.823   3.249  21.605 -0.4569 -0.2495 -0.1178
18640TIP3    H177411   3.732   3.219  21.616 -0.1339 -0.6924  1.5702
18640TIP3    H277412   3.873   3.168  21.594 -0.0410 -0.1247  0.7972
18641TIP3   OH277413   0.570   4.396  27.262  0.1036 -0.2495 -0.4261
18641TIP3    H177414   0.475   4.386  27.256  0.0908 -1.4077  1.0452
18641TIP3    H277415   0.587   4.403  27.356  1.3094  1.9805 -0.7375
18642TIP3   OH277416   2.330   3.731  40.434  0.0968 -0.1091 -0.0632
18642TIP3    H177417   2.411   3.700  40.394 -1.0775 -0.6823 -2.1345
18642TIP3    H277418   2.304   3.660  40.493  1.3927  0.3678  1.1469
18643TIP3   OH277419   3.514   2.110  36.921  0.3069  0.0034 -0.4802
18643TIP3    H177420   3.603   2.076  36.923  0.7460  1.1330  0.1882
18643TIP3    H277421   3.478   2.077  36.838  1.1783 -0.8444 -0.5449
18644TIP3   OH277422   0.226   1.075  41.237  0.1260  0.4176 -0.2207
18644TIP3    H177423   0.154   1.036  41.187  0.3587  0.2311 -0.4119
18644TIP3    H277424   0.250   1.153  41.187 -1.4433  1.7797  1.0252
18645TIP3   OH277425   3.777   1.996  38.634  0.4561  0.8891  0.1609
18645TIP3    H177426   3.818   2.077  38.666  0.2823  1.3415 -0.7268
18645TIP3    H277427   3.814   1.927  38.688  0.7217  1.5491  0.8332
18646TIP3   OH277428   1.649   3.431  37.645  0.2157  0.6265 -0.0843
18646TIP3    H177429   1.604   3.358  37.687 -0.0594  2.4147  3.0050
18646TIP3    H277430   1.741   3.404  37.641 -0.2590 -0.9503 -1.6618
18647TIP3   OH277431   2.191   3.356  11.848 -0.4060  0.2202 -0.5824
18647TIP3    H177432   2.212   3.441  11.810  1.8073 -0.3866 -0.8352
18647TIP3    H277433   2.141   3.310  11.781 -3.8601  2.1243  0.4555
18648TIP3   OH277434   3.717   4.247  33.204 -0.3466  0.0885 -0.2473
18648TIP3    H177435   3.641   4.275  33.255  2.0436  1.0189  3.1119
18648TIP3    H277436   3.696   4.157  33.178 -2.0206 -0.2164  1.8535
18649TIP3   OH277437   3.876   1.019  23.843 -0.5873 -0.1964  0.1893
18649TIP3    H177438   3.876   0.989  23.934  0.9075 -0.8246  0.0245
18649TIP3    H277439   3.852   0.942  23.792 -1.2823  0.1178  0.0333
18650TIP3   OH277440   1.265   3.347  38.547  0.0700  0.2139  0.2764
18650TIP3    H177441   1.263   3.266  38.497 -0.1205  0.2080  0.2938
18650TIP3    H277442   1.291   3.321  38.635  1.1622  0.3184  0.0039
18651TIP3   OH277443   2.887   2.202  12.469 -0.4024 -0.8570  0.3177
18651TIP3    H177444   2.808   2.178  12.420 -0.4395 -0.3511  0.1274
18651TIP3    H277445   2.892   2.138  12.540 -0.0245 -1.9879 -0.6884
18652TIP3   OH277446   0.795   1.014   5.201  0.1056  0.7236  0.0986
18652TIP3    H177447   0.887   0.992   5.217 -0.3770  0.3765  2.8277
18652TIP3    H277448   0.798   1.085   5.137  2.4124  2.1113  1.6026
18653TIP3   OH277449   1.743   1.049  27.626  0.1047  0.0746 -0.5522
18653TIP3    H177450   1.657   1.064  27.586  0.0989 -1.2359 -1.0826
18653TIP3    H277451   1.732   1.079  27.717 -0.1207  2.3366 -1.2612
18654TIP3   OH277452   2.813   4.119  35.782  0.4675  0.5940  0.1532
18654TIP3    H177453   2.907   4.106  35.774  0.2486 -0.6862 -0.7833
18654TIP3    H277454   2.778   4.083  35.700 -0.9194 -0.0534  0.9976
18655TIP3   OH277455   0.321   1.134  32.013 -0.0791  0.1682  0.3955
18655TIP3    H177456   0.313   1.226  31.989  1.7306  0.3544  0.3636
18655TIP3    H277457   0.415   1.116  32.005  0.2434 -0.6013  4.2395
18656TIP3   OH277458   2.987   3.314   7.403  0.2873  0.2897  0.1309
18656TIP3    H177459   3.018   3.223   7.401 -1.7614 -0.4571 -1.3141
18656TIP3    H277460   2.968   3.331   7.495 -0.6993 -1.2812  0.2467
18657TIP3   OH277461   0.128   1.614   2.930  0.1214 -0.0213 -0.2586
18657TIP3    H177462   0.146   1.618   2.836 -0.5510  0.5802 -0.3730
18657TIP3    H277463   0.032   1.613   2.935  0.1494  0.5142  0.4430
18658TIP3   OH277464   4.008   1.552   9.827  0.5238 -0.4180  0.1801
18658TIP3    H177465   3.985   1.502   9.905  2.4906 -1.4914  0.1176
18658TIP3    H277466   3.931   1.543   9.770  0.3848 -2.5037  0.6061
18659TIP3   OH277467   4.168   2.635   0.281  0.3531 -0.0426  0.7274
18659TIP3    H177468   4.209   2.552   0.308 -0.2034  0.3194  2.8589
18659TIP3    H277469   4.078   2.628   0.311 -0.5707  0.1690 -1.7729
18660TIP3   OH277470   1.826   2.077  15.124 -0.6213  0.2978  0.0774
18660TIP3    H177471   1.855   1.986  15.128  0.5635  0.4478 -2.7793
18660TIP3    H277472   1.736   2.072  15.091 -0.7695  0.1633  0.4907
18661TIP3   OH277473   3.942   2.210  35.699 -0.0469 -0.0495 -0.0069
18661TIP3    H177474   4.015   2.270  35.685 -1.0093  1.4905  1.1269
18661TIP3    H277475   3.923   2.218  35.793 -2.4301  0.5644 -0.4846
18662TIP3   OH277476   3.574   0.099   8.808  0.1797 -0.2293  0.2056
18662TIP3    H177477   3.489   0.120   8.769  0.6091  0.8801 -0.1626
18662TIP3    H277478   3.586   0.006   8.790  0.9778  0.4497 -3.5970
18663TIP3   OH277479   0.053   0.742   6.389 -0.3391 -0.7603  0.4303
18663TIP3    H177480   0.020   0.664   6.434  0.8548 -1.8861 -0.5758
18663TIP3    H277481  -0.026   0.786   6.356 -1.0135 -1.7305  0.7035
18664TIP3   OH277482   3.741   0.279  36.425  0.3547 -0.1363 -0.5775
18664TIP3    H177483   3.659   0.250  36.385  1.1526 -0.4455 -2.0668
18664TIP3    H277484   3.773   0.347  36.366  0.1517  1.4959  1.1240
18665TIP3   OH277485   0.744   0.198   3.532 -0.3074 -0.5934 -0.2129
18665TIP3    H177486   0.682   0.212   3.604  0.8600  2.5475  0.3251
18665TIP3    H277487   0.818   0.152   3.573  0.0287  0.5116  0.4482
18666TIP3   OH277488   4.002   0.116   6.481  0.6273 -0.0997 -0.0123
18666TIP3    H177489   3.996   0.060   6.404 -2.2229  0.5463 -0.3738
18666TIP3    H277490   4.033   0.059   6.551 -1.0145 -1.8723 -0.6444
18667TIP3   OH277491   1.655   3.738  27.090 -0.7321 -0.2469  0.1316
18667TIP3    H177492   1.699   3.741  27.005  2.1477 -0.9743  1.4795
18667TIP3    H277493   1.601   3.817  27.091 -1.5523 -0.6720 -2.6854
18668TIP3   OH277494   1.428   2.472  34.190 -0.0700  0.6259  0.1227
18668TIP3    H177495   1.420   2.446  34.282  1.5759 -0.5542 -0.0319
18668TIP3    H277496   1.389   2.559  34.187  0.2056  0.8676  2.0278
18669TIP3   OH277497   1.098   2.648  12.001  0.1924 -0.3956 -0.2691
18669TIP3    H177498   1.176   2.665  11.948  0.0259  0.4701 -0.2568
18669TIP3    H277499   1.028   2.697  11.957 -0.1789 -0.5429  0.1511
18670TIP3   OH277500   2.491   3.790  36.804 -0.0404  0.2215 -0.3310
18670TIP3    H177501   2.406   3.749  36.785 -0.6398  0.6919  1.0971
18670TIP3    H277502   2.539   3.786  36.722 -1.1142 -0.8637 -0.9483
18671TIP3   OH277503   0.889   1.411  39.487 -0.2161  0.2242 -0.5011
18671TIP3    H177504   0.895   1.327  39.441 -1.3996  0.7317 -1.6415
18671TIP3    H277505   0.809   1.452  39.453 -0.0742  1.4865  0.5941
18672TIP3   OH277506   3.161   0.449  31.005 -0.0769  0.1964  0.3084
18672TIP3    H177507   3.168   0.417  30.916  1.3011 -0.6419  0.6936
18672TIP3    H277508   3.067   0.468  31.016 -0.5440 -1.2981 -0.7590
18673TIP3   OH277509   4.047   0.332   5.987  0.2221 -0.3099 -0.2890
18673TIP3    H177510   4.131   0.289   6.001  1.9423  2.9795  0.7110
18673TIP3    H277511   4.024   0.366   6.073 -2.5841 -1.6957 -0.3963
18674TIP3   OH277512   0.183   3.808   6.982 -0.5982 -0.1218  0.0311
18674TIP3    H177513   0.276   3.786   6.975 -0.1659  1.5092  0.1020
18674TIP3    H277514   0.146   3.740   7.039  0.7412 -0.2857  0.7548
18675TIP3   OH277515   3.450   1.658  37.596 -0.2043  0.2188  0.1370
18675TIP3    H177516   3.467   1.563  37.598 -0.1308  0.1602 -1.6322
18675TIP3    H277517   3.373   1.669  37.651  0.3339 -0.7166  1.1519
18676TIP3   OH277518   3.800   1.560   3.542  0.4432 -0.2618  0.1033
18676TIP3    H177519   3.706   1.575   3.550  0.5780  0.3960  0.5148
18676TIP3    H277520   3.834   1.573   3.630  0.7037 -2.1451  0.3217
18677TIP3   OH277521   0.268   1.387   9.480 -0.2744 -0.0447  0.1454
18677TIP3    H177522   0.222   1.469   9.499  0.7405  0.8883 -1.2066
18677TIP3    H277523   0.224   1.322   9.534 -0.3925  1.5812  2.1611
18678TIP3   OH277524   4.009   0.505  13.476  0.2032 -0.8995 -0.1875
18678TIP3    H177525   3.981   0.491  13.566 -1.6642  1.0232 -0.3797
18678TIP3    H277526   3.932   0.486  13.423  0.4143  0.6450 -1.1123
18679TIP3   OH277527   3.817   0.551  36.968 -0.2317  0.0250 -0.3596
18679TIP3    H177528   3.725   0.580  36.971 -0.1481  0.4809 -1.6438
18679TIP3    H277529   3.812   0.458  36.949 -0.4352 -0.0345 -0.0230
18680TIP3   OH277530   3.603   3.511  40.640  0.5157 -0.2870 -0.3498
18680TIP3    H177531   3.519   3.493  40.599  0.2828 -1.6836  0.6465
18680TIP3    H277532   3.597   3.601  40.671 -0.1727 -0.0043 -1.2852
18681TIP3   OH277533   2.278   1.765   5.208 -0.5823 -0.5680 -0.2764
18681TIP3    H177534   2.287   1.813   5.290 -0.6687 -2.2276  0.7378
18681TIP3    H277535   2.313   1.825   5.141  0.0502  0.5675  1.0329
18682TIP3   OH277536   2.576   0.216  31.611 -0.0283 -0.2376  0.0612
18682TIP3    H177537   2.481   0.203  31.606  0.0577 -0.5323 -1.0543
18682TIP3    H277538   2.593   0.291  31.554  0.2620  0.7286  1.3712
18683TIP3   OH277539   2.226   1.118  35.914 -0.5712 -0.2277 -0.1728
18683TIP3    H177540   2.274   1.044  35.875 -0.6838  0.0677 -0.8760
18683TIP3    H277541   2.142   1.080  35.940 -1.1277 -0.0750 -1.6852
18684TIP3   OH277542   0.207   1.733   8.909 -0.7153  0.1313  0.1107
18684TIP3    H177543   0.264   1.707   8.838 -1.9611 -1.4324 -0.3711
18684TIP3    H277544   0.124   1.687   8.892 -0.9515 -0.5816  2.7187
18685TIP3   OH277545   4.312   2.486   3.712  0.5362 -0.1663  0.4942
18685TIP3    H177546   4.336   2.523   3.627  0.6911  0.1012  0.6533
18685TIP3    H277547   4.237   2.538   3.740 -0.5143 -1.2615 -0.1905
18686TIP3   OH277548   1.911   1.786  15.112  0.2859 -0.0733  0.5191
18686TIP3    H177549   1.951   1.758  15.030 -0.0606  1.1534 -0.0931
18686TIP3    H277550   1.848   1.718  15.133  0.8578 -0.7325  0.1341
18687TIP3   OH277551   4.104   1.563  40.541 -0.5840  0.5917  0.3784
18687TIP3    H177552   4.146   1.554  40.626 -1.1927 -1.0274  0.5545
18687TIP3    H277553   4.156   1.507  40.483 -0.9743  0.6035  0.0147
18688TIP3   OH277554   4.073   2.336  30.427 -0.1250 -0.5524  0.2459
18688TIP3    H177555   4.118   2.287  30.496  0.3705 -0.5453 -0.0633
18688TIP3    H277556   3.990   2.291  30.415 -0.7367  0.1431  1.6734
18689TIP3   OH277557   3.896   2.580  41.536  0.2798  0.0593 -0.4758
18689TIP3    H177558   3.868   2.623  41.455 -1.2373 -1.7072 -0.9535
18689TIP3    H277559   3.875   2.643  41.605 -0.1539  0.8372 -1.2911
18690TIP3   OH277560   1.938   0.750   6.890 -0.3450 -0.9851 -0.2111
18690TIP3    H177561   1.971   0.832   6.926  1.5584 -2.7148  2.2947
18690TIP3    H277562   1.842   0.760   6.892 -0.1701  1.2226 -0.2508
18691TIP3   OH277563   4.231   3.789  41.529 -0.2266  0.0918  0.4203
18691TIP3    H177564   4.231   3.724  41.599  1.7906 -2.5720 -1.8529
18691TIP3    H277565   4.321   3.820  41.525 -0.2580  0.0446 -1.1135
18692TIP3   OH277566   2.740   3.968  28.702 -0.0748 -0.1078  0.4868
18692TIP3    H177567   2.796   3.890  28.700 -0.1835 -0.2132 -1.7201
18692TIP3    H277568   2.654   3.937  28.674 -0.3159  0.6450  0.3611
18693TIP3   OH277569   3.994   0.336  37.068  0.2730 -0.2131 -0.1181
18693TIP3    H177570   4.028   0.424  37.085  0.8994 -0.6416  1.0010
18693TIP3    H277571   3.942   0.316  37.146  0.0687 -0.8033 -0.4040
18694TIP3   OH277572   3.241   2.589  37.584  0.3854  0.4450 -0.7061
18694TIP3    H177573   3.232   2.535  37.663 -2.6193 -0.8355 -1.7783
18694TIP3    H277574   3.317   2.554  37.539  1.0155 -0.0608  0.6956
18695TIP3   OH277575   3.311   3.587   5.311  0.0009 -0.8384  0.3972
18695TIP3    H177576   3.312   3.635   5.393 -1.0144  1.2987 -0.7583
18695TIP3    H277577   3.274   3.501   5.334 -1.8312  0.2728  1.9247
18696TIP3   OH277578   2.982   2.238   0.018  0.0528 -0.4932  0.0409
18696TIP3    H177579   3.048   2.213  -0.046 -0.6652 -0.5498 -0.7052
18696TIP3    H277580   2.899   2.234  -0.030 -0.6515 -1.6204  1.2578
18697TIP3   OH277581   2.486   1.016   6.093  0.2203 -0.3250 -0.0337
18697TIP3    H177582   2.565   0.980   6.052  0.2573 -0.6310  0.3006
18697TIP3    H277583   2.498   1.110   6.088 -0.3773 -0.2996 -1.9069
18698TIP3   OH277584   1.334   3.886  39.312  0.1269 -0.5398 -0.1138
18698TIP3    H177585   1.295   3.871  39.398  0.7611  1.0917  0.4996
18698TIP3    H277586   1.263   3.920  39.259 -0.0317 -0.5775  0.0754
18699TIP3   OH277587   4.055   1.935  10.659  0.1458 -0.2175 -0.2306
18699TIP3    H177588   4.057   2.009  10.598  3.7792 -1.8608 -2.4662
18699TIP3    H277589   4.126   1.954  10.721  0.1367 -1.1317  0.0732
18700TIP3   OH277590   3.122   4.379   8.516 -0.3522  0.7644  0.2694
18700TIP3    H177591   3.215   4.358   8.509 -0.0511  1.4911  1.6624
18700TIP3    H277592   3.119   4.475   8.513 -1.0558  0.7419  0.1929
18701TIP3   OH277593   1.451   2.618  30.047 -0.4745 -0.2476  0.0020
18701TIP3    H177594   1.358   2.618  30.027 -0.0655 -0.1571 -2.1759
18701TIP3    H277595   1.478   2.527  30.036 -0.4256 -0.4253  1.4188
18702TIP3   OH277596   0.778   0.700  28.144  0.2788 -0.2812  0.0513
18702TIP3    H177597   0.730   0.658  28.073  1.1586 -0.5046 -0.4327
18702TIP3    H277598   0.869   0.705  28.112  1.3761 -3.0659  2.2880
18703TIP3   OH277599   3.640   2.140  10.639  0.7075 -0.4462 -0.9947
18703TIP3    H177600   3.633   2.061  10.693  2.2532 -0.5596 -0.9125
18703TIP3    H277601   3.553   2.179  10.643  0.4416 -1.1188  0.5555
18704TIP3   OH277602   2.845   1.474   6.856  0.2347  0.2135 -0.4270
18704TIP3    H177603   2.929   1.470   6.810  1.6783  0.6803  2.0090
18704TIP3    H277604   2.816   1.565   6.844 -0.3562 -0.1416 -1.9088
18705TIP3   OH277605   4.213   0.832   3.113 -0.5881  0.1705 -0.1612
18705TIP3    H177606   4.175   0.889   3.180 -1.4139 -1.0371  0.4128
18705TIP3    H277607   4.192   0.876   3.030 -4.8776 -1.2548 -0.0523
18706TIP3   OH277608   2.019   4.067  37.274  0.2339  0.1503 -0.1286
18706TIP3    H177609   2.113   4.048  37.268 -0.0152 -0.9206 -0.8808
18706TIP3    H277610   1.986   4.007  37.341  0.2845  1.3935  1.0524
18707TIP3   OH277611   3.270   2.519   3.911  0.0370  0.2136  0.5286
18707TIP3    H177612   3.320   2.454   3.861 -0.7817 -0.4772  0.5758
18707TIP3    H277613   3.268   2.596   3.855  1.5272  0.4174  0.7209
18708TIP3   OH277614   0.151   3.129  10.084 -0.3658 -0.5279  0.6714
18708TIP3    H177615   0.116   3.175  10.007  1.7133  0.5697  0.3167
18708TIP3    H277616   0.197   3.054  10.048  0.1016 -0.3452  0.8818
18709TIP3   OH277617   1.401   2.122  36.447 -0.1914 -0.1500  0.6307
18709TIP3    H177618   1.333   2.055  36.437 -0.4284  0.0496  0.9057
18709TIP3    H277619   1.483   2.077  36.425 -0.5748  0.0135 -1.2731
18710TIP3   OH277620   2.579   1.541  32.971 -0.1056 -0.0351 -0.4105
18710TIP3    H177621   2.584   1.446  32.960 -2.0383 -0.1218 -0.8664
18710TIP3    H277622   2.670   1.570  32.973  0.5144 -1.8851 -0.3389
18711TIP3   OH277623   4.277   3.783  12.269 -0.3053 -0.0496  0.0761
18711TIP3    H177624   4.331   3.837  12.326  0.9079  0.4074 -1.4590
18711TIP3    H277625   4.338   3.722  12.228 -1.3509 -1.2577  0.2356
18712TIP3   OH277626   0.039   3.729  23.704 -0.2475  0.3044 -0.1505
18712TIP3    H177627   0.034   3.718  23.609  3.5819 -0.2492 -0.4784
18712TIP3    H277628  -0.013   3.657  23.739 -0.1195 -0.7023 -1.8928
18713TIP3   OH277629   1.668   1.228  27.337 -0.0047  0.2209  0.2291
18713TIP3    H177630   1.758   1.262  27.333 -0.4753  1.4838 -0.0299
18713TIP3    H277631   1.614   1.306  27.349 -1.0590 -0.5500  0.6137
18714TIP3   OH277632   2.567   3.505  32.370 -0.1358 -0.6519 -0.3917
18714TIP3    H177633   2.586   3.508  32.464 -1.2518 -2.4984 -0.0533
18714TIP3    H277634   2.476   3.534  32.363  0.1773  0.1947 -0.9973
18715TIP3   OH277635   2.891   0.043  30.843 -0.2802  0.2334  0.0782
18715TIP3    H177636   2.815   0.073  30.892 -0.7564 -0.1195 -0.4321
18715TIP3    H277637   2.860  -0.034  30.795 -0.3559  1.5842 -2.1871
18716TIP3   OH277638   0.665   3.022  26.649  0.1362  0.4077 -0.1006
18716TIP3    H177639   0.597   3.077  26.609 -0.1750 -0.9164 -1.4564
18716TIP3    H277640   0.745   3.073  26.640 -0.4012  1.3207  0.1173
18717TIP3   OH277641   3.007   0.423   8.424  0.1507 -0.2372 -0.2273
18717TIP3    H177642   2.997   0.448   8.332 -0.9404  1.3325  0.2719
18717TIP3    H277643   3.088   0.466   8.451  0.5484 -0.8178 -0.4783
18718TIP3   OH277644   0.325   4.147  34.362 -0.0439 -0.3778 -0.1101
18718TIP3    H177645   0.314   4.055  34.338  0.1899  0.3136 -3.3685
18718TIP3    H277646   0.396   4.179  34.305  1.6707  1.2752  2.7096
18719TIP3   OH277647   2.920   3.187  10.785  0.4169 -0.3640  0.1289
18719TIP3    H177648   2.915   3.123  10.713 -0.2541 -1.6300  1.2565
18719TIP3    H277649   2.864   3.259  10.757  0.3693 -0.7210 -0.7228
18720TIP3   OH277650   4.260   3.321  26.902  0.5698  0.3120 -0.3202
18720TIP3    H177651   4.280   3.241  26.951 -0.7145 -0.3071 -0.7572
18720TIP3    H277652   4.212   3.290  26.824  1.7740  1.3449 -1.5180
18721TIP3   OH277653   1.574   3.028  34.516  0.1387  0.4117 -0.9123
18721TIP3    H177654   1.497   3.084  34.510 -0.7832 -0.3642  1.9396
18721TIP3    H277655   1.648   3.088  34.504 -0.8632  1.4116 -2.3336
18722TIP3   OH277656   2.119   4.100  13.743  0.1502  0.0371  0.1505
18722TIP3    H177657   2.098   4.007  13.739 -1.0735  0.2528  0.9488
18722TIP3    H277658   2.164   4.111  13.827 -1.7704  0.5149  1.1624
18723TIP3   OH277659   0.041   0.307   9.811  0.5586 -0.2887 -0.0761
18723TIP3    H177660   0.128   0.345   9.796  1.6770 -2.3315  0.7845
18723TIP3    H277661   0.010   0.283   9.724 -0.7708  3.5396 -0.8365
18724TIP3   OH277662   1.094   3.837  37.437  0.1868 -0.6431  0.1453
18724TIP3    H177663   1.014   3.831  37.490  0.0655  1.9400  0.3925
18724TIP3    H277664   1.159   3.787  37.486 -0.4353  0.0449  1.7648
18725TIP3   OH277665   0.700   3.649  32.336 -0.8178  0.1337  0.0726
18725TIP3    H177666   0.706   3.699  32.417  0.5785  0.8260 -0.4120
18725TIP3    H277667   0.617   3.602  32.342 -1.1978  0.9335  1.4571
18726TIP3   OH277668   1.079   2.297   3.616  0.6067  0.7877  0.0297
18726TIP3    H177669   1.044   2.325   3.701  0.1600  0.5939 -0.0876
18726TIP3    H277670   1.017   2.331   3.552  1.1018  1.1859 -0.2415
18727TIP3   OH277671   0.692   0.441  30.464  0.0604  0.3270  0.3031
18727TIP3    H177672   0.656   0.470  30.547 -1.3335  0.1542 -0.2045
18727TIP3    H277673   0.653   0.354  30.450 -0.5082  0.7583 -0.9713
18728TIP3   OH277674   3.506   0.465  40.071  0.0969  0.2227 -0.2055
18728TIP3    H177675   3.531   0.557  40.059  0.5892  0.0285 -0.6909
18728TIP3    H277676   3.582   0.415  40.042  0.9358 -0.3325  2.6187
18729TIP3   OH277677   1.245   1.280  11.590  0.5887 -0.0512 -0.3549
18729TIP3    H177678   1.157   1.247  11.571  0.7186 -0.9861  0.5686
18729TIP3    H277679   1.263   1.341  11.519 -1.5280  1.5977  0.3979
18730TIP3   OH277680   2.101   0.613  27.709 -0.2067 -0.5397 -0.3135
18730TIP3    H177681   2.071   0.574  27.626 -1.8596 -1.2515  0.5830
18730TIP3    H277682   2.031   0.672  27.735  0.5571  0.1029  0.3114
18731TIP3   OH277683   0.277   1.392   4.764 -0.0464  0.4443 -0.1544
18731TIP3    H177684   0.343   1.327   4.788  1.5293  2.2036  0.5357
18731TIP3    H277685   0.223   1.349   4.698  0.2456 -1.9079  1.0515
18732TIP3   OH277686   4.253   3.956   5.431  0.2088  0.8334 -0.0859
18732TIP3    H177687   4.343   3.983   5.454  1.6277 -3.1503 -0.1890
18732TIP3    H277688   4.202   3.974   5.510  1.6543  0.9859  0.8581
18733TIP3   OH277689   1.090   0.074  37.215  0.4385  0.2922 -0.3100
18733TIP3    H177690   1.100   0.168  37.198  0.8525  0.3642  0.3127
18733TIP3    H277691   1.175   0.037  37.193  0.2552  0.0458 -0.6186
18734TIP3   OH277692   4.325   3.120  31.673  0.2935  0.2802  0.0500
18734TIP3    H177693   4.235   3.091  31.686 -0.3590  1.5307 -1.3127
18734TIP3    H277694   4.351   3.156  31.757 -0.4081 -0.2604  0.5096
18735TIP3   OH277695   2.009   2.949  13.386  0.1205 -0.4650 -0.7016
18735TIP3    H177696   2.094   2.916  13.416 -0.3573 -0.7845  0.3418
18735TIP3    H277697   2.030   3.026  13.334  1.0042  0.0471  0.3820
18736TIP3   OH277698   2.331   2.127  33.533 -0.2828 -0.6747  0.3617
18736TIP3    H177699   2.237   2.109  33.536 -0.2981 -0.4722  1.6862
18736TIP3    H277700   2.340   2.215  33.570  0.4046 -0.5447 -0.0912
18737TIP3   OH277701   3.729   0.597   2.735  0.0398  0.0995 -0.1450
18737TIP3    H177702   3.638   0.577   2.757 -0.5619  1.8705 -0.8373
18737TIP3    H277703   3.735   0.692   2.744  2.2133 -0.1123  1.2041
18738TIP3   OH277704   2.425   2.900  40.904 -0.2230 -0.2828 -0.1829
18738TIP3    H177705   2.351   2.841  40.918 -0.1309 -0.1968  0.7591
18738TIP3    H277706   2.409   2.938  40.818 -0.5710 -1.2634 -0.5646
18739TIP3   OH277707   1.552   0.836  13.101  0.7523 -0.0168 -0.1091
18739TIP3    H177708   1.577   0.907  13.042 -0.3797  0.4990  0.0083
18739TIP3    H277709   1.468   0.864  13.138  1.0516 -0.6922  1.1448
18740TIP3   OH277710   3.630   2.605  40.281 -0.2224  0.3281  0.4096
18740TIP3    H177711   3.576   2.558  40.344 -0.3794  0.9201  0.7247
18740TIP3    H277712   3.572   2.620  40.206  0.0874 -0.7397 -0.0567
18741TIP3   OH277713   2.279   4.381  27.584 -0.1872 -0.1063 -0.3926
18741TIP3    H177714   2.309   4.294  27.610  0.2596  0.4763  1.1926
18741TIP3    H277715   2.297   4.386  27.490  1.2616 -1.1497 -0.2112
18742TIP3   OH277716   0.177   2.976  37.465 -0.0824 -0.0196  0.0980
18742TIP3    H177717   0.084   2.955  37.471  0.1016 -0.5393  1.2023
18742TIP3    H277718   0.198   2.965  37.372 -1.1738  0.3565 -0.2088
18743TIP3   OH277719   0.688   2.141  27.805  0.3691  0.4321 -0.6059
18743TIP3    H177720   0.751   2.134  27.877 -1.3886 -0.1364  0.9639
18743TIP3    H277721   0.629   2.212  27.831 -0.1788  0.3533 -1.5777
18744TIP3   OH277722   3.730   2.120  38.996 -0.6017 -0.2977 -0.1766
18744TIP3    H177723   3.755   2.209  38.973 -3.3778  0.1118 -2.1385
18744TIP3    H277724   3.758   2.109  39.087 -0.6754  2.7755  0.3005
18745TIP3   OH277725   1.111   2.610  17.844  0.1400 -0.3086 -0.3321
18745TIP3    H177726   1.173   2.666  17.799  0.9415 -1.0977 -0.2471
18745TIP3    H277727   1.039   2.668  17.869  0.6429  0.5358 -0.8068
18746TIP3   OH277728   1.060   0.375  35.752  0.7199 -0.6939 -0.1076
18746TIP3    H177729   0.999   0.378  35.825  1.5643 -0.0296  0.5937
18746TIP3    H277730   1.004   0.377  35.674 -0.1359  1.0747  0.5000
18747TIP3   OH277731   3.835   0.937  26.111  0.0540 -0.1682  0.7284
18747TIP3    H177732   3.803   0.909  26.197 -0.2335  0.2801  0.7693
18747TIP3    H277733   3.809   0.866  26.052 -1.1154  0.2243  0.7443
18748TIP3   OH277734   3.880   1.773  30.748 -0.3058  0.3190  0.5864
18748TIP3    H177735   3.894   1.730  30.832 -0.7955 -0.0750  0.4771
18748TIP3    H277736   3.928   1.719  30.685  0.5388  0.9406  0.6863
18749TIP3   OH277737   0.889   3.292  39.666 -0.6762  1.0648 -0.3944
18749TIP3    H177738   0.812   3.241  39.689 -0.6900  2.2115  2.4770
18749TIP3    H277739   0.854   3.378  39.640 -0.3933  1.6584  1.1306
18750TIP3   OH277740   3.810   2.711  32.423 -0.0158  0.3221 -0.0299
18750TIP3    H177741   3.732   2.760  32.398 -0.7200  1.3587  3.6419
18750TIP3    H277742   3.879   2.776  32.430  0.5282 -0.1723 -0.6025
18751TIP3   OH277743   3.240   3.397  41.144  0.4321  0.1330 -0.0473
18751TIP3    H177744   3.246   3.328  41.210  3.3416  0.5412  0.2502
18751TIP3    H277745   3.243   3.350  41.061  0.4829 -0.1874  0.1301
18752TIP3   OH277746   1.376   0.229  39.172  0.3241  0.7213 -1.1112
18752TIP3    H177747   1.353   0.155  39.228 -1.4236  1.1448 -1.2204
18752TIP3    H277748   1.424   0.288  39.230  1.2056 -0.1925 -0.8736
18753TIP3   OH277749   0.792   1.820   0.174  0.3700 -0.9637  0.3892
18753TIP3    H177750   0.704   1.833   0.209  0.2564 -1.0008  0.1211
18753TIP3    H277751   0.850   1.837   0.248  0.3013  2.1115 -0.1384
18754TIP3   OH277752   0.936   2.468  32.310 -0.3728  0.6557  0.0161
18754TIP3    H177753   0.888   2.421  32.377 -1.1769  2.1090  0.5107
18754TIP3    H277754   0.911   2.560  32.322  1.6043  1.3193 -0.4917
18755TIP3   OH277755   0.997   2.785  38.280 -0.4787 -0.0654 -0.6035
18755TIP3    H177756   1.031   2.705  38.321 -2.4759  0.2686  1.9768
18755TIP3    H277757   0.902   2.773  38.280 -0.6800  1.0881 -2.9559
18756TIP3   OH277758   3.301   3.153   0.052  0.0745  0.6352  0.2712
18756TIP3    H177759   3.269   3.114   0.134 -2.0088  0.0945 -0.7268
18756TIP3    H277760   3.302   3.080  -0.010  1.3567  1.0990 -0.2874
18757TIP3   OH277761   2.143   1.070   6.583  0.7543  0.0872  0.0185
18757TIP3    H177762   2.164   1.045   6.493 -0.9305 -1.5736  0.0177
18757TIP3    H277763   2.197   1.012   6.637  0.8891  0.2566  0.0646
18758TIP3   OH277764   1.485   0.452   1.630 -0.1303 -0.4274  0.1439
18758TIP3    H177765   1.550   0.504   1.583 -2.8081  0.6469 -2.7554
18758TIP3    H277766   1.512   0.362   1.617  0.4082 -0.0459 -1.7809
18759TIP3   OH277767   0.554   2.253  11.552  0.0081 -0.0083 -0.2812
18759TIP3    H177768   0.574   2.170  11.510 -2.9313  0.0819 -2.1459
18759TIP3    H277769   0.637   2.302  11.549  1.7894 -2.7119  0.7803
18760TIP3   OH277770   0.883   0.812  31.338 -0.0658 -0.6673 -0.7114
18760TIP3    H177771   0.958   0.809  31.397  1.1948 -0.9398 -2.2670
18760TIP3    H277772   0.812   0.846  31.392  1.0732 -0.7087  0.8943
18761TIP3   OH277773   1.958   3.138  33.929  0.2915 -1.0781  0.5663
18761TIP3    H177774   2.016   3.203  33.968 -1.5276  1.4851 -0.7384
18761TIP3    H277775   1.888   3.126  33.993 -0.1872 -0.5176  0.1628
18762TIP3   OH277776   1.918   1.626   5.836  0.5310 -0.7093 -0.3254
18762TIP3    H177777   1.964   1.708   5.820  0.7347 -0.6812  0.3481
18762TIP3    H277778   1.846   1.626   5.774  0.3556  0.1196 -0.1410
18763TIP3   OH277779   0.654   0.577  31.218  0.4177  0.4040 -0.0955
18763TIP3    H177780   0.749   0.576  31.229  0.5191 -2.2704 -0.4802
18763TIP3    H277781   0.640   0.557  31.126 -0.4825 -0.7772  0.2654
18764TIP3   OH277782   0.724   2.175   0.905  0.4688  0.7843 -0.1549
18764TIP3    H177783   0.644   2.185   0.853 -0.1192 -1.0208  0.3183
18764TIP3    H277784   0.794   2.169   0.841 -0.0187  0.4477 -0.6652
18765TIP3   OH277785   4.180   2.494  27.288 -0.2228 -0.2532  0.0708
18765TIP3    H177786   4.164   2.561  27.354 -0.1000 -0.1073 -0.0492
18765TIP3    H277787   4.094   2.476  27.250 -0.2902 -0.3203  0.2519
18766TIP3   OH277788   3.054   0.218  29.222 -0.6182 -0.0857 -0.4191
18766TIP3    H177789   3.121   0.150  29.221 -0.1979  0.2845  0.6516
18766TIP3    H277790   3.080   0.278  29.153  0.7634  0.5974  0.6448
18767TIP3   OH277791   0.170   0.732  32.734  0.4395 -0.2574  0.0067
18767TIP3    H177792   0.159   0.782  32.653 -1.9666  1.3861  1.2204
18767TIP3    H277793   0.093   0.676  32.738 -0.9335  1.6289  2.3573
18768TIP3   OH277794   0.392   4.394  30.604  0.5427  0.8350 -0.0873
18768TIP3    H177795   0.447   4.316  30.600 -1.5553 -0.7014 -0.8108
18768TIP3    H277796   0.453   4.467  30.615  2.7983 -0.6002 -2.2551
18769TIP3   OH277797   0.540   0.994  39.662  0.7376  0.2266  0.5283
18769TIP3    H177798   0.589   1.064  39.705  1.1355 -0.6218  1.5199
18769TIP3    H277799   0.608   0.937  39.626  0.4489  1.7668 -2.8176
18770TIP3   OH277800   0.416   4.231  11.917  0.5633 -0.0599 -0.8824
18770TIP3    H177801   0.463   4.212  11.998 -2.3845  2.7220  1.7552
18770TIP3    H277802   0.346   4.165  11.914 -1.4089  1.8239  0.8615
18771TIP3   OH277803   2.635   2.171   4.187 -0.2854  0.0941 -0.0897
18771TIP3    H177804   2.598   2.095   4.141 -2.2695  0.7545  0.2918
18771TIP3    H277805   2.564   2.235   4.187  1.1914  1.7923  0.0096
18772TIP3   OH277806   1.741   2.239   4.246  0.3240 -0.0538 -0.4938
18772TIP3    H177807   1.695   2.277   4.321  0.8782 -2.5360  1.2293
18772TIP3    H277808   1.833   2.256   4.264  0.4439 -0.4540 -0.7270
18773TIP3   OH277809   1.528   2.682  38.179  0.7030 -0.2892 -0.1018
18773TIP3    H177810   1.489   2.729  38.105  1.6026  1.1071  0.2643
18773TIP3    H277811   1.475   2.710  38.254  0.7467 -0.4888  0.0024
18774TIP3   OH277812   1.275   2.781  11.829 -0.0202  0.2342 -0.4077
18774TIP3    H177813   1.314   2.837  11.896  0.4139  0.1271 -0.5702
18774TIP3    H277814   1.345   2.766  11.766  0.0860 -1.0436 -0.0259
18775TIP3   OH277815   2.281   1.969  29.650  0.6220 -1.0262  0.1616
18775TIP3    H177816   2.216   2.017  29.599 -0.0871  0.1096  2.0338
18775TIP3    H277817   2.327   1.915  29.586 -1.3550 -0.9575 -1.4002
18776TIP3   OH277818   2.098   1.190  34.995  0.0849 -0.5646  0.2532
18776TIP3    H177819   2.177   1.234  35.026 -0.1996 -0.5003  0.9225
18776TIP3    H277820   2.085   1.224  34.907 -0.5341  1.3186  1.0012
18777TIP3   OH277821   3.648   0.156  40.127 -0.3384  0.6158  0.2151
18777TIP3    H177822   3.566   0.113  40.151 -0.3845  0.0830 -0.8137
18777TIP3    H277823   3.650   0.150  40.031 -0.9472  3.9978 -0.1374
18778TIP3   OH277824   4.365   3.969   6.960  0.1911  0.4496 -0.2207
18778TIP3    H177825   4.351   4.020   6.881  0.6104 -0.7535 -1.0973
18778TIP3    H277826   4.429   3.902   6.935  0.2061 -0.0598  1.0867
18779TIP3   OH277827   1.618   3.322  40.798 -0.0092  0.3189  0.0664
18779TIP3    H177828   1.615   3.334  40.893 -1.9865  1.2454 -0.0572
18779TIP3    H277829   1.575   3.238  40.783 -0.1358  0.4023 -0.0393
18780TIP3   OH277830   3.849   0.882   9.021  0.6086  0.2968 -0.5477
18780TIP3    H177831   3.761   0.844   9.024  0.2523  1.1123  1.3546
18780TIP3    H277832   3.838   0.964   8.973  0.2069  0.6299  0.0962
18781TIP3   OH277833   4.169   2.986  27.184  0.0533  0.0605  0.4567
18781TIP3    H177834   4.210   3.044  27.120  2.1033  1.5760  2.9709
18781TIP3    H277835   4.242   2.940  27.226 -1.3898 -2.9073  0.0189
18782TIP3   OH277836   3.077   3.603   5.008 -0.7659  0.3513  0.3497
18782TIP3    H177837   3.146   3.538   4.992 -0.6121  0.2805  1.2610
18782TIP3    H277838   3.022   3.598   4.930  2.1359  2.9082 -2.1039
18783TIP3   OH277839   2.308   3.412  27.824 -0.0854 -0.6453 -0.2481
18783TIP3    H177840   2.276   3.500  27.843 -0.4475 -0.4524 -1.6268
18783TIP3    H277841   2.329   3.375  27.909  0.4344  0.9015  0.3291
18784TIP3   OH277842   1.769   3.844   0.713  0.0138 -0.1290 -0.1654
18784TIP3    H177843   1.784   3.752   0.690  0.7409  0.0663 -0.5034
18784TIP3    H277844   1.842   3.866   0.771  0.5933  0.5998 -1.1340
18785TIP3   OH277845   0.065   0.099   3.879  0.6086 -0.0466 -0.2853
18785TIP3    H177846   0.088   0.132   3.792 -0.7168 -1.0392 -1.0663
18785TIP3    H277847   0.137   0.040   3.902  0.5988 -0.4027 -1.1011
18786TIP3   OH277848   0.029   0.683  28.650  0.2611  0.4292 -0.1355
18786TIP3    H177849  -0.031   0.676  28.724  0.4105  0.4849 -0.0086
18786TIP3    H277850   0.115   0.695  28.690  0.7689 -2.2084 -0.2330
18787TIP3   OH277851   0.973   3.964  13.967 -0.1807  0.9084 -0.4390
18787TIP3    H177852   0.908   3.929  14.028 -0.3590 -0.4459 -1.3521
18787TIP3    H277853   0.999   4.049  14.004  1.0753 -0.6097  2.5086
18788TIP3   OH277854   3.512   2.628  31.035 -0.7617 -0.2120 -0.4801
18788TIP3    H177855   3.580   2.682  31.076 -0.4070 -0.1988 -1.0773
18788TIP3    H277856   3.553   2.542  31.025 -1.2451 -0.5332  0.2513
18789TIP3   OH277857   0.550   3.674   4.140 -0.1495 -0.7429 -0.0878
18789TIP3    H177858   0.514   3.678   4.051 -0.2739  1.4797  0.0209
18789TIP3    H277859   0.586   3.585   4.147 -0.1034 -0.9557 -2.3548
18790TIP3   OH277860   0.080   1.159  32.952 -0.5435 -0.0996  0.4127
18790TIP3    H177861   0.121   1.072  32.956 -0.2743 -0.1634 -2.1372
18790TIP3    H277862  -0.003   1.148  32.999 -0.4854 -1.7205  0.2010
18791TIP3   OH277863   0.906   2.295   8.206 -0.1404  0.1176  0.2928
18791TIP3    H177864   0.886   2.232   8.137  0.6844 -1.0880  1.1148
18791TIP3    H277865   0.992   2.330   8.182  0.9220 -1.5263  1.5147
18792TIP3   OH277866   3.289   2.853  36.127  0.7335  0.1919 -0.0086
18792TIP3    H177867   3.259   2.894  36.208 -0.2964  0.1071 -0.3243
18792TIP3    H277868   3.289   2.924  36.063 -2.3461 -0.4112 -0.8909
18793TIP3   OH277869   2.867   2.406  29.192  0.4914  0.2073  0.3505
18793TIP3    H177870   2.942   2.402  29.132  1.4555  0.8316  1.4737
18793TIP3    H277871   2.858   2.500  29.211 -0.5860  0.1363  0.2346
18794TIP3   OH277872   3.161   1.747  28.882  0.0195  0.0719  0.3333
18794TIP3    H177873   3.152   1.748  28.978  0.1277  0.5207  0.3409
18794TIP3    H277874   3.240   1.694  28.867 -0.3464 -0.5206  0.4562
18795TIP3   OH277875   3.590   2.797   3.873  0.0784  0.6354  0.2987
18795TIP3    H177876   3.597   2.819   3.966  1.5913  1.1908  0.0738
18795TIP3    H277877   3.498   2.773   3.862 -0.0123 -0.0405  2.0579
18796TIP3   OH277878   1.891   1.801  32.786 -0.6076  0.2784 -0.5199
18796TIP3    H177879   1.902   1.894  32.768 -1.5207  0.7431  1.1212
18796TIP3    H277880   1.961   1.780  32.849 -1.3137  0.2400  0.2733
18797TIP3   OH277881   2.361   2.692  30.541 -0.0536 -0.3737 -0.1329
18797TIP3    H177882   2.377   2.698  30.635  0.6789  0.5848 -0.2973
18797TIP3    H277883   2.448   2.696  30.501 -0.3306 -1.1027 -0.8435
18798TIP3   OH277884   0.148   0.840  33.878  0.3107 -0.0171  0.0698
18798TIP3    H177885   0.161   0.768  33.940  0.8360 -1.3871 -1.5699
18798TIP3    H277886   0.085   0.898  33.922 -0.5888 -1.7643  1.1995
18799TIP3   OH277887   2.174   2.554   7.747 -0.1633  0.4502 -0.3223
18799TIP3    H177888   2.243   2.619   7.738 -0.4770  0.8871  0.3723
18799TIP3    H277889   2.167   2.514   7.660  0.1236  1.2405 -0.7149
18800TIP3   OH277890   2.990   3.309  40.178  0.4176  0.1369 -0.5146
18800TIP3    H177891   2.977   3.394  40.221 -1.0839  0.2031 -1.0091
18800TIP3    H277892   2.917   3.256  40.209  2.1793 -1.5235  0.9910
18801TIP3   OH277893   2.751   2.347   0.387  0.7389  0.1797  0.1854
18801TIP3    H177894   2.746   2.333   0.482  1.6538  1.0447  0.3893
18801TIP3    H277895   2.809   2.277   0.356  0.0651 -0.3863  0.1876
18802TIP3   OH277896   4.079   1.330  37.239 -0.1196  0.2641  0.3253
18802TIP3    H177897   4.024   1.281  37.300 -2.9897 -0.3024 -2.3898
18802TIP3    H277898   4.029   1.410  37.222  0.3609  0.2306 -1.4472
18803TIP3   OH277899   4.194   1.228   9.904 -0.4447  0.3867 -0.2906
18803TIP3    H177900   4.261   1.296   9.916  0.1984 -0.4362  1.0921
18803TIP3    H277901   4.129   1.247   9.971  0.0274 -0.6539  0.4980
18804TIP3   OH277902   0.478   2.226  41.404  0.1952  0.4703  0.3242
18804TIP3    H177903   0.550   2.252  41.347 -0.4530  0.2199 -0.6291
18804TIP3    H277904   0.399   2.257  41.360 -0.2523  1.5681  1.8037
18805TIP3   OH277905   1.286   0.638   6.027  0.3196 -0.3132  0.3974
18805TIP3    H177906   1.261   0.547   6.014 -0.3071 -0.4685  2.3326
18805TIP3    H277907   1.360   0.635   6.088  0.3189  0.4687  0.4545
18806TIP3   OH277908   0.082   1.316  22.580 -0.5281 -0.1540 -0.3002
18806TIP3    H177909   0.095   1.402  22.622  0.1557  0.4922 -1.7872
18806TIP3    H277910  -0.012   1.302  22.585 -0.5655  0.3164  0.6413
18807TIP3   OH277911   2.898   2.981   9.334  0.2599  0.2500  0.0097
18807TIP3    H177912   2.977   3.036   9.332  0.8778 -0.6366 -1.1745
18807TIP3    H277913   2.931   2.893   9.352 -0.6668  0.1611  1.3705
18808TIP3   OH277914   4.356   1.993  29.991 -0.4299  0.0598 -0.1459
18808TIP3    H177915   4.413   2.054  30.037 -2.2043  0.3731  1.7417
18808TIP3    H277916   4.389   1.906  30.014 -1.3053  0.2051  1.8598
18809TIP3   OH277917   4.207   0.312  32.986  0.0736 -0.5570 -0.4964
18809TIP3    H177918   4.250   0.255  33.050 -1.1110  0.3795  1.1842
18809TIP3    H277919   4.143   0.255  32.943  0.0186 -0.8985  0.0268
18810TIP3   OH277920   3.372   0.664  35.780 -0.4487  0.0903 -0.1320
18810TIP3    H177921   3.443   0.617  35.735 -1.0627 -0.6806 -0.3121
18810TIP3    H277922   3.297   0.604  35.776 -1.2423  1.0676 -0.3376
18811TIP3   OH277923   2.230   2.002   0.364  0.2481 -0.1383 -0.2384
18811TIP3    H177924   2.282   1.974   0.439 -1.1750 -2.1810  0.0594
18811TIP3    H277925   2.258   2.093   0.348 -0.0550  0.7039  3.2900
18812TIP3   OH277926   1.683   0.543  37.974  0.4203  0.1250 -0.4779
18812TIP3    H177927   1.588   0.542  37.983  0.4477  0.2800 -0.1339
18812TIP3    H277928   1.699   0.526  37.882  0.0942 -1.2119 -0.3109
18813TIP3   OH277929   3.810   0.748  10.452 -0.8054 -0.2140 -0.5244
18813TIP3    H177930   3.843   0.799  10.526 -1.1948 -0.4575 -0.1837
18813TIP3    H277931   3.715   0.761  10.453 -0.8121 -0.1807 -1.0121
18814TIP3   OH277932   1.461   0.576   0.910 -0.3113  0.4067 -0.2267
18814TIP3    H177933   1.522   0.633   0.863 -0.2184  1.1111  0.6993
18814TIP3    H277934   1.461   0.611   0.999  0.2912 -1.4868  0.5591
18815TIP3   OH277935   2.096   2.750  17.464 -0.1571 -0.3708  0.2665
18815TIP3    H177936   2.025   2.774  17.405 -0.3873 -2.0449 -0.1915
18815TIP3    H277937   2.143   2.681  17.418 -1.4635 -3.1049  2.7536
18816TIP3   OH277938   0.451   0.503   0.437  0.3919  0.0883 -0.0231
18816TIP3    H177939   0.488   0.591   0.437 -2.0961  1.2497 -1.7895
18816TIP3    H277940   0.424   0.488   0.528  1.0024  1.0415  0.3342
18817TIP3   OH277941   4.197   2.867  39.453  0.1827 -0.5455  0.2160
18817TIP3    H177942   4.283   2.863  39.495  0.4351 -1.0646 -0.3373
18817TIP3    H277943   4.179   2.961  39.446  2.1494 -0.2482 -2.4987
18818TIP3   OH277944   0.811   4.252  36.691 -0.4875 -0.2322 -0.0158
18818TIP3    H177945   0.817   4.275  36.598  0.2310 -0.0633  0.0650
18818TIP3    H277946   0.757   4.174  36.693  0.4695 -0.9304 -0.7023
18819TIP3   OH277947   3.542   2.612   1.478  0.0343 -0.1498 -0.0510
18819TIP3    H177948   3.590   2.694   1.474 -1.7079  0.9973  1.0730
18819TIP3    H277949   3.609   2.544   1.472  1.5727  1.3496 -0.3877
18820TIP3   OH277950   1.567   1.658  41.607 -0.4548  0.5222  0.5787
18820TIP3    H177951   1.658   1.634  41.626 -0.5568  1.7572  3.1064
18820TIP3    H277952   1.570   1.695  41.519  1.3812 -0.0178  0.3698
18821TIP3   OH277953   2.154   4.344  31.434 -0.6364  0.2020  0.5185
18821TIP3    H177954   2.136   4.258  31.396 -3.4938  0.5319  0.8815
18821TIP3    H277955   2.126   4.336  31.526 -0.3011  1.3297  0.7354
18822TIP3   OH277956   3.135   1.819  33.346 -0.4014 -0.5890 -0.3595
18822TIP3    H177957   3.169   1.867  33.271 -1.2199  2.2252  0.9490
18822TIP3    H277958   3.211   1.804  33.401 -0.4402  1.3643  0.2907
18823TIP3   OH277959   3.382   2.826  37.338  0.0880 -0.1178 -0.5016
18823TIP3    H177960   3.353   2.736  37.321 -1.6701  0.2619  0.3245
18823TIP3    H277961   3.470   2.830  37.299  1.1766 -2.8323  1.3888
18824TIP3   OH277962   0.291   2.672  27.365  0.0452 -0.4039  0.4661
18824TIP3    H177963   0.270   2.662  27.458  0.0069  2.1463  0.8226
18824TIP3    H277964   0.257   2.759  27.343  1.3537 -0.3515 -1.5660
18825TIP3   OH277965   2.571   0.735  12.592  0.2231  0.5920 -0.0037
18825TIP3    H177966   2.618   0.734  12.509 -0.4572 -1.7285 -0.4241
18825TIP3    H277967   2.479   0.746  12.567  0.0092 -0.1758  0.4315
18826TIP3   OH277968   1.802   4.109   3.809  0.3722 -0.0066 -0.2573
18826TIP3    H177969   1.792   4.114   3.714 -3.0386  0.2525  0.0041
18826TIP3    H277970   1.815   4.200   3.836 -2.7773  0.5623 -0.2610
18827TIP3   OH277971   3.061   1.045  29.643  0.6540 -0.0725 -0.2302
18827TIP3    H177972   3.070   1.139  29.630  1.4185  0.1822  1.7867
18827TIP3    H277973   2.967   1.032  29.656  0.5727  0.4618 -0.2504
18828TIP3   OH277974   1.945   1.390  35.120 -0.4556  0.3153  0.3808
18828TIP3    H177975   2.005   1.334  35.070 -0.5069  1.5560 -1.1506
18828TIP3    H277976   1.915   1.335  35.192  2.5372 -0.3613  1.2433
18829TIP3   OH277977   1.393   2.177  31.118  0.5845  0.4551  0.1084
18829TIP3    H177978   1.384   2.158  31.211  0.4286  0.6840  0.1425
18829TIP3    H277979   1.469   2.236  31.114  1.0453 -0.1302  0.0093
18830TIP3   OH277980   2.207   0.868  17.568  0.6096  0.2011  0.1242
18830TIP3    H177981   2.172   0.947  17.526 -0.0983 -0.0761  0.1843
18830TIP3    H277982   2.211   0.803  17.498 -2.4735 -0.8942  0.7969
18831TIP3   OH277983   0.411   2.771  12.562 -0.3061 -1.0546 -0.0385
18831TIP3    H177984   0.356   2.742  12.635 -1.7080 -0.9457 -1.0016
18831TIP3    H277985   0.455   2.849  12.595  0.3018 -1.8799  1.1910
18832TIP3   OH277986   4.265   2.777  39.203  0.3848  0.0188 -0.0827
18832TIP3    H177987   4.317   2.705  39.169 -1.4688 -0.3456 -2.3954
18832TIP3    H277988   4.276   2.772  39.298  1.3051 -2.4911 -0.2516
18833TIP3   OH277989   1.744   2.707  39.969 -0.1164  0.4872 -0.0290
18833TIP3    H177990   1.719   2.763  39.895  0.0597  2.1320  1.1184
18833TIP3    H277991   1.788   2.632  39.928 -2.5790 -0.1307 -1.7856
18834TIP3   OH277992   1.335   3.907  35.711  0.0366  0.4899 -0.0650
18834TIP3    H177993   1.397   3.899  35.784  0.4011  0.0576 -0.4200
18834TIP3    H277994   1.358   3.990  35.669  0.7929  0.0351 -0.5730
18835TIP3   OH277995   4.165   2.308  31.515  0.0249 -0.1132 -0.3843
18835TIP3    H177996   4.171   2.369  31.589 -1.2655  1.1202 -1.2420
18835TIP3    H277997   4.129   2.361  31.444 -0.3582 -1.6879 -1.4049
18836TIP3   OH277998   1.261   1.874   6.754  0.4138 -0.2183 -0.5748
18836TIP3    H177999   1.194   1.824   6.801  0.1329  0.5124 -0.1948
18836TIP3    H278000   1.343   1.854   6.800  0.5235 -1.3031 -1.1871
18837TIP3   OH278001   3.205   2.691   0.344 -0.5049  0.3506  0.3117
18837TIP3    H178002   3.274   2.715   0.406 -0.3457 -2.9753  1.5918
18837TIP3    H278003   3.132   2.663   0.398 -1.2756 -0.3308 -1.0323
18838TIP3   OH278004   0.942   2.002  15.121 -0.1559 -0.8573 -0.1673
18838TIP3    H178005   0.920   1.919  15.164  0.5192 -0.9045  0.0901
18838TIP3    H278006   0.953   2.064  15.193  0.0627 -0.7157 -0.3205
18839TIP3   OH278007   1.313   2.527   3.874  0.0226  0.3645  0.0627
18839TIP3    H178008   1.381   2.465   3.847  0.4188  0.8755 -0.1350
18839TIP3    H278009   1.352   2.576   3.946 -1.7651 -2.4280  3.2319
18840TIP3   OH278010   2.836   0.712  32.926  0.1771 -0.1437 -0.2166
18840TIP3    H178011   2.887   0.775  32.977  0.7100 -1.2467  0.6381
18840TIP3    H278012   2.878   0.628  32.942 -0.5217 -0.7314 -1.3498
18841TIP3   OH278013   1.386   0.766  33.405 -0.2080 -0.7383  0.0318
18841TIP3    H178014   1.381   0.670  33.410 -1.2231 -0.6593  1.1251
18841TIP3    H278015   1.312   0.791  33.350 -0.5315 -0.5453  0.5440
18842TIP3   OH278016   2.173   3.819  33.830 -0.0778 -0.1168  0.2226
18842TIP3    H178017   2.098   3.879  33.833  0.9725  1.2346  0.6294
18842TIP3    H278018   2.223   3.840  33.908  2.7148  1.7632 -1.8479
18843TIP3   OH278019   3.950   2.587  11.414  0.0253 -0.4433  0.6773
18843TIP3    H178020   3.913   2.532  11.344  0.7349  0.0880 -0.1377
18843TIP3    H278021   3.875   2.607  11.471 -0.8517  0.1634 -0.6278
18844TIP3   OH278022   0.972   4.185   5.199 -0.2415 -0.4186 -0.7476
18844TIP3    H178023   0.990   4.279   5.202  1.6861 -0.7579 -0.9619
18844TIP3    H278024   1.004   4.157   5.113  0.2893 -1.4809 -0.2141
18845TIP3   OH278025   2.345   3.797  41.518  0.2531 -0.6281 -0.3347
18845TIP3    H178026   2.257   3.760  41.519  0.5485 -1.3499 -0.5449
18845TIP3    H278027   2.403   3.721  41.508  0.8691 -0.1049 -0.7763
18846TIP3   OH278028   3.851   0.920   2.503  0.1426 -0.5292 -1.0311
18846TIP3    H178029   3.765   0.879   2.509 -0.3945  0.3718 -2.2564
18846TIP3    H278030   3.835   1.002   2.456  1.7579 -0.6311 -1.8136
18847TIP3   OH278031   3.490   0.482  34.250  0.5280  0.2337 -0.5406
18847TIP3    H178032   3.500   0.404  34.195 -1.6571 -2.1626  2.1840
18847TIP3    H278033   3.451   0.547  34.192  1.8879 -0.8138 -2.7740
18848TIP3   OH278034   0.713   3.839  22.471  0.4093 -0.4764 -0.6045
18848TIP3    H178035   0.723   3.932  22.450 -0.1739 -0.0118  1.0413
18848TIP3    H278036   0.656   3.805  22.402  1.4633  0.1212 -1.8201
18849TIP3   OH278037   0.103   2.325  24.153 -0.1309 -0.1036 -0.0590
18849TIP3    H178038   0.166   2.397  24.143  0.8388 -0.7503  1.0948
18849TIP3    H278039   0.130   2.262  24.087  1.1862 -0.8658  1.1495
18850TIP3   OH278040   3.958   3.373   6.951  0.3334 -0.1825 -0.5785
18850TIP3    H178041   3.919   3.453   6.988 -1.4836 -1.1472 -0.2738
18850TIP3    H278042   4.045   3.369   6.991  0.1585  1.2123  0.0306
18851TIP3   OH278043   4.101   0.215  36.179 -0.0713 -0.2525  0.5510
18851TIP3    H178044   4.167   0.211  36.248  1.8327  1.5560 -1.0829
18851TIP3    H278045   4.100   0.126  36.142  1.3196 -0.3608  0.7248
18852TIP3   OH278046   0.371   3.737  37.616  0.1155  0.0396 -0.1070
18852TIP3    H178047   0.370   3.762  37.524 -0.9142  0.9748  0.1436
18852TIP3    H278048   0.425   3.658  37.618  0.6478  0.3387 -1.4143
18853TIP3   OH278049   4.268   0.410  29.025 -0.3307 -0.0123  0.0732
18853TIP3    H178050   4.211   0.395  29.100  0.3755  1.5646  0.9738
18853TIP3    H278051   4.233   0.353  28.956 -1.7209 -0.5951  1.2130
18854TIP3   OH278052   1.102   2.850   0.708 -0.6614  0.2257 -0.3088
18854TIP3    H178053   1.131   2.850   0.617  0.8472 -0.5233  0.1404
18854TIP3    H278054   1.140   2.930   0.745 -1.3437  0.5731 -0.3377
18855TIP3   OH278055   1.340   2.234   4.408  0.3290 -0.2507 -0.2148
18855TIP3    H178056   1.346   2.312   4.352  3.9691  0.2869  0.6976
18855TIP3    H278057   1.274   2.258   4.473 -1.3447  0.5105 -2.0513
18856TIP3   OH278058   3.620   1.538  27.236  0.6824  0.4248 -0.0027
18856TIP3    H178059   3.546   1.593  27.261  0.4709  0.6565 -1.1052
18856TIP3    H278060   3.632   1.553  27.142  1.4200 -0.4570 -0.0721
18857TIP3   OH278061   1.822   1.241   7.366  0.1625  0.2063  0.2603
18857TIP3    H178062   1.891   1.248   7.432  1.1901 -0.5038 -0.6988
18857TIP3    H278063   1.819   1.148   7.344  0.0765  0.4742 -0.9301
18858TIP3   OH278064   3.291   4.229  36.686  0.2837 -0.7835 -0.5778
18858TIP3    H178065   3.222   4.196  36.629 -1.7385  3.3205 -0.8343
18858TIP3    H278066   3.369   4.234  36.630 -0.8590  0.2044 -2.1399
18859TIP3   OH278067   3.482   3.096  30.059  0.1012 -0.3237 -0.4364
18859TIP3    H178068   3.508   3.004  30.065  0.1424 -0.2759  0.2085
18859TIP3    H278069   3.464   3.110  29.966  2.7641 -0.2767 -1.0302
18860TIP3   OH278070   0.843   1.692  26.883  0.3015 -0.0426 -0.6290
18860TIP3    H178071   0.862   1.598  26.879 -0.6798 -0.3059  0.3274
18860TIP3    H278072   0.912   1.728  26.938  0.0484 -0.3942 -0.0762
18861TIP3   OH278073   2.075   1.843   6.353  0.3016 -0.0862 -0.2913
18861TIP3    H178074   2.042   1.927   6.384  0.3196 -0.7815  1.7543
18861TIP3    H278075   2.089   1.792   6.432  0.4163 -1.9896 -1.4791
18862TIP3   OH278076   3.661   2.580  22.005  0.0820 -0.2484 -0.0669
18862TIP3    H178077   3.674   2.515  22.073 -1.1286 -0.2116  0.2325
18862TIP3    H278078   3.655   2.663  22.052 -0.6801 -0.2148 -0.2084
18863TIP3   OH278079   0.815   0.156  31.128  0.3177  0.1522 -0.0637
18863TIP3    H178080   0.870   0.231  31.105  2.7121 -1.1103  1.1729
18863TIP3    H278081   0.852   0.124  31.211 -1.2187 -1.8240 -0.0776
18864TIP3   OH278082   0.199   2.956  37.200 -0.4028  0.1742 -0.3884
18864TIP3    H178083   0.222   2.875  37.155  0.0617  0.0046  0.1323
18864TIP3    H278084   0.239   3.025  37.148  3.0218 -0.2191  1.4532
18865TIP3   OH278085   3.824   1.399  12.865 -0.1156 -0.1145  0.3308
18865TIP3    H178086   3.904   1.350  12.881 -0.8412 -1.5129 -0.1579
18865TIP3    H278087   3.797   1.373  12.777 -0.3254  1.4856 -0.1030
18866TIP3   OH278088   2.883   3.483  31.192 -0.6342 -0.2723 -0.3593
18866TIP3    H178089   2.923   3.567  31.215  1.0909 -1.1278 -0.0521
18866TIP3    H278090   2.866   3.441  31.276  0.3978 -1.0411 -0.5118
18867TIP3   OH278091   3.301   2.134   8.715  0.6270  0.8236 -0.2713
18867TIP3    H178092   3.317   2.208   8.773  0.6706  0.3987  0.2672
18867TIP3    H278093   3.265   2.066   8.772 -1.9217  1.2988 -1.1916
18868TIP3   OH278094   2.449   0.640  27.479 -0.0842 -0.1671  0.2548
18868TIP3    H178095   2.472   0.578  27.411  1.1211  0.5629 -0.0243
18868TIP3    H278096   2.526   0.696  27.489 -0.9965  1.0656  0.7377
18869TIP3   OH278097   0.231   1.177  38.502  0.2152 -0.1055  0.0848
18869TIP3    H178098   0.238   1.182  38.407  0.5986 -0.0842  0.1118
18869TIP3    H278099   0.221   1.083  38.520  0.2312 -0.1175  0.0294
18870TIP3   OH278100   0.471   2.485  33.120 -0.3581 -0.0886 -0.5761
18870TIP3    H178101   0.527   2.410  33.100 -1.2050 -0.5513 -1.3150
18870TIP3    H278102   0.525   2.542  33.173  0.2335 -1.3427  0.2149
18871TIP3   OH278103   2.689   0.844   8.277 -0.2919  0.3631 -0.0295
18871TIP3    H178104   2.608   0.870   8.234  1.1400  3.8003 -1.0297
18871TIP3    H278105   2.700   0.907   8.348  2.9352  2.1298 -1.8697
18872TIP3   OH278106   0.495   4.369   0.918  0.1233 -0.5878  0.7213
18872TIP3    H178107   0.454   4.284   0.934 -0.2676 -0.0862  2.6555
18872TIP3    H278108   0.586   4.348   0.898 -0.6461 -1.6329 -2.2865
18873TIP3   OH278109   2.740   1.828   7.142  0.2959  0.0319  0.9185
18873TIP3    H178110   2.703   1.740   7.128  2.6977 -0.9960  0.6344
18873TIP3    H278111   2.818   1.813   7.194  1.9035  1.7431 -0.8362
18874TIP3   OH278112   3.099   3.306  27.401  0.0227 -0.2606 -0.5069
18874TIP3    H178113   3.170   3.302  27.338 -2.1885  0.1880 -3.2304
18874TIP3    H278114   3.020   3.290  27.350 -1.8040 -2.3815  2.5955
18875TIP3   OH278115   2.400   1.591  39.032  0.0752  0.0850 -0.0072
18875TIP3    H178116   2.433   1.530  39.099  2.1120  0.9507 -0.1421
18875TIP3    H278117   2.330   1.639  39.076 -3.1727 -3.6430 -0.4889
18876TIP3   OH278118   2.588   0.285  41.111  0.5005  0.0547  0.3375
18876TIP3    H178119   2.555   0.374  41.120 -0.9487 -0.4876  0.5521
18876TIP3    H278120   2.645   0.289  41.034 -0.2290  0.9800 -0.1786
18877TIP3   OH278121   2.376   0.599   5.380 -0.2765  0.0874 -0.6092
18877TIP3    H178122   2.331   0.657   5.319  0.2936 -0.1384 -1.2545
18877TIP3    H278123   2.468   0.621   5.372 -0.2581  0.6148  0.7822
18878TIP3   OH278124   1.853   0.541  16.185 -0.5688 -0.2114 -0.0060
18878TIP3    H178125   1.865   0.482  16.110  0.5934 -0.5930  0.4656
18878TIP3    H278126   1.805   0.616  16.149  2.2433  0.8923 -1.8344
18879TIP3   OH278127   2.584   2.708  36.026 -0.0974 -0.6425  0.3123
18879TIP3    H178128   2.493   2.736  36.032 -0.8844 -2.6762 -0.8775
18879TIP3    H278129   2.620   2.757  35.953  0.0185  0.6918  1.2294
18880TIP3   OH278130   3.560   0.168  31.458  0.0173 -0.4852  0.1962
18880TIP3    H178131   3.600   0.254  31.446  0.7154 -0.9550 -1.0087
18880TIP3    H278132   3.623   0.119  31.511 -0.6325 -0.0972  1.3532
18881TIP3   OH278133   2.708   3.065  38.571 -0.1418 -0.2324  0.7937
18881TIP3    H178134   2.745   3.118  38.642  0.7879  1.1164 -0.6215
18881TIP3    H278135   2.781   3.009  38.544 -1.0100 -2.0489  2.0251
18882TIP3   OH278136   1.304   2.048  31.342  0.0289  0.2236 -0.4903
18882TIP3    H178137   1.316   1.959  31.310  2.0034  0.2345  0.0820
18882TIP3    H278138   1.261   2.036  31.427 -2.6454  0.0554 -1.7639
18883TIP3   OH278139   1.425   4.143  12.735  0.2426 -0.0828 -0.4628
18883TIP3    H178140   1.382   4.225  12.709  2.9804  1.4472 -0.4857
18883TIP3    H278141   1.432   4.094  12.653 -0.8451 -0.1002 -0.5656
18884TIP3   OH278142   0.213   1.347  30.272 -1.0163  0.6243  0.4958
18884TIP3    H178143   0.222   1.342  30.368 -1.9293 -1.0849  0.5338
18884TIP3    H278144   0.292   1.393  30.243  0.7178 -1.2651  1.8822
18885TIP3   OH278145   0.849   3.281  36.053 -0.4641  0.2112  0.2573
18885TIP3    H178146   0.873   3.239  35.970  1.2163  2.9063 -0.7769
18885TIP3    H278147   0.925   3.267  36.110  0.1787  1.7965 -0.1460
18886TIP3   OH278148   2.957   0.785   6.861 -0.4019 -0.0635  0.2498
18886TIP3    H178149   3.002   0.797   6.944 -2.1248  0.3252  1.1790
18886TIP3    H278150   2.962   0.691   6.843 -0.1461 -0.1714  0.8788
18887TIP3   OH278151   4.354   4.358  40.430  0.2398  0.2507 -0.8607
18887TIP3    H178152   4.359   4.326  40.339 -0.2515 -1.4462 -0.3221
18887TIP3    H278153   4.345   4.453  40.421  1.0448  0.2072 -2.5691
18888TIP3   OH278154   1.162   4.029   2.810  0.1664  0.2160 -0.1618
18888TIP3    H178155   1.112   3.949   2.823 -0.0714  0.2291 -0.9567
18888TIP3    H278156   1.097   4.099   2.814  0.4406  0.4367  1.0667
18889TIP3   OH278157   3.082   1.366  31.561 -0.2858  0.1515  0.2211
18889TIP3    H178158   3.078   1.426  31.486 -0.4865 -0.2369 -0.0830
18889TIP3    H278159   3.176   1.351  31.574 -0.2716 -0.7769 -0.7703
18890TIP3   OH278160   3.785   1.958  27.019 -0.2113  0.2481 -0.3154
18890TIP3    H178161   3.798   1.907  27.099  2.3100  0.5109 -0.4845
18890TIP3    H278162   3.822   1.904  26.949 -1.9498  0.2357 -1.2827
18891TIP3   OH278163   2.322   3.699  35.971  0.2487 -0.0271 -0.7147
18891TIP3    H178164   2.321   3.635  36.042 -0.7548 -0.3036 -0.9612
18891TIP3    H278165   2.332   3.647  35.892 -2.0694 -0.0673 -1.0516
18892TIP3   OH278166   0.548   3.121  33.935  0.4102 -0.2208  0.2518
18892TIP3    H178167   0.527   3.046  33.880 -0.8404 -0.4390  0.9848
18892TIP3    H278168   0.640   3.107  33.959  0.0394 -1.8809  0.8935
18893TIP3   OH278169   3.399   1.513  25.715 -0.0699 -0.3870  0.3522
18893TIP3    H178170   3.397   1.456  25.791  1.3998 -1.2403 -0.2059
18893TIP3    H278171   3.310   1.547  25.707 -0.5098 -1.1544  1.7802
18894TIP3   OH278172   3.937   3.786  29.654  0.3656 -0.3899 -0.0957
18894TIP3    H178173   3.896   3.699  29.655 -0.4961 -0.0182 -0.9208
18894TIP3    H278174   3.939   3.809  29.561  1.3084  0.1525  0.0486
18895TIP3   OH278175   2.509   4.380  30.045  0.4279 -0.0991 -0.2338
18895TIP3    H178176   2.596   4.391  30.008 -0.3185 -0.3427 -2.1636
18895TIP3    H278177   2.454   4.443  29.998 -0.0154  2.0469  2.8036
18896TIP3   OH278178   4.155   2.599  23.556 -0.6561  0.4198 -0.2184
18896TIP3    H178179   4.211   2.604  23.478  0.2333  0.1425  0.3858
18896TIP3    H278180   4.070   2.570  23.522  0.4025 -2.3043 -0.8119
18897TIP3   OH278181   0.956   1.081  35.141 -0.0043 -0.4173  0.1253
18897TIP3    H178182   0.897   1.156  35.153 -0.5110 -0.6356 -0.8195
18897TIP3    H278183   0.944   1.028  35.219  1.5375  1.2284  1.5586
18898TIP3   OH278184   0.365   2.728  21.544  0.3227  0.2140  0.0600
18898TIP3    H178185   0.326   2.753  21.460  1.0494 -0.9532 -0.6630
18898TIP3    H278186   0.446   2.778  21.548  0.4922 -0.0406 -0.1405
18899TIP3   OH278187   3.373   2.683  30.090 -0.5153 -0.1551  0.3368
18899TIP3    H178188   3.422   2.615  30.045 -1.5473 -1.3299  0.9099
18899TIP3    H278189   3.375   2.657  30.182 -0.5403  0.8492  0.6346
18900TIP3   OH278190   3.281   3.700  29.078  0.2075 -0.3675  0.1140
18900TIP3    H178191   3.198   3.655  29.059  0.8188 -1.6355  0.3622
18900TIP3    H278192   3.255   3.787  29.107 -1.0430 -0.7586  0.2162
18901TIP3   OH278193   0.514   1.440   6.956  0.0198  0.6076  0.3306
18901TIP3    H178194   0.562   1.367   6.994 -1.6269 -1.5057 -1.3566
18901TIP3    H278195   0.433   1.444   7.006  0.1926  1.4527  0.5572
18902TIP3   OH278196   4.190   2.680  37.865 -0.3117  0.0627 -0.0965
18902TIP3    H178197   4.166   2.692  37.957  0.9242 -1.8889  0.5288
18902TIP3    H278198   4.119   2.627  37.828 -0.3327  0.0414 -0.0252
18903TIP3   OH278199   0.295   1.586  37.658  0.5567  0.1622 -0.1903
18903TIP3    H178200   0.210   1.561  37.621 -0.6556  2.3461  0.9436
18903TIP3    H278201   0.312   1.519  37.724 -0.6805  0.1135  0.1088
18904TIP3   OH278202   2.950   2.885  40.170  0.2819  0.3185 -0.0790
18904TIP3    H178203   2.935   2.925  40.255  2.1917  0.0284  0.4489
18904TIP3    H278204   2.887   2.813  40.165 -0.8175  1.2187  0.4457
18905TIP3   OH278205   1.710   2.283   1.582 -0.7480  0.3952  0.0305
18905TIP3    H178206   1.758   2.365   1.585 -0.0143 -0.0436  0.8348
18905TIP3    H278207   1.692   2.262   1.674 -2.6802  0.6543 -0.2525
18906TIP3   OH278208   2.585   2.723  28.266  0.4441 -0.0865  0.1816
18906TIP3    H178209   2.656   2.666  28.236  0.5550 -1.0540  2.1769
18906TIP3    H278210   2.559   2.771  28.187  1.9506 -1.1562 -1.0345
18907TIP3   OH278211   0.844   1.203  27.073  0.1687  0.3442  0.5611
18907TIP3    H178212   0.843   1.189  27.167  2.8996  0.3756  0.6729
18907TIP3    H278213   0.886   1.288  27.062  1.9778 -0.6493 -0.7015
18908TIP3   OH278214   4.139   0.244  25.359 -0.1138 -0.5664 -0.3057
18908TIP3    H178215   4.184   0.165  25.329  0.5409 -0.8506  1.2810
18908TIP3    H278216   4.047   0.229  25.339  0.0256 -1.6508 -0.2071
18909TIP3   OH278217   1.099   2.675  34.215 -0.0517  0.5220 -0.3780
18909TIP3    H178218   1.075   2.669  34.308  0.8069 -0.7575 -0.2187
18909TIP3    H278219   1.189   2.708  34.216  0.5656 -1.0542 -0.6503
18910TIP3   OH278220   2.097   1.157  39.150  0.2219  0.1518  0.0902
18910TIP3    H178221   2.189   1.183  39.141 -0.1457  0.8020 -2.5988
18910TIP3    H278222   2.047   1.232  39.116 -1.1753 -1.0428 -0.6144
18911TIP3   OH278223   1.170   1.452  32.413 -0.0401 -0.6555  0.7572
18911TIP3    H178224   1.172   1.493  32.327  1.0917 -0.9781  0.6223
18911TIP3    H278225   1.144   1.362  32.396  1.0577 -0.9625  0.6378
18912TIP3   OH278226   1.958   4.287  35.248 -0.1578 -0.1714 -0.3283
18912TIP3    H178227   1.947   4.193  35.258 -1.5061 -0.1567 -1.4545
18912TIP3    H278228   2.019   4.311  35.318  1.0859 -2.0289 -0.7016
18913TIP3   OH278229   3.895   3.005  21.588  0.2504  0.0765 -0.0130
18913TIP3    H178230   3.956   2.948  21.634 -0.2137 -0.5446 -0.1634
18913TIP3    H278231   3.808   2.971  21.609  0.0195 -0.0713 -1.1306
18914TIP3   OH278232   3.811   1.162  32.097  0.0410 -0.4400  0.1053
18914TIP3    H178233   3.796   1.125  32.010 -2.2131  0.7275 -0.0698
18914TIP3    H278234   3.821   1.086  32.154 -3.8307 -1.4710 -0.3461
18915TIP3   OH278235   1.524   3.439  28.405  0.6060  0.6081  0.1108
18915TIP3    H178236   1.587   3.440  28.478 -0.5304  1.4843  1.1264
18915TIP3    H278237   1.464   3.510  28.425 -1.3503 -0.8715 -0.2303
18916TIP3   OH278238   3.264   0.617   2.442  0.3049 -0.1425  0.1415
18916TIP3    H178239   3.266   0.711   2.460  0.9623 -0.2961  0.9731
18916TIP3    H278240   3.197   0.583   2.501 -0.5700 -0.0946 -0.7918
18917TIP3   OH278241   3.512   3.753  32.235  0.0461  0.3902  0.1489
18917TIP3    H178242   3.496   3.675  32.182  0.4907  0.8021 -0.6248
18917TIP3    H278243   3.494   3.726  32.325 -0.2887 -0.4591 -0.1642
18918TIP3   OH278244   2.217   3.945  18.453  0.5258 -0.5389  0.5780
18918TIP3    H178245   2.298   3.941  18.403  0.4329 -1.3408  0.4915
18918TIP3    H278246   2.245   3.941  18.545  0.5365 -1.7535  0.5329
18919TIP3   OH278247   1.515   4.123  16.716  0.2089  0.6951  0.0637
18919TIP3    H178248   1.498   4.029  16.715 -2.3376  1.0817  0.3421
18919TIP3    H278249   1.610   4.130  16.718  0.4587 -1.8712  0.8527
18920TIP3   OH278250   0.150   2.416  10.164  0.3356  0.0621  0.0891
18920TIP3    H178251   0.237   2.426  10.202  0.0630  1.0682  0.4758
18920TIP3    H278252   0.098   2.376  10.234  0.5816 -0.9846 -0.3005
18921TIP3   OH278253   1.293   3.808  38.504  0.6068 -0.1749  0.6231
18921TIP3    H178254   1.326   3.797  38.415 -0.1694 -2.2470  0.5415
18921TIP3    H278255   1.364   3.852  38.550  1.8904 -0.9675 -0.5042
18922TIP3   OH278256   3.733   1.400   8.669  0.3785 -0.4828 -0.4068
18922TIP3    H178257   3.694   1.482   8.700  0.7854 -0.5761  0.3803
18922TIP3    H278258   3.664   1.358   8.618  0.6288  1.0380 -2.1057
18923TIP3   OH278259   2.120   0.458  37.348  0.1206 -0.2488  0.1178
18923TIP3    H178260   2.204   0.469  37.304 -0.1141 -0.1892 -0.3162
18923TIP3    H278261   2.054   0.469  37.279 -0.2467 -0.2438  0.4622
18924TIP3   OH278262   3.326   4.316  10.740  0.0953 -0.1057 -0.4014
18924TIP3    H178263   3.335   4.354  10.827 -2.2032  0.0068 -0.1399
18924TIP3    H278264   3.261   4.372  10.697 -0.8048 -1.7100 -1.2243
18925TIP3   OH278265   1.126   1.021  31.827  0.0271 -0.2273  0.4193
18925TIP3    H178266   1.146   1.008  31.919  0.2542  2.1515  0.7842
18925TIP3    H278267   1.032   1.035  31.824  0.2699  1.7709  0.6530
18926TIP3   OH278268   0.204   3.982  37.015 -0.1562 -0.7798  0.6155
18926TIP3    H178269   0.255   3.906  37.042 -0.0404 -0.5681  1.0042
18926TIP3    H278270   0.263   4.032  36.958  0.1026 -0.5041  1.1126
18927TIP3   OH278271   2.772   2.763   5.382  0.1018  0.0762 -0.3191
18927TIP3    H178272   2.812   2.809   5.455  0.8628 -0.9873 -0.0375
18927TIP3    H278273   2.678   2.780   5.391  0.2758  0.6773  0.3862
18928TIP3   OH278274   4.079   1.081  23.005 -0.6973  0.4676  0.0869
18928TIP3    H178275   4.043   1.143  23.069 -1.5573 -1.7647  1.9099
18928TIP3    H278276   4.174   1.091  23.014 -0.6409  3.9930 -2.3198
18929TIP3   OH278277   2.756   0.331  10.448  0.1346  0.2854 -0.3147
18929TIP3    H178278   2.815   0.357  10.377  0.2824  0.5891 -0.0837
18929TIP3    H278279   2.802   0.359  10.528 -0.0554 -0.0024 -0.1053
18930TIP3   OH278280   1.280   1.211  32.868 -0.5167 -0.9771 -0.3906
18930TIP3    H178281   1.296   1.160  32.789 -1.8984 -1.0689 -0.6412
18930TIP3    H278282   1.185   1.218  32.873 -0.4287 -0.3491  0.8734
18931TIP3   OH278283   3.225   1.271  28.541 -0.2900  0.5677 -0.1191
18931TIP3    H178284   3.138   1.310  28.542 -0.4004  0.3035  0.9563
18931TIP3    H278285   3.218   1.199  28.478 -1.2614 -0.3613  1.0069
18932TIP3   OH278286   2.498   1.194  29.677 -0.1970 -0.4270 -0.0310
18932TIP3    H178287   2.524   1.256  29.746 -0.6866 -1.4006  1.0664
18932TIP3    H278288   2.403   1.203  29.672 -0.0638  0.4437 -1.4030
18933TIP3   OH278289   2.736   3.191  33.991 -0.2036  0.1636  0.5602
18933TIP3    H178290   2.773   3.147  33.914  0.6418  2.7862 -0.6600
18933TIP3    H278291   2.661   3.240  33.956  0.3441  1.5926  1.3146
18934TIP3   OH278292   0.949   1.174  30.345 -0.1772  0.3351  0.0057
18934TIP3    H178293   1.023   1.203  30.399  0.0930 -0.5905  0.1477
18934TIP3    H278294   0.924   1.090  30.382  0.8593 -0.9690 -2.0848
18935TIP3   OH278295   1.151   3.490  32.125 -0.3680  0.3368 -0.1741
18935TIP3    H178296   1.129   3.476  32.217  0.6418  1.3066  0.2489
18935TIP3    H278297   1.172   3.584  32.120 -2.1279  0.6840 -1.7820
18936TIP3   OH278298   2.620   3.466   6.318 -0.0981  0.4866 -0.1783
18936TIP3    H178299   2.657   3.547   6.282 -0.8246  0.6121 -0.6585
18936TIP3    H278300   2.540   3.493   6.361 -0.9179 -0.1167 -1.2813
18937TIP3   OH278301   0.354   2.562  26.477 -0.2793 -0.6356  0.5257
18937TIP3    H178302   0.343   2.471  26.505 -3.7362 -0.6807 -0.5057
18937TIP3    H278303   0.413   2.557  26.402 -2.6406 -2.5166 -1.3591
18938TIP3   OH278304   1.714   3.950  17.690 -0.1690  0.3839  0.0574
18938TIP3    H178305   1.741   3.931  17.601  1.6886  1.1494  0.4060
18938TIP3    H278306   1.650   3.883  17.711  0.8065 -0.9994 -1.1868
18939TIP3   OH278307   4.129   1.267  33.395  0.2989  0.2587 -0.0988
18939TIP3    H178308   4.087   1.192  33.354  1.5541 -0.4004 -0.2051
18939TIP3    H278309   4.223   1.255  33.380  0.7860  0.3431  2.3275
18940TIP3   OH278310   3.707   1.110  30.342 -0.1474 -0.2794  0.6110
18940TIP3    H178311   3.802   1.121  30.339 -0.3367  1.3577 -1.2060
18940TIP3    H278312   3.694   1.023  30.380  2.0909 -0.7565  0.3922
18941TIP3   OH278313   2.589   3.099  36.995  0.2994  0.3592  0.3938
18941TIP3    H178314   2.668   3.075  36.946 -0.3529 -1.7430  0.2478
18941TIP3    H278315   2.517   3.080  36.934 -0.3620  1.9161  0.6450
18942TIP3   OH278316   3.378   0.614  12.608 -0.2105  0.0356  0.1445
18942TIP3    H178317   3.446   0.564  12.653  0.1345 -1.4373 -1.8781
18942TIP3    H278318   3.296   0.581  12.644  0.0787  0.0304  0.8096
18943TIP3   OH278319   1.488   1.299   2.433 -0.0524 -0.3584  0.5545
18943TIP3    H178320   1.494   1.268   2.523  0.1869  0.5545  0.8612
18943TIP3    H278321   1.430   1.375   2.436  1.4796  0.8866  0.2983
18944TIP3   OH278322   2.988   3.211   5.549  0.8307  0.1344 -0.3064
18944TIP3    H178323   3.042   3.227   5.626 -0.1280  0.2886  0.3538
18944TIP3    H278324   2.898   3.222   5.580  0.3898 -0.6806 -1.2423
18945TIP3   OH278325   3.632   1.677   0.813 -0.7456  0.4213 -0.2314
18945TIP3    H178326   3.627   1.655   0.720 -1.4717 -0.8738  0.0969
18945TIP3    H278327   3.712   1.636   0.843 -0.2986  1.1806 -0.3549
18946TIP3   OH278328   0.762   3.312   7.914 -0.3259 -0.5057  0.6663
18946TIP3    H178329   0.718   3.393   7.940 -0.5129 -0.5399  0.4616
18946TIP3    H278330   0.843   3.340   7.872 -0.4717 -0.4213  0.4442
18947TIP3   OH278331   1.461   1.919   9.625 -0.1828 -0.1586 -0.5945
18947TIP3    H178332   1.523   1.909   9.697  1.5732  2.8735 -1.5047
18947TIP3    H278333   1.385   1.867   9.651  0.4997  0.4811  3.2608
18948TIP3   OH278334   4.326   0.548  33.038 -0.7832 -0.1825 -0.3014
18948TIP3    H178335   4.260   0.480  33.023 -1.7970  0.8537 -0.6663
18948TIP3    H278336   4.294   0.595  33.115  0.2663 -0.5134  0.3665
18949TIP3   OH278337   4.105   1.812  26.277  0.6015 -0.1000  0.3368
18949TIP3    H178338   4.174   1.783  26.218 -0.7633 -0.0734 -1.3291
18949TIP3    H278339   4.146   1.881  26.329  2.1973 -0.9995  0.3522
18950TIP3   OH278340   2.851   0.155   1.353 -0.3130  0.1277  1.0344
18950TIP3    H178341   2.938   0.126   1.381 -0.4151  0.8235  2.1303
18950TIP3    H278342   2.824   0.090   1.288  0.8596 -0.3098  0.9548
18951TIP3   OH278343   0.012   3.481   9.132 -0.6809 -0.1961  0.1435
18951TIP3    H178344  -0.018   3.510   9.218 -1.2564 -3.4165  1.1537
18951TIP3    H278345  -0.059   3.426   9.098 -0.3293  0.7036 -2.2832
18952TIP3   OH278346   1.111   0.940   6.311 -0.0307  0.7254  0.2799
18952TIP3    H178347   1.151   0.954   6.225  1.7518  0.0170  0.9314
18952TIP3    H278348   1.175   0.885   6.358 -1.8963 -0.6284  1.3608
18953TIP3   OH278349   0.416   0.237  24.928 -0.2191 -0.3147 -0.1105
18953TIP3    H178350   0.488   0.197  24.976  0.5954 -0.9058 -1.7388
18953TIP3    H278351   0.375   0.164  24.880 -1.0345  0.2336 -0.2729
18954TIP3   OH278352   0.700   1.125   2.473 -0.1604  0.4904  0.2580
18954TIP3    H178353   0.612   1.144   2.505  0.3240  2.9625  0.3337
18954TIP3    H278354   0.743   1.081   2.547 -1.2867 -0.7898  0.1999
18955TIP3   OH278355   0.883   4.375   1.088 -0.4890  0.0049 -0.3702
18955TIP3    H178356   0.977   4.365   1.069 -0.1561  0.8001  0.7631
18955TIP3    H278357   0.873   4.467   1.112 -1.1704 -0.5375  1.5794
18956TIP3   OH278358   3.247   0.065  33.195 -0.6634 -0.1480 -1.1224
18956TIP3    H178359   3.225   0.008  33.121 -0.3804  2.3947 -3.3245
18956TIP3    H278360   3.343   0.062  33.198 -0.7010 -0.8595 -0.2933
18957TIP3   OH278361   3.079   1.922   3.224  0.0880  0.2500 -0.1183
18957TIP3    H178362   3.107   2.013   3.214  0.3176  0.2405  0.4378
18957TIP3    H278363   2.997   1.917   3.176  0.1799  0.7001 -0.3243
18958TIP3   OH278364   4.018   1.715  30.310 -0.4317  0.7312  0.2062
18958TIP3    H178365   4.041   1.710  30.402 -1.0277 -1.8813  0.3075
18958TIP3    H278366   4.101   1.729  30.265  0.3080 -0.8063  1.0078
18959TIP3   OH278367   4.283   3.595  10.547 -0.0845 -0.1184  0.0122
18959TIP3    H178368   4.286   3.683  10.509  0.0444  0.1890  0.7121
18959TIP3    H278369   4.373   3.579  10.578 -0.5982  0.4537  1.9438
18960TIP3   OH278370   2.857   4.253  31.210  0.0066  0.4042 -0.3102
18960TIP3    H178371   2.845   4.347  31.197 -1.2821  0.2171 -0.6145
18960TIP3    H278372   2.803   4.232  31.287  1.1091  0.0877  0.3907
18961TIP3   OH278373   2.987   0.388  36.720 -0.2206 -0.2158  0.3185
18961TIP3    H178374   3.016   0.479  36.712  0.9874 -0.7019 -1.7290
18961TIP3    H278375   2.892   0.394  36.731 -0.0336  1.3023  1.3394
18962TIP3   OH278376   3.631   0.788  30.832 -0.6559  0.9581 -0.2214
18962TIP3    H178377   3.714   0.766  30.874 -1.4155 -1.5008  0.1774
18962TIP3    H278378   3.608   0.874  30.866  0.8453  0.8776  1.0799
18963TIP3   OH278379   2.101   4.397  40.479  0.1791  0.6813 -0.0343
18963TIP3    H178380   2.096   4.365  40.569 -0.9166  0.0040 -0.3117
18963TIP3    H278381   2.116   4.491  40.487  1.5635  0.4129  0.8304
18964TIP3   OH278382   2.837   3.120  38.908 -0.4069  0.3685 -0.2298
18964TIP3    H178383   2.927   3.145  38.931  0.2505 -0.9091 -1.2505
18964TIP3    H278384   2.796   3.201  38.879  0.1310  1.1412  1.0898
18965TIP3   OH278385   1.440   3.080  36.045  0.6872 -0.0633  0.0333
18965TIP3    H178386   1.449   3.173  36.023  1.3916 -0.0871  0.1717
18965TIP3    H278387   1.350   3.057  36.021  0.0116  1.0303  1.4019
18966TIP3   OH278388   2.605   1.100  41.146 -0.3961 -0.2269 -0.0911
18966TIP3    H178389   2.609   1.027  41.208  0.7180  0.5003  0.7216
18966TIP3    H278390   2.522   1.142  41.164 -1.8567 -2.2075 -1.6822
18967TIP3   OH278391   1.343   0.664  10.532 -0.0644 -0.3316  0.3040
18967TIP3    H178392   1.366   0.600  10.600  2.4054 -1.5838 -1.5388
18967TIP3    H278393   1.372   0.748  10.567  0.9986 -0.9279  0.9078
18968TIP3   OH278394   2.462   2.783  37.915  0.1618 -0.1228 -0.1029
18968TIP3    H178395   2.552   2.812  37.898 -0.5456  1.3884 -1.4679
18968TIP3    H278396   2.442   2.723  37.843  0.0290 -0.3742  0.1414
18969TIP3   OH278397   1.513   2.573  39.774  0.4119  0.7215  0.0090
18969TIP3    H178398   1.523   2.667  39.786 -0.5889  0.5668  2.6991
18969TIP3    H278399   1.521   2.536  39.862  0.9690 -1.7567 -0.9923
18970TIP3   OH278400   3.020   3.027  35.991 -0.1269 -0.0060 -0.0827
18970TIP3    H178401   3.024   3.020  36.087 -0.2758 -2.0015 -0.1853
18970TIP3    H278402   2.927   3.031  35.971 -0.0849  1.2709 -0.1365
18971TIP3   OH278403   3.525   4.274  11.410  0.1984 -0.4254 -0.4211
18971TIP3    H178404   3.587   4.292  11.339  1.2799 -0.4282  0.4954
18971TIP3    H278405   3.558   4.194  11.450 -0.7577 -0.7564 -0.2887
18972TIP3   OH278406   3.862   2.728  33.363 -0.7224 -0.0901 -1.0667
18972TIP3    H178407   3.864   2.811  33.316  0.1835  0.2188 -0.5164
18972TIP3    H278408   3.947   2.688  33.344 -0.1616  0.2299  0.6099
18973TIP3   OH278409   1.351   0.389  28.134  0.4008 -0.0519 -0.2722
18973TIP3    H178410   1.371   0.481  28.151 -3.6795  1.2343 -1.4110
18973TIP3    H278411   1.414   0.363  28.067 -0.5992  3.1480 -2.7045
18974TIP3   OH278412   1.268   3.981  13.404  0.3860 -0.9473  0.5389
18974TIP3    H178413   1.349   3.977  13.454  1.6722  1.7824 -1.0850
18974TIP3    H278414   1.229   4.065  13.429 -1.2000 -1.5568  0.2102
18975TIP3   OH278415   2.823   1.132  41.392  1.1695 -0.1063  0.3835
18975TIP3    H178416   2.895   1.186  41.425  2.0477 -0.3691 -1.0234
18975TIP3    H278417   2.770   1.192  41.341  0.2150  0.1401  1.6108
18976TIP3   OH278418   2.996   3.219  34.407 -0.0640 -0.1503  0.5132
18976TIP3    H178419   2.903   3.208  34.386  0.0963 -1.4677  0.3818
18976TIP3    H278420   3.006   3.312  34.425 -1.3157  0.0928  0.0625
18977TIP3   OH278421   0.616   0.134  26.695 -0.6695  0.3461 -1.1372
18977TIP3    H178422   0.671   0.146  26.772  1.7017 -1.5731 -2.3920
18977TIP3    H278423   0.646   0.201  26.634 -1.7377  1.1065 -0.8595
18978TIP3   OH278424   1.416   0.444  37.099 -0.5830 -0.0329  0.2347
18978TIP3    H178425   1.499   0.493  37.102 -1.1020  0.8039  2.0658
18978TIP3    H278426   1.352   0.507  37.066 -0.4274 -0.8790 -1.8619
18979TIP3   OH278427   2.629   2.199  39.021 -0.1215 -0.0029  0.4199
18979TIP3    H178428   2.587   2.158  38.945 -1.1345 -0.9059  1.4415
18979TIP3    H278429   2.557   2.224  39.078  0.5479  2.0157  0.4614
18980TIP3   OH278430   0.974   1.521   3.865 -0.0428  0.6701  0.4664
18980TIP3    H178431   1.024   1.474   3.799  0.8213 -1.3837  2.4735
18980TIP3    H278432   0.886   1.483   3.859  0.4232 -0.6032  1.4790
18981TIP3   OH278433   2.436   3.862   1.267  0.2158 -0.1393  0.0071
18981TIP3    H178434   2.428   3.771   1.239 -0.3824  0.2532 -1.1629
18981TIP3    H278435   2.510   3.862   1.328  1.5397 -1.0682 -1.5298
18982TIP3   OH278436   2.561   2.352   2.138  0.4701  0.6054 -0.3571
18982TIP3    H178437   2.520   2.439   2.137 -1.4216 -0.2235  0.5003
18982TIP3    H278438   2.566   2.327   2.046  0.2674  1.2769 -0.5579
18983TIP3   OH278439   2.205   1.077  30.364 -0.0798  0.5102 -0.4471
18983TIP3    H178440   2.225   1.108  30.276  0.3357 -0.5672 -0.7449
18983TIP3    H278441   2.227   1.152  30.421 -1.3294  1.5756 -1.3099
18984TIP3   OH278442   0.416   2.697  10.491  0.1394  0.0481  0.1078
18984TIP3    H178443   0.414   2.663  10.580  0.9089 -1.1196 -0.2988
18984TIP3    H278444   0.509   2.704  10.470 -0.0046 -1.7149 -1.3274
18985TIP3   OH278445   3.471   3.885  30.766  0.1713  0.6319  0.2367
18985TIP3    H178446   3.563   3.901  30.749 -0.2232  2.4372 -0.4193
18985TIP3    H278447   3.431   3.880  30.679 -0.1539 -1.7992  0.4457
18986TIP3   OH278448   1.417   3.906  33.016  0.3297 -0.0814  0.0982
18986TIP3    H178449   1.372   3.989  33.030 -0.8257 -0.9605  2.1638
18986TIP3    H278450   1.350   3.848  32.980  1.0236 -0.2501 -0.9663
18987TIP3   OH278451   3.571   1.443   6.479  0.0476 -0.2251  0.6309
18987TIP3    H178452   3.502   1.418   6.541 -0.7769  1.4394  0.4279
18987TIP3    H278453   3.652   1.426   6.526 -0.4979 -1.4096  1.1975
18988TIP3   OH278454   0.357   1.782   3.581 -0.2673  0.0902 -0.2913
18988TIP3    H178455   0.398   1.849   3.527 -0.5952  0.2560 -0.3353
18988TIP3    H278456   0.419   1.709   3.578  0.0922  0.3874 -0.2407
18989TIP3   OH278457   1.019   1.056  30.995 -0.7324  0.3340 -0.0447
18989TIP3    H178458   1.065   0.989  30.945 -1.3218 -1.0766  1.2054
18989TIP3    H278459   0.978   1.112  30.929  0.1216 -0.2811 -1.1311
18990TIP3   OH278460   4.113   2.856  36.786 -0.2654  0.4204 -0.2130
18990TIP3    H178461   4.209   2.855  36.784 -0.2431 -1.0292  0.9127
18990TIP3    H278462   4.088   2.837  36.695  0.5456 -1.8067 -0.0264
18991TIP3   OH278463   3.203   0.481   3.742  0.1197  0.3485  0.5336
18991TIP3    H178464   3.207   0.467   3.836 -1.2933 -1.4373  0.3801
18991TIP3    H278465   3.288   0.451   3.709  0.2499  0.0424  1.1408
18992TIP3   OH278466   3.515   3.430  41.361  0.2247  0.0138  0.0078
18992TIP3    H178467   3.449   3.400  41.424 -0.8202  0.6049 -0.7663
18992TIP3    H278468   3.553   3.508  41.403 -1.8358  1.5811 -0.8471
18993TIP3   OH278469   1.481   3.045  36.312 -0.1975 -0.2561  0.0383
18993TIP3    H178470   1.521   2.958  36.311 -0.1091 -0.2086 -0.7844
18993TIP3    H278471   1.458   3.063  36.221 -1.7370 -0.1060  0.4337
18994TIP3   OH278472   0.485   0.008  40.945 -0.1493  0.1249  0.1580
18994TIP3    H178473   0.525  -0.072  40.910 -1.7631 -1.5869  2.0231
18994TIP3    H278474   0.550   0.076  40.927  1.5668 -1.6744 -0.9426
18995TIP3   OH278475   2.968   3.662   3.886  0.3499 -0.3940  0.7851
18995TIP3    H178476   2.964   3.739   3.830  0.7692  0.0386  1.3380
18995TIP3    H278477   3.009   3.594   3.831 -1.8000 -0.8474 -0.3640
18996TIP3   OH278478   4.101   2.738  11.557 -0.2350 -0.4526  0.2721
18996TIP3    H178479   4.059   2.677  11.496 -2.2329  0.3472  0.7725
18996TIP3    H278480   4.100   2.692  11.641 -0.2511 -0.3495  0.3277
18997TIP3   OH278481   1.975   0.467  31.198 -0.3541 -0.1744 -0.3039
18997TIP3    H178482   1.910   0.427  31.140  0.1571  0.3160 -1.2417
18997TIP3    H278483   1.929   0.479  31.281 -1.6251  0.5943 -1.0841
18998TIP3   OH278484   1.034   3.998  36.231 -0.2151 -0.4758  0.4557
18998TIP3    H178485   0.956   3.995  36.287 -0.5085  0.7544  0.1364
18998TIP3    H278486   1.091   4.062  36.273  1.0296 -1.9710  1.1553
18999TIP3   OH278487   2.908   1.741  31.419 -0.2895  0.1663 -0.2435
18999TIP3    H178488   2.873   1.661  31.381  1.5840 -1.6975  1.6742
18999TIP3    H278489   2.882   1.737  31.511  0.2758  1.5377  0.0068
19000TIP3   OH278490   1.847   0.461  31.735 -0.6720 -0.1782 -0.4081
19000TIP3    H178491   1.793   0.383  31.730  1.2435 -1.6198  0.0437
19000TIP3    H278492   1.924   0.434  31.785 -0.1925  2.1733  0.2709
19001TIP3   OH278493   4.097   1.075  36.509  0.6059 -0.5396 -0.2416
19001TIP3    H178494   4.056   1.066  36.595 -0.7658  1.2398 -0.6678
19001TIP3    H278495   4.025   1.090  36.449  1.7250  0.8976 -1.2971
19002TIP3   OH278496   1.067   1.880  36.003  0.1355  0.2770  0.6388
19002TIP3    H178497   1.148   1.844  36.038  0.6510  1.4565  0.7091
19002TIP3    H278498   1.079   1.975  36.007  0.2306  0.5411 -2.7258
19003TIP3   OH278499   4.147   2.348   6.437  0.2005  0.4020  0.0992
19003TIP3    H178500   4.107   2.434   6.422  0.0356  0.2243 -0.4850
19003TIP3    H278501   4.092   2.308   6.505  0.3883  0.8271  0.5083
19004TIP3   OH278502   0.864   4.354   9.199  0.0081  0.0826  0.1734
19004TIP3    H178503   0.940   4.302   9.174  1.0679  1.8331 -0.3720
19004TIP3    H278504   0.861   4.349   9.295  1.5020  0.9017  0.2858
19005TIP3   OH278505   2.209   0.774  31.204  0.7540 -0.8146 -0.5420
19005TIP3    H178506   2.156   0.720  31.145 -1.3939  1.6816 -1.1013
19005TIP3    H278507   2.282   0.803  31.149 -0.3452  0.1662 -1.5530
19006TIP3   OH278508   0.558   1.716   6.423 -0.5744 -0.0992  0.4071
19006TIP3    H178509   0.563   1.652   6.352 -0.4316 -0.0989  0.4176
19006TIP3    H278510   0.559   1.663   6.503 -1.3003 -0.1338  0.3995
19007TIP3   OH278511   2.843   0.724  29.350  0.5923 -0.8868 -0.0200
19007TIP3    H178512   2.761   0.693  29.312  0.3408 -2.0459  1.3888
19007TIP3    H278513   2.821   0.806  29.393  0.7523  0.1240 -1.7867
19008TIP3   OH278514   1.566   1.739  40.459  0.2452 -0.4929 -0.1150
19008TIP3    H178515   1.537   1.737  40.368  1.9063  1.6875 -0.7797
19008TIP3    H278516   1.632   1.670  40.465 -0.0967 -0.8567 -0.4457
19009TIP3   OH278517   2.863   3.201  31.165  0.4727  0.2240  0.0927
19009TIP3    H178518   2.900   3.161  31.244 -3.6070 -1.5045  1.3853
19009TIP3    H278519   2.886   3.293  31.171  2.3136 -0.2868  1.9797
19010TIP3   OH278520   0.269   1.877  34.076 -0.3899  0.3402  0.0696
19010TIP3    H178521   0.220   1.949  34.115  0.9507  0.9536  0.7114
19010TIP3    H278522   0.340   1.860  34.139 -0.5714 -1.4307 -0.1577
19011TIP3   OH278523   1.300   1.917   0.318  0.4945 -0.0039  0.4559
19011TIP3    H178524   1.282   1.843   0.376 -0.3022 -0.0998  0.0833
19011TIP3    H278525   1.232   1.913   0.251 -0.0258  1.5122  0.8641
19012TIP3   OH278526   0.731   4.146  31.252 -0.8514 -0.0376 -0.9216
19012TIP3    H178527   0.694   4.058  31.243 -2.5409  0.6293 -0.9295
19012TIP3    H278528   0.777   4.161  31.170 -0.7068 -0.8484 -0.9946
19013TIP3   OH278529   1.523   1.872   2.327  0.8156 -0.4311 -0.0150
19013TIP3    H178530   1.505   1.944   2.267 -1.6087 -0.8471  0.1329
19013TIP3    H278531   1.514   1.793   2.274 -0.8832 -0.7804  0.7393
19014TIP3   OH278532   2.682   3.837  12.921 -0.2317  0.3045 -0.0019
19014TIP3    H178533   2.627   3.760  12.907 -0.1558 -0.1060  1.7473
19014TIP3    H278534   2.769   3.808  12.892 -0.9204  1.1271 -3.2752
19015TIP3   OH278535   1.797   1.912  12.326  0.2586 -0.0655  0.6696
19015TIP3    H178536   1.723   1.856  12.351 -0.8139  1.1747  0.3875
19015TIP3    H278537   1.818   1.885  12.236  0.0342 -0.3164  0.6911
19016TIP3   OH278538   1.056   0.862   0.298  0.6483 -0.0678  0.1524
19016TIP3    H178539   1.129   0.852   0.238  1.6754 -1.1691  1.5218
19016TIP3    H278540   1.048   0.777   0.342  0.2430  0.8033  1.8837
19017TIP3   OH278541   0.612   0.890  38.670  0.3132 -0.0141  0.0490
19017TIP3    H178542   0.685   0.883  38.731 -0.3418 -1.3435  0.7248
19017TIP3    H278543   0.555   0.816  38.692  0.1255 -0.6449 -2.2736
19018TIP3   OH278544   1.580   1.402  13.408  0.0349  0.3795  0.3505
19018TIP3    H178545   1.514   1.351  13.456  1.0687 -0.8520  0.4899
19018TIP3    H278546   1.583   1.362  13.322  0.5259  0.4978  0.3123
19019TIP3   OH278547   1.383   2.269  35.983 -0.1399  0.0012  0.0106
19019TIP3    H178548   1.395   2.357  35.948 -1.6987  0.6095  0.8809
19019TIP3    H278549   1.328   2.225  35.918 -1.6145  0.5815  0.8163
19020TIP3   OH278550   3.954   3.353  36.159 -0.0748 -0.0320  0.5443
19020TIP3    H178551   3.894   3.278  36.167  1.0378 -1.0905 -0.4634
19020TIP3    H278552   4.001   3.355  36.242  0.9233 -1.4466  0.0693
19021TIP3   OH278553   3.606   0.467  12.675 -0.2939  0.0637  0.2385
19021TIP3    H178554   3.641   0.482  12.587 -0.9312 -0.9214 -0.2075
19021TIP3    H278555   3.674   0.418  12.721 -0.4244 -0.4419 -0.0984
19022TIP3   OH278556   2.323   2.882  36.145 -0.0450 -0.4331  0.3523
19022TIP3    H178557   2.284   2.856  36.228 -1.5210  1.7533  0.4241
19022TIP3    H278558   2.262   2.852  36.078  0.9348 -1.8200  0.0303
19023TIP3   OH278559   2.669   1.414   4.045 -0.0997  0.5149 -0.3576
19023TIP3    H178560   2.666   1.343   3.981  0.1437 -0.1000  0.2882
19023TIP3    H278561   2.588   1.463   4.031  0.1892  0.6856 -1.4558
19024TIP3   OH278562   3.363   1.651  30.737  0.6552  0.0161 -0.2011
19024TIP3    H178563   3.429   1.709  30.699  0.5986  1.6088  1.9239
19024TIP3    H278564   3.396   1.632  30.825 -1.0692 -0.2308  0.4367
19025TIP3   OH278565   0.446   1.301  26.307  0.1567 -0.5925 -0.1206
19025TIP3    H178566   0.441   1.332  26.398  0.6252  0.9694 -0.6066
19025TIP3    H278567   0.368   1.335  26.265  0.1135 -1.0247 -0.3992
19026TIP3   OH278568   0.607   0.936   7.471  0.7466  0.3016  1.1268
19026TIP3    H178569   0.648   0.869   7.416 -1.9785 -1.0031  0.5331
19026TIP3    H278570   0.629   0.910   7.561  0.4517 -0.8958  0.8619
19027TIP3   OH278571   1.168   3.377  12.881  0.1344 -0.1510 -0.4088
19027TIP3    H178572   1.107   3.386  12.954 -0.0286  0.1418 -0.5780
19027TIP3    H278573   1.207   3.290  12.893  0.4037  0.0544  0.2442
19028TIP3   OH278574   1.154   2.468  16.595  0.1697  0.7420 -0.1301
19028TIP3    H178575   1.226   2.454  16.657 -0.8806 -2.5275  0.5486
19028TIP3    H278576   1.082   2.501  16.649 -0.0257  0.1593 -0.0254
19029TIP3   OH278577   2.751   1.121  36.908  0.0834  0.5972 -0.3869
19029TIP3    H178578   2.691   1.100  36.980  1.7651  2.7940  1.8404
19029TIP3    H278579   2.710   1.195  36.863 -0.4554 -0.0937 -1.0585
19030TIP3   OH278580   1.283   0.351   1.152  0.3639 -0.2343  0.1726
19030TIP3    H178581   1.322   0.377   1.069  1.4196  0.6349  0.9107
19030TIP3    H278582   1.195   0.322   1.129  0.5142  0.3052 -1.1987
19031TIP3   OH278583   1.563   3.530  35.414  0.4238 -0.3571  0.4813
19031TIP3    H178584   1.567   3.597  35.482  0.3086 -1.1681  1.3036
19031TIP3    H278585   1.494   3.560  35.354  0.4441  0.3057  0.7861
19032TIP3   OH278586   2.176   1.359   7.382 -0.2222 -0.4830 -0.1754
19032TIP3    H178587   2.111   1.427   7.403 -0.9350 -1.2150  0.0237
19032TIP3    H278588   2.176   1.301   7.459  2.3053  0.7055  0.8328
19033TIP3   OH278589   0.950   3.997   7.098  0.0762  0.6376  0.4738
19033TIP3    H178590   0.961   4.081   7.141  1.3451  0.6027  0.2388
19033TIP3    H278591   0.949   3.933   7.169  0.7749  0.7077  0.5540
19034TIP3   OH278592   0.300   0.475  38.585 -0.0300  0.0221 -0.3959
19034TIP3    H178593   0.249   0.394  38.594 -2.0623  1.3716  1.4213
19034TIP3    H278594   0.267   0.515  38.505 -0.4808  0.0033 -0.2233
19035TIP3   OH278595   1.364   1.092  27.049 -0.1032  0.2145  0.4965
19035TIP3    H178596   1.270   1.104  27.032 -0.6005 -0.4381  2.5187
19035TIP3    H278597   1.393   1.176  27.086 -0.4048 -0.2346  1.8081
19036TIP3   OH278598   1.501   2.901  26.981 -0.2025 -0.0984  0.5241
19036TIP3    H178599   1.506   2.901  27.077  2.3961  0.6948  0.4696
19036TIP3    H278600   1.567   2.964  26.954 -0.6190 -0.5872 -1.8231
19037TIP3   OH278601   3.921   0.031  10.291  0.0803  0.0387  0.4140
19037TIP3    H178602   3.834   0.013  10.328  0.0052 -0.9406 -0.2130
19037TIP3    H278603   3.938   0.123  10.314 -1.3480  0.4135  0.0974
19038TIP3   OH278604   3.866   3.655  35.247  0.1739 -0.1954  0.0594
19038TIP3    H178605   3.847   3.563  35.266  0.0095 -0.5420 -1.6234
19038TIP3    H278606   3.780   3.693  35.229  0.0122  0.7950  2.6171
19039TIP3   OH278607   2.671   1.103   7.033  0.3150  0.4379 -0.3071
19039TIP3    H178608   2.730   1.168   6.995  0.4084  1.2561  1.1417
19039TIP3    H278609   2.701   1.019   6.997  1.6491  0.9519 -0.4651
19040TIP3   OH278610   1.124   1.630  35.746  0.0937  0.1995  0.1741
19040TIP3    H178611   1.217   1.612  35.760 -0.0790 -0.4571  0.5373
19040TIP3    H278612   1.089   1.645  35.833 -0.3908 -0.8905  0.1905
19041TIP3   OH278613   3.818   1.842  34.546 -0.4730 -0.3457  0.3198
19041TIP3    H178614   3.822   1.936  34.565  3.0891 -0.3757  0.2818
19041TIP3    H278615   3.840   1.835  34.454 -3.4437 -1.1726 -0.4446
19042TIP3   OH278616   2.039   1.866   5.789  0.0566 -0.1731 -0.2589
19042TIP3    H178617   2.085   1.900   5.865  0.3281  1.7672 -1.2291
19042TIP3    H278618   2.007   1.944   5.743 -1.6798 -1.3439 -1.1734
19043TIP3   OH278619   3.643   1.163   2.311  0.1500  0.0229 -0.1307
19043TIP3    H178620   3.598   1.091   2.267 -0.4621  0.6081 -0.4761
19043TIP3    H278621   3.694   1.205   2.241 -0.4904  0.6932 -0.2104
19044TIP3   OH278622   2.074   2.342  13.430  0.0366  0.0241 -0.5150
19044TIP3    H178623   2.150   2.369  13.378 -0.0102  1.3288  0.0638
19044TIP3    H278624   2.042   2.422  13.471  0.7395 -1.0631  2.4545
19045TIP3   OH278625   4.348   1.138  38.531  0.1775 -0.3513  0.3166
19045TIP3    H178626   4.403   1.216  38.536  1.5087 -1.2190 -0.2252
19045TIP3    H278627   4.350   1.102  38.620  1.3669 -0.9446  0.0646
19046TIP3   OH278628   3.104   3.392   5.356 -0.5489  0.1986 -0.2478
19046TIP3    H178629   3.060   3.469   5.394 -0.9204  1.1694 -2.4983
19046TIP3    H278630   3.078   3.320   5.413 -2.4226  1.2870  0.3961
19047TIP3   OH278631   2.419   2.522   0.165 -0.3225  0.4384 -0.4894
19047TIP3    H178632   2.354   2.561   0.107 -0.8019  1.1961  0.5409
19047TIP3    H278633   2.383   2.533   0.253  0.4909 -0.5029 -0.0176
19048TIP3   OH278634   3.278   1.427   1.631  0.2762 -0.0652 -0.6801
19048TIP3    H178635   3.325   1.509   1.647 -0.3988  0.2048 -0.0071
19048TIP3    H278636   3.209   1.450   1.569 -1.5604  0.5225  1.4316
19049TIP3   OH278637   2.070   1.929   6.933  0.1910 -0.6527 -0.3869
19049TIP3    H178638   2.141   1.876   6.968  0.3750 -0.3525 -0.3043
19049TIP3    H278639   2.107   1.971   6.855 -0.0727 -0.9452 -0.6749
19050TIP3   OH278640   2.694   0.178  39.508  0.2220  0.4007  0.4438
19050TIP3    H178641   2.641   0.123  39.566 -4.4865  0.8196 -2.9090
19050TIP3    H278642   2.682   0.267  39.543 -0.1142  0.3353  0.4978
19051TIP3   OH278643   3.583   3.666  33.914  0.2642 -0.9564  0.0667
19051TIP3    H178644   3.571   3.646  33.821  0.9673  0.5202 -0.3707
19051TIP3    H278645   3.498   3.697  33.943  0.6375  1.0485 -0.7823
19052TIP3   OH278646   2.590   2.939   6.291  0.9969 -0.0433 -0.4244
19052TIP3    H178647   2.544   3.021   6.277 -1.8132 -1.2775  0.8227
19052TIP3    H278648   2.648   2.955   6.365 -0.2991  0.5850  0.4853
19053TIP3   OH278649   1.816   1.628   4.132 -0.6241 -0.7486 -0.7332
19053TIP3    H178650   1.809   1.639   4.226 -0.7077 -0.0346 -0.8232
19053TIP3    H278651   1.744   1.678   4.095 -0.6304 -1.0712 -1.1759
19054TIP3   OH278652   0.874   0.579  10.810  0.1041  0.1193 -0.1943
19054TIP3    H178653   0.925   0.649  10.770  1.0607  1.2855  2.8121
19054TIP3    H278654   0.937   0.508  10.824  0.0308  0.1372  0.2268
19055TIP3   OH278655   1.587   0.820  11.796  0.5360  0.2729 -0.4300
19055TIP3    H178656   1.615   0.729  11.802  0.9144  0.3597 -0.8282
19055TIP3    H278657   1.492   0.816  11.786  0.4772 -0.0514  0.1939
19056TIP3   OH278658   0.117   1.418  35.851 -0.1359  0.5105 -0.9519
19056TIP3    H178659   0.111   1.324  35.865 -0.9141  0.6564 -0.2006
19056TIP3    H278660   0.206   1.441  35.876 -1.0220  0.5410  2.8025
19057TIP3   OH278661   1.690   0.126  32.099 -0.2608 -0.3411  0.3625
19057TIP3    H178662   1.702   0.200  32.039 -0.2928  1.6477  2.6354
19057TIP3    H278663   1.768   0.128  32.154 -1.1698 -0.7831  1.7019
19058TIP3   OH278664   3.509   0.457  39.479  0.1976  0.0696 -0.2373
19058TIP3    H178665   3.545   0.417  39.399  0.7105  2.4240 -1.2596
19058TIP3    H278666   3.432   0.505  39.448  0.1487  0.6567  0.7654
19059TIP3   OH278667   0.938   0.570  36.882 -0.0406  0.3902 -0.0333
19059TIP3    H178668   1.031   0.548  36.872  0.1184  1.7357 -2.3650
19059TIP3    H278669   0.934   0.622  36.963  1.6729  2.1050 -0.9451
19060TIP3   OH278670   0.015   3.386  25.432  0.2015 -0.0066  0.5029
19060TIP3    H178671  -0.073   3.408  25.461  0.6079 -0.0522  1.8222
19060TIP3    H278672   0.009   3.298  25.397 -0.1775 -0.1993  1.0565
19061TIP3   OH278673   0.483   0.431   4.319  0.4060  0.1327 -0.6578
19061TIP3    H178674   0.447   0.510   4.358  0.2517 -0.7092  0.9775
19061TIP3    H278675   0.429   0.360   4.353  1.9768 -0.9050 -0.1974
19062TIP3   OH278676   2.692   4.107  34.084  0.2133  0.2948  0.8120
19062TIP3    H178677   2.783   4.108  34.053 -0.7087  1.1439 -2.1672
19062TIP3    H278678   2.680   4.193  34.125  0.8496  0.0086  1.6275
19063TIP3   OH278679   1.850   0.536  29.787 -0.3027 -0.3161  0.1908
19063TIP3    H178680   1.787   0.591  29.835 -1.6050 -0.6677 -1.0629
19063TIP3    H278681   1.931   0.588  29.787 -0.9869  0.7946  0.5992
19064TIP3   OH278682   4.028   2.978  28.297  0.2927  0.6210 -0.3341
19064TIP3    H178683   4.117   2.979  28.334 -0.0843  2.0816  0.6441
19064TIP3    H278684   4.024   3.057  28.243 -0.2628  0.2923 -0.7794
19065TIP3   OH278685   0.903   4.316  29.572  0.7527 -0.3866  0.0013
19065TIP3    H178686   0.819   4.299  29.530  0.7830 -1.6626  0.4074
19065TIP3    H278687   0.947   4.378  29.514 -0.8673  1.1340  0.3102
19066TIP3   OH278688   1.190   1.445  27.283  0.3124 -0.3740 -0.0297
19066TIP3    H178689   1.177   1.538  27.301  2.3099 -0.0022 -0.3033
19066TIP3    H278690   1.199   1.405  27.369  0.5785 -0.1110  0.0683
19067TIP3   OH278691   4.358   2.360   8.824 -0.4142 -0.1102  0.0830
19067TIP3    H178692   4.334   2.284   8.877 -0.1966  1.4876  2.6179
19067TIP3    H278693   4.422   2.408   8.877 -1.4762  2.4995 -0.8175
19068TIP3   OH278694   1.940   3.106  12.337  0.5599 -0.1632 -0.4036
19068TIP3    H178695   1.938   3.197  12.367  0.3898 -0.0654 -0.7056
19068TIP3    H278696   2.033   3.087  12.325  0.7369 -0.6134  1.3836
19069TIP3   OH278697   0.019   1.937  10.818  0.9056  0.1531 -0.3825
19069TIP3    H178698   0.097   1.992  10.816  0.9586  0.2030  1.1670
19069TIP3    H278699   0.020   1.899  10.906 -0.8549  0.2164 -0.3048
19070TIP3   OH278700   3.180   2.724  27.460  0.5187  0.0972  0.2047
19070TIP3    H178701   3.154   2.632  27.467  1.2550 -0.0021  2.4335
19070TIP3    H278702   3.275   2.724  27.473  0.5506  1.1542  0.0981
19071TIP3   OH278703   0.012   1.152   6.682 -0.4737 -0.7238  0.2667
19071TIP3    H178704  -0.000   1.239   6.645 -0.9574 -0.8417  0.1409
19071TIP3    H278705  -0.025   1.092   6.617 -1.2224 -0.9396  0.8753
19072TIP3   OH278706   1.944   1.022  38.906  0.2323 -0.0265  0.2385
19072TIP3    H178707   1.999   0.948  38.879  0.7266  0.0831  0.8931
19072TIP3    H278708   2.000   1.072  38.966 -1.3414 -1.2484  2.9296
19073TIP3   OH278709   2.998   2.977  37.710  0.1267 -0.3678 -0.6231
19073TIP3    H178710   3.040   2.925  37.642  0.3103 -1.3309  0.2008
19073TIP3    H278711   3.069   3.003  37.769 -0.2061 -0.7970 -0.0068
19074TIP3   OH278712   2.652   2.266  34.667 -0.4895  0.0613 -0.0686
19074TIP3    H178713   2.675   2.173  34.668  0.3058  0.2255 -1.1202
19074TIP3    H278714   2.557   2.267  34.666 -0.5318 -0.8183 -1.9680
19075TIP3   OH278715   1.813   2.332  32.690  0.4923 -0.3713 -0.3866
19075TIP3    H178716   1.737   2.318  32.747  1.3651 -1.2287  0.6029
19075TIP3    H278717   1.878   2.374  32.747  0.9599 -0.1423 -1.0838
19076TIP3   OH278718   0.291   0.793  26.874 -0.5228 -0.5084  0.1898
19076TIP3    H178719   0.336   0.721  26.919 -0.3699 -0.5061  0.0435
19076TIP3    H278720   0.232   0.830  26.940 -0.5137 -0.6922  0.3008
19077TIP3   OH278721   4.162   0.295   0.188 -0.5287  0.4647 -0.3229
19077TIP3    H178722   4.222   0.347   0.134 -0.5755  0.9525  0.0897
19077TIP3    H278723   4.186   0.315   0.278 -0.2608 -0.5708 -0.1456
19078TIP3   OH278724   2.234   2.576  29.873  0.5140 -0.1234  0.2466
19078TIP3    H178725   2.245   2.556  29.780  0.5665  0.7018  0.0637
19078TIP3    H278726   2.143   2.553  29.892  0.5909 -0.5848  0.0734
19079TIP3   OH278727   0.086   1.933  26.042  0.4001  0.5188 -0.5073
19079TIP3    H178728   0.109   1.955  25.951 -2.8911 -1.7621 -2.1030
19079TIP3    H278729   0.021   1.863  26.034  0.0501  0.1072  3.6843
19080TIP3   OH278730   0.349   1.609   2.278  0.0752 -0.4076 -0.3205
19080TIP3    H178731   0.404   1.682   2.307  1.0744  0.6333 -4.1997
19080TIP3    H278732   0.276   1.652   2.233  0.3534 -1.7554 -2.1428
19081TIP3   OH278733   2.018   3.838  29.558  0.1770 -0.1592 -0.4222
19081TIP3    H178734   2.065   3.895  29.619 -0.3821  0.1341 -0.2572
19081TIP3    H278735   2.019   3.752  29.601 -0.3159  0.0710  0.0686
19082TIP3   OH278736   1.824   1.428  10.394  0.4428  0.5250 -0.1058
19082TIP3    H178737   1.903   1.427  10.447  0.4230  0.5656 -0.0755
19082TIP3    H278738   1.842   1.366  10.323  0.5928  0.7201 -0.2365
19083TIP3   OH278739   0.831   2.371  33.113 -0.0851  0.4939  0.8281
19083TIP3    H178740   0.865   2.433  33.049 -0.7393 -0.1418 -0.1618
19083TIP3    H278741   0.908   2.341  33.161  0.4359  0.8415  0.2242
19084TIP3   OH278742   3.156   2.977  31.809  0.5886  0.4403 -0.0381
19084TIP3    H178743   3.181   2.903  31.753  1.0657  2.8161 -3.3067
19084TIP3    H278744   3.233   3.035  31.806 -0.8324  2.4262 -0.2386
19085TIP3   OH278745   3.167   4.064  28.087 -0.2320  0.1913 -0.1815
19085TIP3    H178746   3.143   3.973  28.070 -1.2143  0.1994  1.0087
19085TIP3    H278747   3.262   4.063  28.096  0.0013 -0.3434 -2.2505
19086TIP3   OH278748   1.264   4.164  28.516  0.1336 -0.2376 -0.4305
19086TIP3    H178749   1.261   4.151  28.421 -0.6276 -0.7401 -0.3490
19086TIP3    H278750   1.198   4.104  28.551 -0.0646  0.4144  0.3672
19087TIP3   OH278751   1.295   0.006   4.672  0.2039  0.4839  0.2721
19087TIP3    H178752   1.307  -0.087   4.688  1.5292  0.3141 -1.4142
19087TIP3    H278753   1.218   0.011   4.616  0.0303  0.4246  0.5044
19088TIP3   OH278754   3.407   2.780   1.134 -0.4432 -0.4610 -0.1018
19088TIP3    H178755   3.496   2.791   1.100 -0.2151 -1.4441  0.1475
19088TIP3    H278756   3.401   2.842   1.206 -0.2030  0.1075 -0.5587
19089TIP3   OH278757   3.477   1.677   7.617 -0.4326  0.3889  0.3663
19089TIP3    H178758   3.495   1.646   7.528 -0.3692  0.7084  0.2678
19089TIP3    H278759   3.514   1.765   7.620 -0.1741  0.2696  0.7998
19090TIP3   OH278760   3.708   1.018  39.096 -0.0886  0.0144  0.5490
19090TIP3    H178761   3.790   1.015  39.145  0.2555 -1.8261 -0.0825
19090TIP3    H278762   3.736   1.029  39.005 -0.3493 -3.0959  0.0142
19091TIP3   OH278763   3.520   4.202  40.744 -0.3298 -0.4269  0.4495
19091TIP3    H178764   3.553   4.119  40.777 -2.5365 -0.8321  1.8409
19091TIP3    H278765   3.478   4.179  40.661  3.2496  0.2266 -1.7792
19092TIP3   OH278766   0.011   2.316  33.342  0.1022  0.0235  0.0172
19092TIP3    H178767  -0.060   2.349  33.396 -0.2772  1.1908 -1.1241
19092TIP3    H278768  -0.027   2.307  33.255  0.9911 -0.6890 -0.3233
19093TIP3   OH278769   2.644   0.705  35.729 -0.0077 -0.0641 -0.4553
19093TIP3    H178770   2.587   0.672  35.659 -0.5518  0.4791 -0.2733
19093TIP3    H278771   2.641   0.800  35.720 -1.6614  0.1479  1.4860
19094TIP3   OH278772   1.033   3.583  14.562  0.2351 -0.3300  0.2178
19094TIP3    H178773   0.980   3.606  14.638  1.1889 -0.1491  0.8534
19094TIP3    H278774   1.068   3.667  14.531  2.0154 -0.6370  1.2477
19095TIP3   OH278775   1.506   4.154   7.195 -0.9117  0.6468  0.2138
19095TIP3    H178776   1.431   4.098   7.214 -0.6484  0.4092  0.5609
19095TIP3    H278777   1.527   4.135   7.103  0.0015 -0.8230  0.6979
19096TIP3   OH278778   0.046   3.123   9.469 -0.8558 -0.6507  0.4638
19096TIP3    H178779   0.057   3.104   9.376 -3.0142  1.5065 -0.3286
19096TIP3    H278780  -0.031   3.072   9.496  0.9826 -2.9662  1.7325
19097TIP3   OH278781   1.960   3.360  41.497  0.1130  0.0949  0.0985
19097TIP3    H178782   1.895   3.323  41.557 -0.0703  0.3307  0.0514
19097TIP3    H278783   2.020   3.408  41.554  0.1891 -0.0462  0.1359
19098TIP3   OH278784   3.888   0.529  33.933  0.3277  0.2712 -0.0205
19098TIP3    H178785   3.799   0.546  33.904 -0.2625  0.2533  1.6702
19098TIP3    H278786   3.878   0.477  34.013  1.9025 -1.0830 -0.6490
19099TIP3   OH278787   3.298   2.572   6.600 -0.5192  0.0983  0.2316
19099TIP3    H178788   3.380   2.540   6.561 -0.6802  0.5827 -0.5322
19099TIP3    H278789   3.317   2.577   6.694  0.3868  0.3594  0.0504
19100TIP3   OH278790   3.069   2.613   2.874  0.6903 -0.3398 -1.6871
19100TIP3    H178791   2.994   2.624   2.816  0.1830 -0.5642 -1.0899
19100TIP3    H278792   3.129   2.556   2.826 -0.4371 -1.8739 -1.3445
19101TIP3   OH278793   3.066   2.628  39.832  0.2142 -0.0019 -0.3805
19101TIP3    H178794   3.028   2.693  39.773  1.0827  0.5535 -0.3482
19101TIP3    H278795   3.027   2.648  39.917  0.9290  0.9021 -0.2372
19102TIP3   OH278796   3.213   0.919  10.399 -0.3037  0.0352 -0.8761
19102TIP3    H178797   3.183   0.830  10.382  0.2177 -0.2063 -0.5415
19102TIP3    H278798   3.223   0.958  10.312  0.6688 -0.6367 -1.0806
19103TIP3   OH278799   2.423   3.985   6.406 -0.0657  0.1405  0.0308
19103TIP3    H178800   2.347   3.940   6.369  1.9474 -3.0407 -0.6532
19103TIP3    H278801   2.468   3.917   6.458  0.9075  2.6155  2.7181
19104TIP3   OH278802   0.479   2.713  13.277  0.0321  0.7268 -0.0391
19104TIP3    H178803   0.465   2.750  13.364  0.0449 -1.2962  0.8788
19104TIP3    H278804   0.412   2.645  13.269  0.1820  0.7366 -1.5293
19105TIP3   OH278805   1.341   2.026  12.584  0.0753 -0.4226 -0.0827
19105TIP3    H178806   1.346   2.054  12.492 -0.6880 -0.6275 -0.2021
19105TIP3    H278807   1.282   2.090  12.625  0.7806 -0.0574  0.3845
19106TIP3   OH278808   2.467   3.973  36.013  0.1147  0.2722  0.3986
19106TIP3    H178809   2.475   3.994  35.920  0.5088  0.0512  0.3813
19106TIP3    H278810   2.385   3.924  36.020  1.2916 -1.9448 -0.2536
19107TIP3   OH278811   0.528   2.139  39.608  0.2101 -0.0064 -0.5184
19107TIP3    H178812   0.589   2.067  39.622 -0.8300 -0.8052  0.0381
19107TIP3    H278813   0.521   2.147  39.512 -0.2403 -1.1576 -0.5958
19108TIP3   OH278814   0.237   2.858  21.731 -0.4197  0.4029  0.4749
19108TIP3    H178815   0.265   2.771  21.702  0.4071  1.4171 -2.0271
19108TIP3    H278816   0.311   2.915  21.712 -0.2926  1.4858  3.5881
19109TIP3   OH278817   0.489   2.182  27.061  0.7185 -0.4140  0.1272
19109TIP3    H178818   0.454   2.239  27.129  2.7515 -0.0043  0.9167
19109TIP3    H278819   0.540   2.116  27.108  1.4670 -0.6332 -0.9339
19110TIP3   OH278820   0.462   3.600  13.593 -0.2442  0.3243 -0.2215
19110TIP3    H178821   0.453   3.651  13.673  0.5583  1.0364 -0.5700
19110TIP3    H278822   0.505   3.659  13.531  1.5354 -1.0438 -0.3669
19111TIP3   OH278823   3.868   1.013  25.812  0.1359 -0.2244 -0.3282
19111TIP3    H178824   3.932   0.981  25.876 -0.2394 -1.4858 -0.5770
19111TIP3    H278825   3.802   1.058  25.866 -0.3894 -1.6226  0.2453
19112TIP3   OH278826   0.600   2.636  27.940  0.2403  0.0476  1.1233
19112TIP3    H178827   0.603   2.620  28.035 -0.8183  0.9897  1.3415
19112TIP3    H278828   0.510   2.664  27.924 -0.3834 -2.6452 -0.6154
19113TIP3   OH278829   4.137   3.818  34.913 -0.2812 -1.2184  0.6079
19113TIP3    H178830   4.062   3.775  34.873 -0.5797 -0.0823 -0.1062
19113TIP3    H278831   4.109   3.837  35.002 -1.4874  0.6169 -0.1054
19114TIP3   OH278832   1.387   0.225  33.816 -0.3394  0.4347  0.3937
19114TIP3    H178833   1.373   0.315  33.787 -1.1761 -0.1418 -1.0862
19114TIP3    H278834   1.323   0.173  33.767  1.1172 -1.1570  0.0460
19115TIP3   OH278835   1.129   3.185  39.967  0.4376  0.2029 -0.2633
19115TIP3    H178836   1.134   3.270  40.010  0.7707 -0.2780  0.6762
19115TIP3    H278837   1.124   3.122  40.038 -0.9600 -0.5160 -0.9562
19116TIP3   OH278838   1.902   0.509  33.752  0.2557  0.6024  0.7783
19116TIP3    H178839   1.969   0.574  33.734  1.0445  0.0315  1.5898
19116TIP3    H278840   1.831   0.529  33.690 -0.0666  3.0017  1.8426
19117TIP3   OH278841   2.320   2.226   1.592 -0.1349  0.0842 -0.1625
19117TIP3    H178842   2.302   2.135   1.617  1.6541 -0.3833 -0.4035
19117TIP3    H278843   2.414   2.228   1.575 -0.3465  1.7028 -1.4107
19118TIP3   OH278844   1.461   0.491  36.082 -0.3131  0.4639 -0.8855
19118TIP3    H178845   1.367   0.484  36.097  0.1705 -3.0570  1.8146
19118TIP3    H278846   1.492   0.549  36.152 -0.1132 -1.6061  0.8213
19119TIP3   OH278847   0.561   1.431   8.311  0.3604  0.2212  0.2184
19119TIP3    H178848   0.589   1.351   8.268  2.0995  1.6581 -1.5239
19119TIP3    H278849   0.519   1.482   8.241 -1.8735  0.3654  1.5729
19120TIP3   OH278850   0.518   1.479   4.361  0.8372 -0.2550 -0.1044
19120TIP3    H178851   0.613   1.474   4.353  0.8371 -0.5025  0.0410
19120TIP3    H278852   0.502   1.517   4.447  0.8105  0.3213 -0.3612
19121TIP3   OH278853   2.877   1.908  40.196 -0.3454  0.6030  0.7367
19121TIP3    H178854   2.819   1.953  40.257 -1.7178  0.4518 -0.4152
19121TIP3    H278855   2.823   1.839  40.157  0.5343  0.5923 -0.5320
19122TIP3   OH278856   0.267   0.050  39.313  0.0970  0.1484  0.2049
19122TIP3    H178857   0.272  -0.042  39.285  1.4085  0.1429  0.3632
19122TIP3    H278858   0.174   0.070  39.313 -0.1559 -0.8859 -0.8057
19123TIP3   OH278859   3.185   3.286   7.162  0.1707  0.6999 -0.0837
19123TIP3    H178860   3.250   3.231   7.206 -2.1039 -2.2654 -0.0887
19123TIP3    H278861   3.231   3.321   7.086  1.9273 -0.8234  0.2021
19124TIP3   OH278862   3.613   3.529  27.232  0.5207 -0.0307  0.3434
19124TIP3    H178863   3.664   3.452  27.208 -0.0393 -0.7997  1.4770
19124TIP3    H278864   3.600   3.577  27.151  1.2976 -0.8897 -0.2999
19125TIP3   OH278865   1.683   1.198   0.644  0.2321 -0.1790 -1.1415
19125TIP3    H178866   1.745   1.256   0.599 -0.3786  0.5810 -0.9982
19125TIP3    H278867   1.616   1.256   0.680 -2.1448 -1.1415 -3.6694
19126TIP3   OH278868   1.630   1.080  31.724 -0.0246  0.3727 -0.2670
19126TIP3    H178869   1.574   1.003  31.733 -0.4644  0.8207  1.1776
19126TIP3    H278870   1.676   1.067  31.642  0.3960 -1.7441  0.2511
19127TIP3   OH278871   1.701   2.410  27.959  0.0410  0.1594  0.0116
19127TIP3    H178872   1.668   2.498  27.942 -0.3564 -0.3428 -2.0659
19127TIP3    H278873   1.741   2.383  27.877  0.7913 -1.3401  0.8330
19128TIP3   OH278874   2.717   3.250  37.381 -0.4501 -0.2285  0.3208
19128TIP3    H178875   2.754   3.242  37.293  0.6214  1.8575  0.5074
19128TIP3    H278876   2.787   3.220  37.439  0.4132  2.1001  0.5904
19129TIP3   OH278877   4.234   3.159  39.667  0.6391  0.0493  0.4313
19129TIP3    H178878   4.199   3.155  39.756  0.5071 -0.7935  0.3485
19129TIP3    H278879   4.157   3.157  39.611  0.7750 -0.8994  0.2676
19130TIP3   OH278880   3.154   1.146  35.563 -0.0097  0.1891 -0.2123
19130TIP3    H178881   3.100   1.167  35.487  1.4162  0.2789 -1.2442
19130TIP3    H278882   3.157   1.051  35.566  0.2683  0.1893 -0.5138
19131TIP3   OH278883   3.713   2.415  38.884  0.2119 -0.4223  0.6911
19131TIP3    H178884   3.740   2.507  38.885 -0.9546 -0.0226 -0.7521
19131TIP3    H278885   3.772   2.374  38.821  0.8159 -0.7029  1.4314
19132TIP3   OH278886   3.314   1.288  41.362  0.4493  0.8676 -0.1257
19132TIP3    H178887   3.241   1.262  41.418  0.8932  0.1778  0.1503
19132TIP3    H278888   3.353   1.363  41.407  1.5254 -0.3959  1.1607
19133TIP3   OH278889   2.662   0.927  29.108  0.1064 -0.2252  0.3178
19133TIP3    H178890   2.705   1.010  29.088  0.7503 -0.8322 -0.9981
19133TIP3    H278891   2.691   0.906  29.197  1.1728  0.2216  0.0949
19134TIP3   OH278892   3.896   4.222  32.748  0.1062 -0.3655  0.3350
19134TIP3    H178893   3.867   4.258  32.664 -0.9524 -0.7261  0.5295
19134TIP3    H278894   3.897   4.297  32.808  0.0664 -0.2608  0.2035
19135TIP3   OH278895   1.220   2.785  31.456 -0.4530  0.3206 -0.7014
19135TIP3    H178896   1.287   2.853  31.464 -1.1725  0.9233  0.5136
19135TIP3    H278897   1.267   2.710  31.419  1.2276  0.2898  1.3190
19136TIP3   OH278898   3.032   1.965  27.910 -0.5947 -0.1293 -0.5246
19136TIP3    H178899   2.993   2.014  27.982 -1.8150 -0.6570 -0.8001
19136TIP3    H278900   3.121   1.945  27.939 -0.8153  0.3459  0.4972
19137TIP3   OH278901   3.223   0.323  28.045  0.0197  0.0790  0.7392
19137TIP3    H178902   3.137   0.280  28.040  0.2923 -0.5323  1.1640
19137TIP3    H278903   3.209   0.410  28.008 -0.5430 -0.3870 -0.1944
19138TIP3   OH278904   0.987   3.315  37.321  0.1553 -0.4638  0.6376
19138TIP3    H178905   1.062   3.305  37.380  0.6741 -1.0084 -0.1059
19138TIP3    H278906   1.004   3.255  37.249 -1.1913 -0.8881  0.6419
19139TIP3   OH278907   0.527   2.974  26.397 -0.0288  0.1396 -0.1784
19139TIP3    H178908   0.462   3.004  26.333  0.6647 -0.5173 -1.2310
19139TIP3    H278909   0.481   2.908  26.449 -0.1834 -0.4461 -1.0252
19140TIP3   OH278910   4.083   1.686  12.486 -0.1505 -0.4756 -0.1408
19140TIP3    H178911   4.009   1.673  12.427 -0.7331 -1.6798  0.7923
19140TIP3    H278912   4.079   1.611  12.546  0.3421  0.7271  1.4777
19141TIP3   OH278913   1.901   0.629  28.802  0.1576  0.6206  0.3921
19141TIP3    H178914   1.969   0.683  28.842  0.4246  2.9214 -2.7980
19141TIP3    H278915   1.916   0.541  28.839  3.0826  1.6042  1.8944
19142TIP3   OH278916   1.199   1.236  39.606 -0.0298  0.6471 -0.3419
19142TIP3    H178917   1.255   1.293  39.553  0.5311  1.5702  1.1846
19142TIP3    H278918   1.196   1.278  39.692 -3.1369  0.6808 -0.3561
19143TIP3   OH278919   1.739   3.162  28.717  0.1593 -0.5235  0.2087
19143TIP3    H178920   1.709   3.182  28.629  0.2198 -1.0481  0.0602
19143TIP3    H278921   1.659   3.144  28.767  0.1480 -0.6619  0.1424
19144TIP3   OH278922   4.346   2.107   8.967  0.5760 -0.2432  0.3871
19144TIP3    H178923   4.328   2.035   8.907 -0.9859 -0.4864  1.0969
19144TIP3    H278924   4.422   2.077   9.018 -0.7638 -1.9846  1.4926
19145TIP3   OH278925   3.757   2.468  28.540 -0.5598  0.0577  0.2748
19145TIP3    H178926   3.734   2.557  28.566  1.4207  0.6751  0.0671
19145TIP3    H278927   3.830   2.445  28.597 -0.1119 -0.8745 -0.6588
19146TIP3   OH278928   0.304   3.212   1.834 -0.3164  0.2422  0.1306
19146TIP3    H178929   0.390   3.179   1.811 -0.0383  1.0595 -0.0201
19146TIP3    H278930   0.321   3.285   1.893 -0.9411 -0.1911  0.8738
19147TIP3   OH278931   0.440   1.295   1.009  0.1696 -0.0102 -0.0177
19147TIP3    H178932   0.352   1.293   0.971 -0.2274 -1.2315  0.8705
19147TIP3    H278933   0.449   1.209   1.051  0.8705  0.9417  1.8893
19148TIP3   OH278934   3.568   1.021  40.495  0.5034 -0.1429  0.2665
19148TIP3    H178935   3.571   0.925  40.492  0.1857 -0.1445 -2.0693
19148TIP3    H278936   3.623   1.049  40.423 -0.1653  1.4128  0.3229
19149TIP3   OH278937   0.128   3.344  32.297 -0.4827  0.4051  0.1638
19149TIP3    H178938   0.131   3.408  32.226  1.2047  1.4195  1.0578
19149TIP3    H278939   0.036   3.319  32.303 -0.8617  1.2043 -1.5564
19150TIP3   OH278940   1.189   1.899  37.088  0.3164  0.2517  0.3114
19150TIP3    H178941   1.277   1.873  37.060 -0.3535 -1.7208 -0.1172
19150TIP3    H278942   1.134   1.882  37.011 -0.9095 -1.4187  1.4927
19151TIP3   OH278943   1.142   1.015  28.921 -0.2634  0.2269 -0.4196
19151TIP3    H178944   1.098   1.073  28.984 -0.9911  0.6766 -1.3158
19151TIP3    H278945   1.229   1.000  28.959 -0.8394  0.1196  0.9092
19152TIP3   OH278946   2.577   1.295   6.068 -0.0334 -0.0284 -0.3367
19152TIP3    H178947   2.606   1.381   6.099  1.6822 -0.9088  0.6477
19152TIP3    H278948   2.539   1.312   5.982  0.7102  1.6587 -0.3679
19153TIP3   OH278949   2.339   2.387  36.825  0.0558  0.6313  0.1083
19153TIP3    H178950   2.348   2.314  36.886 -0.1712  1.3069  0.9678
19153TIP3    H278951   2.262   2.365  36.773  1.3216 -0.8625 -1.2518
19154TIP3   OH278952   0.130   3.869  41.505  0.3269  0.1044  0.6504
19154TIP3    H178953   0.136   3.899  41.596 -0.0426  0.2681  0.6197
19154TIP3    H278954   0.158   3.944  41.453  0.4709  0.0325  0.6229
19155TIP3   OH278955   2.590   0.084   7.298 -0.1349  0.2249 -0.3869
19155TIP3    H178956   2.626   0.027   7.230  1.1311  0.2221  0.2549
19155TIP3    H278957   2.495   0.071   7.292  0.1090 -2.6202  0.2669
19156TIP3   OH278958   2.148   4.223  29.188  0.1474  0.5694  0.7233
19156TIP3    H178959   2.149   4.268  29.103  1.9678  0.6849  0.7718
19156TIP3    H278960   2.163   4.293  29.252  2.0833  0.0639  0.8698
19157TIP3   OH278961   0.957   0.254  16.509 -0.3449  0.0910  0.1240
19157TIP3    H178962   0.947   0.350  16.503 -2.9162 -0.1429 -0.7463
19157TIP3    H278963   0.995   0.229  16.425 -1.4889  0.2210 -0.4600
19158TIP3   OH278964   1.094   4.316  33.167 -0.2425 -0.0623 -0.6381
19158TIP3    H178965   1.078   4.225  33.143  0.0737 -0.1801 -0.4046
19158TIP3    H278966   1.110   4.314  33.261 -0.1571  0.2268 -0.6466
19159TIP3   OH278967   1.271   0.999  38.433 -0.5168 -0.3260  0.2103
19159TIP3    H178968   1.249   0.948  38.511 -0.1533 -2.2694 -0.8898
19159TIP3    H278969   1.362   1.024  38.447 -0.6991  0.0568  0.7637
19160TIP3   OH278970   3.926   0.837  11.511  0.1088 -0.1575  0.5127
19160TIP3    H178971   3.963   0.793  11.588  0.3969 -0.4469  0.2091
19160TIP3    H278972   3.852   0.783  11.486  1.7955 -1.8081 -1.2448
19161TIP3   OH278973   4.271   2.084  35.399 -0.1725  0.2444 -0.2624
19161TIP3    H178974   4.266   2.075  35.304 -0.6312  1.8420 -0.4111
19161TIP3    H278975   4.186   2.056  35.431  0.4205 -1.5771 -0.1732
19162TIP3   OH278976   3.340   0.333   5.407  0.1495  0.0890 -0.4092
19162TIP3    H178977   3.331   0.352   5.313  1.2883 -3.1937 -1.2932
19162TIP3    H278978   3.420   0.379   5.433  0.7470 -0.3216 -1.4759
19163TIP3   OH278979   2.223   4.319   4.260 -0.1817 -0.2253 -0.4826
19163TIP3    H178980   2.199   4.363   4.341 -0.4930  0.7694 -1.0974
19163TIP3    H278981   2.142   4.280   4.228 -0.4867  0.9406 -1.2280
19164TIP3   OH278982   0.415   2.614  31.900 -0.0931  0.2174  0.5437
19164TIP3    H178983   0.465   2.695  31.887  0.4106  0.0289  1.2306
19164TIP3    H278984   0.473   2.545  31.868 -0.2752  0.0749  0.5209
19165TIP3   OH278985   0.566   2.826  37.949 -0.1331  0.0041  0.0801
19165TIP3    H178986   0.607   2.911  37.929 -0.3563 -0.0713 -0.7318
19165TIP3    H278987   0.560   2.782  37.864 -0.2390 -0.7292  0.4587
19166TIP3   OH278988   1.254   2.302  32.762 -0.3479 -0.8788 -0.4759
19166TIP3    H178989   1.268   2.227  32.703 -1.7177 -1.0861 -0.5731
19166TIP3    H278990   1.178   2.277  32.814  0.0750 -0.1559  0.5134
19167TIP3   OH278991   0.037   3.283  11.694 -0.6561  0.2147 -0.2716
19167TIP3    H178992   0.111   3.307  11.638 -0.9143  0.4409 -0.5174
19167TIP3    H278993   0.073   3.284  11.782  0.6756 -3.3883 -0.6017
19168TIP3   OH278994   3.220   0.416   2.754  0.2814 -0.1210 -0.3031
19168TIP3    H178995   3.167   0.365   2.693 -1.4850  1.7768 -0.4582
19168TIP3    H278996   3.210   0.370   2.838  0.3540 -1.1249 -0.8276
19169TIP3   OH278997   1.969   3.292   7.602 -0.0801  0.1278  0.1285
19169TIP3    H178998   2.032   3.224   7.627  0.8221  0.6097 -0.7607
19169TIP3    H278999   2.000   3.370   7.647  0.2201  0.4658 -0.6501
19170TIP3   OH279000   2.511   0.027   3.205  0.7745 -0.0668 -0.1619
19170TIP3    H179001   2.588   0.042   3.149  0.0737  2.3348 -0.6059
19170TIP3    H279002   2.438   0.022   3.145  0.0412  2.2755  0.4285
19171TIP3   OH279003   3.693   1.159  22.245  0.4670 -0.4269  0.1000
19171TIP3    H179004   3.736   1.198  22.321 -1.7271  0.4434  0.9876
19171TIP3    H279005   3.757   1.098  22.210  2.3853  0.8042  1.2987
19172TIP3   OH279006   1.527   1.264   1.225 -0.7273 -0.2884 -0.6430
19172TIP3    H179007   1.604   1.207   1.212 -0.8045 -0.6702  0.4742
19172TIP3    H279008   1.452   1.206   1.214 -0.8005 -0.8218  1.9965
19173TIP3   OH279009   2.307   0.160   7.950 -0.6408  0.0785  0.0539
19173TIP3    H179010   2.246   0.091   7.925  0.4561 -0.9791  0.2035
19173TIP3    H279011   2.376   0.156   7.884 -1.9395  2.9934 -1.6507
19174TIP3   OH279012   0.612   2.520  11.788  0.2866  0.1360 -0.0693
19174TIP3    H179013   0.519   2.541  11.785  0.8365  3.4592  1.2042
19174TIP3    H279014   0.635   2.498  11.698 -1.5362  0.2032 -0.5809
19175TIP3   OH279015   0.074   3.153  30.313 -0.7125  0.6011  0.2310
19175TIP3    H179016   0.159   3.111  30.321 -1.0361  0.2906  2.7593
19175TIP3    H279017   0.083   3.235  30.361 -1.7377  0.7400  0.2078
19176TIP3   OH279018   2.580   0.195  27.864  0.6393  0.1472  0.2979
19176TIP3    H179019   2.525   0.141  27.920  0.2632 -0.3778 -0.5578
19176TIP3    H279020   2.559   0.167  27.775 -0.8067  2.8281 -0.3343
19177TIP3   OH279021   1.709   1.947   3.874 -0.1541  0.0340  0.2651
19177TIP3    H179022   1.694   1.981   3.786  0.1098  0.9150  0.5521
19177TIP3    H279023   1.747   2.020   3.922 -2.7064  0.4342  1.8760
19178TIP3   OH279024   4.082   2.651  12.351  0.0368  0.4064 -0.1106
19178TIP3    H179025   4.116   2.653  12.440  1.5437  2.0527 -0.6556
19178TIP3    H279026   4.012   2.715  12.350  1.3418  1.8935 -0.5330
19179TIP3   OH279027   3.394   1.890  10.434  0.5390 -0.7964 -0.1242
19179TIP3    H179028   3.422   1.822  10.495  1.8513 -0.8254 -0.7079
19179TIP3    H279029   3.306   1.865  10.408  0.6473 -1.7566  0.4036
19180TIP3   OH279030   3.203   4.190   2.734 -0.5460  0.4921 -0.0361
19180TIP3    H179031   3.203   4.107   2.782  0.8946  1.1070  1.0834
19180TIP3    H279032   3.277   4.182   2.673 -1.9632 -0.0218 -1.7922
19181TIP3   OH279033   2.237   1.085  38.471 -0.1734  0.5695 -0.2873
19181TIP3    H179034   2.317   1.095  38.522  0.3244  1.5133 -1.2216
19181TIP3    H279035   2.262   1.028  38.398 -0.8635 -0.7188  0.4483
19182TIP3   OH279036   0.225   0.628   6.799 -1.1635 -0.0447  0.6688
19182TIP3    H179037   0.211   0.712   6.756  1.9252  1.4404  2.2660
19182TIP3    H279038   0.226   0.564   6.727 -1.8030  1.4960 -0.7780
19183TIP3   OH279039   1.701   1.092   9.384 -0.9498  0.2545  0.0258
19183TIP3    H179040   1.713   1.087   9.478 -0.7281  0.6066  0.0183
19183TIP3    H279041   1.612   1.058   9.369  0.0874 -2.7774  0.0337
19184TIP3   OH279042   2.953   0.979  13.190  0.3673 -0.4827  0.0549
19184TIP3    H179043   3.031   0.992  13.244 -0.0933 -2.1443  1.2044
19184TIP3    H279044   2.961   0.889  13.158 -2.0200 -1.4577  1.8744
19185TIP3   OH279045   1.331   0.086  37.804 -0.4730  0.3255 -0.1559
19185TIP3    H179046   1.376   0.004  37.822 -0.7167  0.4951  1.3403
19185TIP3    H279047   1.282   0.069  37.724  1.6072 -0.1007 -1.4186
19186TIP3   OH279048   2.808   3.389  39.322  0.0772 -0.3417 -0.2733
19186TIP3    H179049   2.778   3.327  39.255  2.4015 -1.3263 -0.5165
19186TIP3    H279050   2.742   3.384  39.391 -1.5180 -0.5519 -1.7642
19187TIP3   OH279051   2.155   2.575  31.958 -0.1691  0.1953 -0.0647
19187TIP3    H179052   2.205   2.616  31.887  2.1997 -2.1069  0.1083
19187TIP3    H279053   2.184   2.622  32.037 -1.3822  1.4998 -0.3523
19188TIP3   OH279054   0.311   1.935  38.405 -0.3662 -0.2155 -1.1196
19188TIP3    H179055   0.301   1.848  38.445  1.2521 -0.6605 -1.5731
19188TIP3    H279056   0.246   1.990  38.449  0.3000 -1.0446  1.0468
19189TIP3   OH279057   2.718   2.063  27.462 -0.1036  0.1164  0.1767
19189TIP3    H179058   2.778   2.014  27.406  0.4216 -0.3164  1.1119
19189TIP3    H279059   2.634   2.019  27.450  0.4836 -1.4375  1.4741
19190TIP3   OH279060   1.763   3.189  34.440 -0.1805  0.0810 -0.0447
19190TIP3    H179061   1.708   3.222  34.510 -1.2318 -1.6937  0.0156
19190TIP3    H279062   1.779   3.265  34.384 -2.7765  0.6676 -0.1151
19191TIP3   OH279063   0.938   2.173   9.562  0.5103  0.6433 -0.1613
19191TIP3    H179064   0.868   2.127   9.516 -0.5965  0.8295  1.2483
19191TIP3    H279065   1.004   2.106   9.580  0.6322  0.4262 -1.3480
19192TIP3   OH279066   0.431   1.598   4.604  0.1938  0.4077 -0.2258
19192TIP3    H179067   0.475   1.669   4.651  2.3447  0.8350 -2.6221
19192TIP3    H279068   0.394   1.543   4.672  2.5385  1.3081  1.9287
19193TIP3   OH279069   1.552   3.800  11.339 -0.2811  0.0520  0.3498
19193TIP3    H179070   1.568   3.707  11.328  1.0607  0.4520 -1.7832
19193TIP3    H279071   1.498   3.824  11.264 -1.2151  0.8735  1.2631
19194TIP3   OH279072   3.243   3.979   9.798  0.2231  0.7570 -0.0971
19194TIP3    H179073   3.159   4.019   9.774  0.4174  0.9666 -0.4443
19194TIP3    H279074   3.274   4.033   9.871  0.1458  0.8017 -0.0963
19195TIP3   OH279075   2.043   2.864   1.305 -0.1337  0.1553  0.1666
19195TIP3    H179076   2.002   2.872   1.391  0.5233 -0.2195  0.5242
19195TIP3    H279077   1.992   2.922   1.248 -0.6223  0.3429  0.7883
19196TIP3   OH279078   1.539   1.556  32.069 -0.2957  0.0395 -0.3207
19196TIP3    H179079   1.532   1.624  32.002  1.7089 -1.4624 -2.1860
19196TIP3    H279080   1.595   1.595  32.136 -0.4470  0.7621 -0.5939
19197TIP3   OH279081   2.438   1.307  28.735  0.1523  0.6875  0.0073
19197TIP3    H179082   2.412   1.387  28.688  3.6520 -0.1560 -3.9039
19197TIP3    H279083   2.395   1.236  28.686 -0.6438 -0.0609  1.7127
19198TIP3   OH279084   3.529   1.067  12.214 -0.6234  0.2752  0.8184
19198TIP3    H179085   3.518   0.986  12.164 -1.6815  0.8287  0.1006
19198TIP3    H279086   3.459   1.064  12.279 -2.4804  1.8221 -0.9618
19199TIP3   OH279087   1.095   3.048  29.017 -0.3130 -0.0575  0.4939
19199TIP3    H179088   1.036   3.051  28.942 -1.9783 -0.4177  1.7245
19199TIP3    H279089   1.172   3.098  28.990 -0.9118 -0.0930 -1.3904
19200TIP3   OH279090   1.838   4.090   2.508  0.0880 -0.1905  0.5376
19200TIP3    H179091   1.903   4.160   2.501 -0.7746  0.6509  0.7972
19200TIP3    H279092   1.764   4.130   2.554  0.0186 -1.5835  1.6986
19201TIP3   OH279093   0.583   0.852  36.543  0.2253 -0.2422 -0.7115
19201TIP3    H179094   0.656   0.912  36.529  0.6489 -0.6452 -0.2714
19201TIP3    H279095   0.606   0.804  36.622 -0.6448 -0.1873 -0.4077
19202TIP3   OH279096   1.945   1.988   9.626 -0.0498 -0.5082  0.1874
19202TIP3    H179097   2.017   2.050   9.636 -0.8145  0.8671 -2.0607
19202TIP3    H279098   1.915   1.971   9.716  0.0245  2.6406  0.9167
19203TIP3   OH279099   2.768   3.850   6.062  0.5457  0.4318  0.8086
19203TIP3    H179100   2.762   3.943   6.084 -1.0688  0.6965 -0.5296
19203TIP3    H279101   2.787   3.849   5.968  1.3825 -0.6115  0.9745
19204TIP3   OH279102   4.212   0.498   4.508  0.7867 -0.2813  0.9386
19204TIP3    H179103   4.174   0.586   4.500 -1.4114 -0.8338  3.6858
19204TIP3    H279104   4.177   0.464   4.590  2.2002 -3.4644  0.3831
19205TIP3   OH279105   3.102   3.580  36.445  0.6281 -0.2544 -0.0932
19205TIP3    H179106   3.021   3.612  36.485  1.8303  2.8313  0.1342
19205TIP3    H279107   3.158   3.557  36.520  1.3718  1.5037 -0.0807
19206TIP3   OH279108   3.069   3.230  40.494 -0.3404  0.0997 -0.3953
19206TIP3    H179109   3.016   3.309  40.503 -3.3778 -1.5328 -2.3195
19206TIP3    H279110   3.138   3.239  40.560 -0.2793  4.4707 -0.7909
19207TIP3   OH279111   1.267   1.232  34.954 -0.7690 -0.0025  0.5794
19207TIP3    H179112   1.242   1.144  34.984 -2.0603 -0.0571 -0.5592
19207TIP3    H279113   1.281   1.222  34.860  2.1779  0.3913  0.8705
19208TIP3   OH279114   0.174   2.817  41.618  0.2085  0.0220 -0.2869
19208TIP3    H179115   0.133   2.761  41.683  2.7894  0.4883  1.9360
19208TIP3    H279116   0.126   2.799  41.537 -2.6257 -1.2106  1.4978
19209TIP3   OH279117   2.018   0.002  15.513 -0.1827  0.1569  0.2870
19209TIP3    H179118   2.017  -0.067  15.446 -1.7641  0.8136 -0.4072
19209TIP3    H279119   1.966   0.073  15.476 -0.4100  0.8667  1.8815
19210TIP3   OH279120   0.870   2.466   3.541  0.2020 -0.3377  0.0314
19210TIP3    H179121   0.848   2.490   3.631 -0.4594 -1.7963  0.2947
19210TIP3    H279122   0.863   2.548   3.492 -1.5970  0.1028  0.9281
19211TIP3   OH279123   3.259   0.670   9.598 -0.6182  0.4304 -0.1230
19211TIP3    H179124   3.313   0.656   9.520  0.1369  0.3903  0.3936
19211TIP3    H279125   3.181   0.715   9.566 -1.3214 -1.4681 -1.2330
19212TIP3   OH279126   1.652   4.058  28.920  0.1917  0.1457 -0.6008
19212TIP3    H179127   1.652   4.132  28.980  0.1842  0.7267 -1.3070
19212TIP3    H279128   1.562   4.024  28.924  0.4639 -0.4803  0.5053
19213TIP3   OH279129   2.874   0.450  30.919  0.7272 -0.0323  0.3965
19213TIP3    H179130   2.819   0.528  30.913  1.6199  0.5823 -0.0149
19213TIP3    H279131   2.812   0.377  30.921 -0.1180  0.6801  0.7362
19214TIP3   OH279132   1.606   2.313   7.965 -0.1189 -0.6506  0.0185
19214TIP3    H179133   1.700   2.321   7.953 -0.2216  1.3110  0.2264
19214TIP3    H279134   1.570   2.313   7.876  0.0426 -0.7190 -0.0455
19215TIP3   OH279135   1.012   2.054  31.023  0.3813  0.0784 -0.4322
19215TIP3    H179136   1.005   1.998  31.100  1.2352  0.6430  0.0722
19215TIP3    H279137   0.943   2.023  30.964  1.2964 -2.0160 -0.5025
19216TIP3   OH279138   1.718   0.220  13.193  0.1469 -0.1240  0.5859
19216TIP3    H179139   1.749   0.151  13.252 -0.3533  0.8766  2.0702
19216TIP3    H279140   1.628   0.195  13.173 -0.4117  0.6290  2.0208
19217TIP3   OH279141   1.636   1.534  41.089  0.4578 -0.6884 -0.4503
19217TIP3    H179142   1.556   1.570  41.128  0.3993 -1.7120  0.4291
19217TIP3    H279143   1.706   1.586  41.128  0.2713 -0.3238 -0.5953
19218TIP3   OH279144   0.016   4.268  21.431  0.1461  0.5847  0.1353
19218TIP3    H179145  -0.018   4.345  21.476 -0.5534 -1.0964  2.6907
19218TIP3    H279146  -0.057   4.235  21.380  0.5377  1.7060 -1.2276
19219TIP3   OH279147   2.968   1.158   3.500  0.0732 -0.0649  0.7601
19219TIP3    H179148   2.961   1.062   3.501 -2.0478  0.0250 -0.0459
19219TIP3    H279149   2.952   1.182   3.409  2.3719  1.0124  0.5635
19220TIP3   OH279150   4.009   0.017  28.696 -0.0725 -0.0541 -0.5672
19220TIP3    H179151   3.919   0.006  28.663  0.1366  0.8853 -1.5215
19220TIP3    H279152   4.062   0.024  28.616  0.5970  1.2747 -0.0232
19221TIP3   OH279153   2.746   1.353  39.861  0.2634 -0.3483  0.2239
19221TIP3    H179154   2.703   1.368  39.945 -1.0922 -0.9589 -0.3256
19221TIP3    H279155   2.826   1.305  39.884  0.8136  1.0016  1.2863
19222TIP3   OH279156   3.035   0.502   0.808  0.1203 -0.2246 -0.0278
19222TIP3    H179157   2.959   0.481   0.754 -0.2275 -0.1521  0.4273
19222TIP3    H279158   3.093   0.427   0.798 -1.4296 -1.8552  2.1950
19223TIP3   OH279159   1.302   2.467  16.979  0.1152  0.5513  0.3988
19223TIP3    H179160   1.336   2.422  17.056  2.6776 -0.0907 -0.9803
19223TIP3    H279161   1.294   2.399  16.913 -1.0935  1.2593 -0.2224
19224TIP3   OH279162   2.359   3.165  12.821 -0.2011 -0.4044  0.1987
19224TIP3    H179163   2.279   3.217  12.817 -1.4262 -2.1659  0.8281
19224TIP3    H279164   2.424   3.225  12.859 -0.9925  1.2768 -0.9835
19225TIP3   OH279165   3.090   1.101  10.566  0.2769  0.4942  0.0044
19225TIP3    H179166   3.115   1.032  10.505 -0.7256 -0.3929  0.5702
19225TIP3    H279167   3.166   1.159  10.569  0.7300  0.0043 -1.2953
19226TIP3   OH279168   3.898   1.772   1.760  0.2168  0.2511 -0.0955
19226TIP3    H179169   3.826   1.743   1.816  1.6363  0.2445  1.8269
19226TIP3    H279170   3.876   1.738   1.674 -2.0445  0.2173  0.4359
19227TIP3   OH279171   1.411   0.256  37.324 -0.6949 -0.4745 -0.4966
19227TIP3    H179172   1.406   0.185  37.259  0.3552 -0.7939 -0.2393
19227TIP3    H279173   1.423   0.335  37.271  1.4695 -0.8717 -0.6946
19228TIP3   OH279174   3.737   0.176  29.773  0.3745 -0.6052  0.7379
19228TIP3    H179175   3.674   0.115  29.812  0.2992  0.8570  3.0925
19228TIP3    H279176   3.684   0.243  29.732  0.4588 -1.5834 -1.0476
19229TIP3   OH279177   0.414   4.359  26.733 -0.7280  0.1512 -0.2539
19229TIP3    H179178   0.491   4.417  26.736 -1.5007  1.2347 -0.7235
19229TIP3    H279179   0.421   4.316  26.647 -0.2234 -0.3774  0.0408
19230TIP3   OH279180   3.349   3.674   3.330  0.7499  0.1314  0.1229
19230TIP3    H179181   3.351   3.684   3.235  2.8548 -2.1937 -0.1679
19230TIP3    H279182   3.438   3.651   3.354 -0.0150 -0.6662  2.5309
19231TIP3   OH279183   0.197   0.570  24.130 -0.0156  0.0228  0.1902
19231TIP3    H179184   0.241   0.519  24.197 -1.8706  0.2904  1.6882
19231TIP3    H279185   0.145   0.635  24.178 -2.1122 -0.3344 -1.4148
19232TIP3   OH279186   3.624   1.583  10.222 -0.4254  0.7186  0.8076
19232TIP3    H179187   3.573   1.662  10.204 -0.4610  0.3368 -0.9303
19232TIP3    H279188   3.713   1.614  10.239  0.2863  1.0311 -2.8663
19233TIP3   OH279189   2.024   3.633  27.614 -0.1725  0.2759  0.5473
19233TIP3    H179190   2.086   3.562  27.631 -0.9758 -0.4200  0.6319
19233TIP3    H279191   2.076   3.701  27.571  0.7109 -0.1683  0.8957
19234TIP3   OH279192   1.901   2.651  15.282 -0.2732  0.1337  0.3168
19234TIP3    H179193   1.996   2.640  15.295 -0.5012 -0.8168  1.3806
19234TIP3    H279194   1.877   2.581  15.223 -0.7850 -1.6909  2.5404
19235TIP3   OH279195   0.408   1.570   8.732  0.4264  0.1827  0.0929
19235TIP3    H179196   0.472   1.630   8.693  1.4755 -0.6336  0.4917
19235TIP3    H279197   0.357   1.538   8.657  1.5550 -0.3729 -0.4641
19236TIP3   OH279198   0.453   4.381  39.774  0.4489  0.0067 -0.5792
19236TIP3    H179199   0.397   4.338  39.709  1.1385 -1.0092 -0.5337
19236TIP3    H279200   0.392   4.427  39.831 -0.2891 -0.4570 -0.9650
19237TIP3   OH279201   0.008   0.735  35.565 -0.0249  0.0830 -0.3002
19237TIP3    H179202  -0.083   0.717  35.588  0.4419 -2.7664 -0.3954
19237TIP3    H279203   0.044   0.651  35.537  2.5635  1.1862 -0.6356
19238TIP3   OH279204   1.804   3.243  18.382  0.2057 -0.1594  0.1025
19238TIP3    H179205   1.827   3.189  18.458 -0.2602  0.7010  0.8801
19238TIP3    H279206   1.769   3.181  18.318 -1.7790 -0.6478  1.5520
19239TIP3   OH279207   3.194   1.102  37.944 -0.0972  0.8276  0.6183
19239TIP3    H179208   3.118   1.129  37.995 -0.4315  1.4044 -0.1716
19239TIP3    H279209   3.190   1.154  37.864  0.6580  0.2561  0.1847
19240TIP3   OH279210   1.702   2.177   6.602  0.4252  0.1441 -0.3754
19240TIP3    H179211   1.682   2.098   6.551 -1.0764  1.3518 -1.7528
19240TIP3    H279212   1.778   2.216   6.558  0.9646 -0.3425  0.1108
19241TIP3   OH279213   1.556   0.075  17.587 -0.4569  0.3783 -0.4312
19241TIP3    H179214   1.462   0.057  17.581 -0.3799 -1.2775  1.8516
19241TIP3    H279215   1.597  -0.012  17.583  0.7496  0.8228  1.1825
19242TIP3   OH279216   3.131   0.205  10.256  0.5189 -0.0198  0.7220
19242TIP3    H179217   3.091   0.146  10.319 -0.1953 -1.0115 -0.6024
19242TIP3    H279218   3.080   0.286  10.264  0.8534  0.1024  1.8324
19243TIP3   OH279219   3.141   4.220   6.403 -0.0651 -0.3447 -0.6852
19243TIP3    H179220   3.196   4.156   6.449 -0.3973  0.6842  1.2749
19243TIP3    H279221   3.138   4.296   6.462 -1.6766  0.5271 -1.8053
19244TIP3   OH279222   2.978   2.462   3.306 -0.1121  0.0403 -0.2460
19244TIP3    H179223   3.073   2.469   3.318 -0.0517  0.9186 -1.1498
19244TIP3    H279224   2.962   2.368   3.299  0.7950 -0.0864 -0.8362
19245TIP3   OH279225   1.390   1.170   0.853 -0.7727  0.5082  0.3901
19245TIP3    H179226   1.326   1.219   0.904 -2.1527  1.1349 -1.8054
19245TIP3    H279227   1.339   1.122   0.789  0.8591 -0.3547 -0.3350
19246TIP3   OH279228   2.999   3.597  40.244 -0.4237 -0.8158 -0.1226
19246TIP3    H179229   2.971   3.599  40.335 -1.3844 -0.1954 -0.4250
19246TIP3    H279230   2.931   3.644  40.196 -0.1770 -1.5495 -1.2308
19247TIP3   OH279231   2.899   2.850  38.794  0.7743  0.0898  0.0422
19247TIP3    H179232   2.902   2.943  38.813  2.1723 -0.1903  1.3612
19247TIP3    H279233   2.990   2.825  38.780  0.7327 -1.5247  2.1764
19248TIP3   OH279234   3.936   0.754   2.952  0.2592  0.9697  0.3615
19248TIP3    H179235   3.879   0.804   2.893 -0.4034  0.8710  0.9106
19248TIP3    H279236   3.933   0.802   3.035  0.1053  0.3603  0.7129
19249TIP3   OH279237   0.146   2.276  32.060 -0.3004  0.4136 -0.1587
19249TIP3    H179238   0.096   2.326  31.996 -1.6484 -1.6267 -0.7738
19249TIP3    H279239   0.238   2.287  32.033 -0.6692  1.4500 -1.0427
19250TIP3   OH279240   0.554   4.116   5.596 -0.1207 -0.0073 -0.1291
19250TIP3    H179241   0.641   4.107   5.558 -0.7561 -0.1293 -1.6460
19250TIP3    H279242   0.562   4.083   5.685  1.3952  0.0816 -0.2180
19251TIP3   OH279243   0.793   4.356  32.934  0.2727 -0.6721 -0.4256
19251TIP3    H179244   0.834   4.425  32.985  1.6973 -1.4755 -0.4296
19251TIP3    H279245   0.863   4.320  32.880  0.0145 -3.1968  0.7750
19252TIP3   OH279246   0.799   1.336  39.043  0.3235  0.0916 -0.1738
19252TIP3    H179247   0.886   1.310  39.016 -0.2513  0.1620 -2.3277
19252TIP3    H279248   0.759   1.257  39.079 -0.0118 -1.0730 -2.8400
19253TIP3   OH279249   0.598   2.173   0.155  0.4863 -0.0230  0.4061
19253TIP3    H179250   0.566   2.264   0.154  1.7066  0.4365  0.9537
19253TIP3    H279251   0.688   2.180   0.187  1.5131 -1.1328 -1.9902
19254TIP3   OH279252   2.995   2.024  12.891 -0.3936  0.1331 -0.4187
19254TIP3    H179253   2.962   2.059  12.974 -1.5294 -1.4679 -0.1460
19254TIP3    H279254   3.009   2.101  12.837 -1.2122  1.1117  0.7060
19255TIP3   OH279255   4.052   1.178   8.883  0.0707 -0.5273 -0.6696
19255TIP3    H179256   4.019   1.127   8.809  1.6186 -1.1746 -0.9676
19255TIP3    H279257   3.996   1.256   8.886 -1.2627 -1.4364 -1.2680
19256TIP3   OH279258   0.064   4.365  33.380 -0.0727  0.5397  0.1696
19256TIP3    H179259   0.152   4.403  33.387  0.5256 -0.6740 -0.5258
19256TIP3    H279260   0.063   4.324  33.293 -0.5965 -1.2556  1.0002
19257TIP3   OH279261   3.332   0.347  30.419  0.7687 -0.0890  0.2119
19257TIP3    H179262   3.373   0.290  30.484  0.4042 -0.1445  0.3972
19257TIP3    H279263   3.249   0.303  30.399  0.5077  0.3537  0.3223
19258TIP3   OH279264   2.202   1.485   4.194  0.1646 -0.6790  0.1258
19258TIP3    H179265   2.159   1.544   4.132 -0.4364 -0.1893  0.9879
19258TIP3    H279266   2.220   1.540   4.270 -1.6983 -1.8911  1.5348
19259TIP3   OH279267   3.924   0.717  25.124 -0.7901 -0.4451  0.1489
19259TIP3    H179268   3.886   0.635  25.154 -1.1249  0.3817  2.1154
19259TIP3    H279269   3.919   0.776  25.199  0.5355  1.0275 -0.8329
19260TIP3   OH279270   2.556   2.070   4.870 -0.2523 -0.4139  0.9729
19260TIP3    H179271   2.537   1.986   4.829 -0.6103  0.2366 -0.2521
19260TIP3    H279272   2.650   2.068   4.888 -0.2933 -1.1428  1.1025
19261TIP3   OH279273   0.742   2.043  34.498 -0.1744 -0.3719 -0.4373
19261TIP3    H179274   0.767   2.032  34.407 -0.5961  1.6051 -0.8286
19261TIP3    H279275   0.818   2.010  34.548  0.1078 -1.3404 -1.4624
19262TIP3   OH279276   0.048   1.745  38.388  0.0906 -0.5525  0.4323
19262TIP3    H179277  -0.023   1.707  38.337 -0.2599  0.6262  0.0123
19262TIP3    H279278   0.005   1.793  38.459  0.2563  2.0628 -1.0780
19263TIP3   OH279279   1.996   1.718  38.565  0.2419  0.0494  0.8115
19263TIP3    H179280   1.949   1.788  38.519 -1.1005 -0.6499  1.0466
19263TIP3    H279281   2.080   1.757  38.590 -0.5191  1.6158  1.0541
19264TIP3   OH279282   0.935   3.960  39.761  0.4095 -0.1826  0.3893
19264TIP3    H179283   0.874   3.939  39.832 -0.5231 -0.7155 -0.5357
19264TIP3    H279284   1.021   3.936  39.795 -0.2750 -2.7571  0.4915
19265TIP3   OH279285   0.478   2.848  29.970  0.2316 -0.7091 -0.1739
19265TIP3    H179286   0.482   2.768  30.022  1.0730 -0.7711 -0.3269
19265TIP3    H279287   0.560   2.850  29.921 -0.0980 -0.1214 -0.7187
19266TIP3   OH279288   3.791   3.677   6.171  0.6741  0.1198  0.9688
19266TIP3    H179289   3.799   3.763   6.213 -0.8609  0.3410  0.8777
19266TIP3    H279290   3.839   3.685   6.089  1.9005  0.3641  1.6894
19267TIP3   OH279291   3.808   1.172   4.025  0.3327  0.5384 -0.1121
19267TIP3    H179292   3.736   1.172   4.087  0.4855  4.1449  0.3017
19267TIP3    H279293   3.884   1.142   4.075 -0.4334 -1.2733  0.0182
19268TIP3   OH279294   2.627   3.295  27.143 -0.1216  0.3445 -0.5640
19268TIP3    H179295   2.553   3.239  27.122 -0.0444 -0.0050  0.0661
19268TIP3    H279296   2.612   3.322  27.233  0.8817 -0.3353 -0.1688
19269TIP3   OH279297   2.127   1.221   3.512  0.0988 -0.1825  0.0790
19269TIP3    H179298   2.148   1.216   3.605  0.2484 -0.3294  0.0381
19269TIP3    H279299   2.210   1.201   3.468 -0.2298 -1.2255 -0.0837
19270TIP3   OH279300   1.182   0.776   8.082 -0.1043 -0.3496 -0.2676
19270TIP3    H179301   1.176   0.689   8.122  1.6952  0.0877  1.0476
19270TIP3    H279302   1.125   0.831   8.135 -1.2965 -0.7013 -1.1404
19271TIP3   OH279303   1.869   1.316  35.738  0.5402  0.0679 -0.2358
19271TIP3    H179304   1.778   1.324  35.767  0.5141  0.2256 -0.3576
19271TIP3    H279305   1.884   1.222  35.730  0.8041 -0.0162  1.0784
19272TIP3   OH279306   0.938   4.331  41.389 -0.0375 -0.3121  0.1336
19272TIP3    H179307   0.861   4.323  41.334 -2.0620  2.0132  2.3631
19272TIP3    H279308   0.959   4.424  41.388  1.9912 -0.7162  0.5939
19273TIP3   OH279309   2.377   2.493   7.483 -0.5211  0.1097 -0.8967
19273TIP3    H179310   2.299   2.439   7.492 -0.9654  0.4791 -2.2945
19273TIP3    H279311   2.392   2.497   7.388  0.8295  0.5628 -0.6835
19274TIP3   OH279312   0.938   0.406  17.327  0.1928 -0.2370  0.4899
19274TIP3    H179313   1.003   0.438  17.389  0.5574  0.8428 -0.4334
19274TIP3    H279314   0.986   0.347  17.269  0.1662 -0.1228  0.3495
19275TIP3   OH279315   1.018   0.738  12.202  0.2671  0.8546 -0.3827
19275TIP3    H179316   0.937   0.767  12.160 -1.1829 -2.2763 -0.1027
19275TIP3    H279317   0.999   0.741  12.296 -0.3491 -1.6182 -0.3455
19276TIP3   OH279318   4.402   0.731  37.017 -0.0538  0.5460 -0.1955
19276TIP3    H179319   4.426   0.669  37.086 -1.3084  0.5976  0.3067
19276TIP3    H279320   4.411   0.817  37.058 -0.3935  0.5944 -0.2163
19277TIP3   OH279321   0.262   3.059  11.654  0.1189  0.4642 -0.1072
19277TIP3    H179322   0.299   3.129  11.599  0.9398  0.5006  0.4800
19277TIP3    H279323   0.172   3.086  11.669 -0.7724 -0.4791 -3.0073
19278TIP3   OH279324   0.073   4.076  10.410  0.2130 -0.0308  0.0283
19278TIP3    H179325   0.001   4.139  10.416  0.9267  0.7184  1.1894
19278TIP3    H279326   0.149   4.128  10.384  0.1197 -1.0297 -2.5527
19279TIP3   OH279327   1.722   2.364  16.463 -0.2946 -0.3320  0.4974
19279TIP3    H179328   1.765   2.283  16.436 -1.0835 -0.6694  0.2088
19279TIP3    H279329   1.684   2.399  16.382  3.8673  2.8257 -0.4161
19280TIP3   OH279330   0.682   3.649  10.566 -0.0285 -0.0813 -0.3335
19280TIP3    H179331   0.665   3.733  10.523  0.8964  0.2713 -0.0302
19280TIP3    H279332   0.615   3.643  10.634  0.3090  0.7309  0.0854
19281TIP3   OH279333   2.155   0.090  38.475 -0.0248 -0.5618  0.0584
19281TIP3    H179334   2.194   0.005  38.453 -0.4539 -0.6994 -0.1792
19281TIP3    H279335   2.175   0.102  38.568  0.4859 -0.6822 -0.0321
19282TIP3   OH279336   3.291   1.437  12.910  0.2468 -0.5195  0.0815
19282TIP3    H179337   3.245   1.520  12.924  0.2053 -0.6814  1.0047
19282TIP3    H279338   3.379   1.462  12.881  1.4187  0.0413  3.6214
19283TIP3   OH279339   0.109   0.922  22.301 -0.9682  0.5588  0.4813
19283TIP3    H179340   0.156   0.895  22.380 -2.1714 -1.1629  0.6622
19283TIP3    H279341   0.017   0.902  22.320 -1.1672 -1.0662 -1.7470
19284TIP3   OH279342   1.667   2.338  28.755  0.1595 -0.0902 -0.2323
19284TIP3    H179343   1.612   2.319  28.679  0.0044  0.8357 -0.3631
19284TIP3    H279344   1.606   2.343  28.829  0.1055  0.6192 -0.3233
19285TIP3   OH279345   2.885   4.041  40.828 -0.3916  0.2726  0.3439
19285TIP3    H179346   2.908   4.089  40.749  0.6545  0.6213  0.8345
19285TIP3    H279347   2.798   4.007  40.812 -0.1784  0.3177 -0.9698
19286TIP3   OH279348   1.630   4.263   6.080  0.1668 -0.3617  0.0811
19286TIP3    H179349   1.669   4.216   6.153 -0.5528  0.3645  0.9616
19286TIP3    H279350   1.688   4.246   6.006  0.4445 -1.8101  0.6018
19287TIP3   OH279351   2.694   0.870  31.942 -0.3398 -0.0595 -0.0878
19287TIP3    H179352   2.748   0.896  32.016 -0.2140  0.7238 -0.4387
19287TIP3    H279353   2.609   0.848  31.980  0.0973 -0.8759  0.4194
19288TIP3   OH279354   1.617   0.950  11.291 -0.0064  0.3692  0.0663
19288TIP3    H179355   1.699   0.977  11.251  1.0810 -3.1591 -0.3914
19288TIP3    H279356   1.639   0.931  11.382 -0.2757 -0.6579 -0.0730
19289TIP3   OH279357   3.436   0.605  30.070 -0.1411 -0.4676  0.0982
19289TIP3    H179358   3.390   0.686  30.092  0.8416 -0.3939  2.1221
19289TIP3    H279359   3.516   0.634  30.024 -0.9423 -0.4731 -1.3634
19290TIP3   OH279360   4.104   0.506  35.696 -0.5407  0.1736  0.9130
19290TIP3    H179361   4.013   0.525  35.671 -0.2974  1.4834  0.9446
19290TIP3    H279362   4.110   0.530  35.788 -0.4610 -1.0575  1.2374
19291TIP3   OH279363   2.980   3.252  36.701  0.5535  0.1547  0.5495
19291TIP3    H179364   3.024   3.326  36.744  0.7209  0.6859 -0.4973
19291TIP3    H279365   3.051   3.196  36.671  0.9303  2.4458 -3.7695
19292TIP3   OH279366   1.495   2.713  30.995 -0.1135 -0.6267  0.0752
19292TIP3    H179367   1.508   2.623  31.024 -0.3187  0.0549  2.5223
19292TIP3    H279368   1.582   2.741  30.966 -0.1581 -1.7335 -1.2282
19293TIP3   OH279369   3.946   4.367  10.031 -0.1476  0.0992  0.1021
19293TIP3    H179370   3.951   4.408  10.117 -0.2991  1.6803 -0.6084
19293TIP3    H279371   3.917   4.437   9.972 -0.4899 -1.0510 -1.1652
19294TIP3   OH279372   1.747   3.621   4.356 -0.0020 -0.2202 -0.7800
19294TIP3    H179373   1.819   3.559   4.369  0.6545  0.8647  1.1786
19294TIP3    H279374   1.791   3.703   4.333 -0.7739 -0.0775 -1.7936
19295TIP3   OH279375   1.228   1.346   3.025 -0.5967 -0.5695 -0.4385
19295TIP3    H179376   1.204   1.268   2.977  0.8765 -1.2076 -0.1867
19295TIP3    H279377   1.267   1.313   3.107  0.1203  0.4095 -0.3651
19296TIP3   OH279378   3.554   1.005  12.850  0.2000 -0.1777  0.4246
19296TIP3    H179379   3.496   0.938  12.814  1.4200  0.3210 -2.7506
19296TIP3    H279380   3.495   1.064  12.897 -1.4340 -1.2996 -0.1169
19297TIP3   OH279381   3.523   0.111   1.992  0.0938 -0.1475  0.1774
19297TIP3    H179382   3.478   0.115   1.908 -1.3683  0.1472  0.9320
19297TIP3    H279383   3.616   0.103   1.970 -0.2688 -0.1711 -1.4461
19298TIP3   OH279384   0.906   3.842  33.145  0.1289 -0.2534  0.4602
19298TIP3    H179385   0.834   3.875  33.091  0.0736 -0.7888  0.1973
19298TIP3    H279386   0.882   3.865  33.234 -0.2231 -0.1586  0.3402
19299TIP3   OH279387   2.425   4.392  27.329  0.6231  0.1872 -0.1067
19299TIP3    H179388   2.356   4.326  27.332 -0.3088  1.1610  1.4949
19299TIP3    H279389   2.501   4.350  27.369  0.1488 -0.0490  0.5608
19300TIP3   OH279390   1.228   0.283   5.656 -0.0120 -0.0341  0.2283
19300TIP3    H179391   1.233   0.204   5.601 -2.2256 -0.1037  0.0380
19300TIP3    H279392   1.164   0.339   5.612  0.6775  1.4102  0.9733
19301TIP3   OH279393   2.643   0.059   3.908 -0.0528 -0.9248  0.1209
19301TIP3    H179394   2.662  -0.009   3.974 -1.1830 -0.8896  0.4956
19301TIP3    H279395   2.730   0.084   3.876  0.4330 -2.0983  0.4265
19302TIP3   OH279396   4.323   3.576  36.237  0.2715 -0.0239  0.2575
19302TIP3    H179397   4.232   3.606  36.239 -0.4080 -1.8919  0.2196
19302TIP3    H279398   4.329   3.513  36.309  0.5379 -2.3975 -1.6838
19303TIP3   OH279399   0.227   0.170  27.339 -0.3665  0.8490  0.5190
19303TIP3    H179400   0.200   0.238  27.401  0.2245 -0.8811  2.8222
19303TIP3    H279401   0.273   0.106  27.393 -1.2090 -1.5769 -1.4586
19304TIP3   OH279402   0.617   4.357   8.438  0.7094 -0.9843 -0.7889
19304TIP3    H179403   0.582   4.367   8.349 -0.9597 -1.3445 -0.1981
19304TIP3    H279404   0.664   4.439   8.454 -0.2661 -0.2775 -1.4407
19305TIP3   OH279405   3.665   2.557  33.204 -0.4767  0.1481 -0.0863
19305TIP3    H179406   3.731   2.578  33.271  1.0982 -1.1571 -1.1387
19305TIP3    H279407   3.583   2.550  33.252  0.6479 -1.0541  1.8101
19306TIP3   OH279408   2.458   2.283  30.401 -0.0419 -0.0556  0.0293
19306TIP3    H179409   2.525   2.342  30.364  0.2287 -1.3163 -1.6143
19306TIP3    H279410   2.440   2.221  30.330 -0.4032 -1.8920  1.6552
19307TIP3   OH279411   2.188   0.560  31.927  0.1530 -0.0494  0.2257
19307TIP3    H179412   2.249   0.552  32.000  0.9782  1.2514 -0.2916
19307TIP3    H279413   2.217   0.495  31.863  0.9071  0.4287  0.0652
19308TIP3   OH279414   2.174   1.786  12.209 -0.3289 -0.0964 -0.6529
19308TIP3    H179415   2.214   1.848  12.148  1.4050 -0.3783  0.1395
19308TIP3    H279416   2.247   1.732  12.240 -1.2692 -0.4395  1.0997
19309TIP3   OH279417   0.894   3.100   0.568  0.0406  0.2211  0.1760
19309TIP3    H179418   0.817   3.158   0.563  1.2332  1.8894  0.1995
19309TIP3    H279419   0.871   3.025   0.514 -0.9917  1.4510 -1.1744
19310TIP3   OH279420   3.065   2.029   2.405 -0.2521 -0.0657 -0.5119
19310TIP3    H179421   3.074   2.098   2.471 -0.1753 -1.5386  1.0630
19310TIP3    H279422   3.020   2.073   2.332 -0.0565  1.6886  0.3527
19311TIP3   OH279423   1.360   1.299  13.540 -0.0287 -0.1419 -0.0626
19311TIP3    H179424   1.362   1.324  13.633  2.5776  0.1052 -0.1229
19311TIP3    H279425   1.348   1.204  13.541  2.2894 -0.4906  0.6883
19312TIP3   OH279426   1.977   3.167  10.293  0.2806 -0.0996  0.1745
19312TIP3    H179427   2.005   3.192  10.381 -2.5959  0.7181  0.9743
19312TIP3    H279428   2.008   3.077  10.282  1.1124 -0.0473  1.8260
19313TIP3   OH279429   1.753   0.428  35.442 -0.4165  0.1487 -0.3599
19313TIP3    H179430   1.783   0.449  35.354  1.3794  0.3394  0.2682
19313TIP3    H279431   1.661   0.404  35.431 -0.0688 -0.3758 -2.3558
19314TIP3   OH279432   0.611   1.556  13.245  0.6323 -0.0596  0.3454
19314TIP3    H179433   0.669   1.481  13.230  1.1369  0.4370 -0.2367
19314TIP3    H279434   0.570   1.538  13.330  1.1801 -0.7109  0.4794
19315TIP3   OH279435   3.779   2.177  11.713  0.2653 -0.1409 -0.1155
19315TIP3    H179436   3.830   2.099  11.734  0.6584  0.7771  2.9191
19315TIP3    H279437   3.837   2.230  11.659  0.8691 -0.9837 -0.3066
19316TIP3   OH279438   0.097   1.552  28.796  0.0853  0.2220 -0.0078
19316TIP3    H179439   0.024   1.492  28.783  0.9505 -0.9255  0.2241
19316TIP3    H279440   0.147   1.514  28.868  1.7303  0.1149 -1.1446
19317TIP3   OH279441   1.364   2.465   5.581 -0.6214 -0.4901  0.2187
19317TIP3    H179442   1.412   2.539   5.545 -1.2509  0.2817  0.9321
19317TIP3    H279443   1.430   2.413   5.626  0.3570 -1.9311 -2.6522
19318TIP3   OH279444   1.885   0.916  32.965 -0.1620  0.0593 -0.2363
19318TIP3    H179445   1.961   0.933  33.020  0.7031 -0.6623 -1.1625
19318TIP3    H279446   1.812   0.909  33.027  0.6285  0.1284  0.7352
19319TIP3   OH279447   0.685   3.348  10.805 -0.1415 -0.1822  0.1890
19319TIP3    H179448   0.743   3.279  10.838  0.3400 -0.0566 -0.3738
19319TIP3    H279449   0.613   3.301  10.763 -0.4078 -0.3393  0.8158
19320TIP3   OH279450   2.300   2.370   4.658 -0.5809  0.0327 -0.6108
19320TIP3    H179451   2.392   2.383   4.678 -0.3170 -1.2220 -0.9490
19320TIP3    H279452   2.273   2.297   4.714 -1.8478  1.4767  0.8008
19321TIP3   OH279453   0.172   1.317  12.014  0.2029 -0.3066 -0.5596
19321TIP3    H179454   0.210   1.232  12.034 -0.4445 -0.7618 -1.2225
19321TIP3    H279455   0.244   1.366  11.973  1.9530  1.0851  3.6303
19322TIP3   OH279456   0.220   1.706  21.904 -0.8346 -0.2062  0.2016
19322TIP3    H179457   0.141   1.689  21.852 -0.1169 -3.0197 -0.1808
19322TIP3    H279458   0.292   1.703  21.840 -0.0535 -2.4439  1.0835
19323TIP3   OH279459   3.627   2.793  38.646  0.1743  0.2780 -0.1838
19323TIP3    H179460   3.574   2.735  38.591  0.7151 -0.5066  0.1031
19323TIP3    H279461   3.705   2.811  38.592 -0.0072  0.7836 -0.2887
19324TIP3   OH279462   1.394   1.785   7.523  0.3386 -0.5658 -0.4582
19324TIP3    H179463   1.355   1.845   7.460 -0.0732 -0.9773 -0.6037
19324TIP3    H279464   1.459   1.837   7.570  1.4565 -0.5383 -1.9651
19325TIP3   OH279465   3.619   3.368  38.234 -0.4773 -0.7242 -0.6222
19325TIP3    H179466   3.628   3.273  38.246  0.5720 -0.4669  0.8984
19325TIP3    H279467   3.653   3.406  38.315 -1.3377  0.9516 -1.0045
19326TIP3   OH279468   4.212   2.782  30.058  0.2636  0.2468 -0.0652
19326TIP3    H179469   4.264   2.850  30.101 -0.8474  0.8161  0.4242
19326TIP3    H279470   4.188   2.819  29.974 -1.8980  1.2644  0.9386
19327TIP3   OH279471   3.418   2.773  40.607  0.3246 -0.4124  0.4547
19327TIP3    H179472   3.447   2.739  40.692 -1.2328 -2.2705  0.3147
19327TIP3    H279473   3.401   2.866  40.623 -2.1131 -1.1301  2.8588
19328TIP3   OH279474   0.279   1.871  40.859  0.2518  0.3768  0.1338
19328TIP3    H179475   0.243   1.847  40.945  0.5868 -0.0180  0.1655
19328TIP3    H279476   0.365   1.907  40.879 -0.5733  2.4377  0.1729
19329TIP3   OH279477   2.367   3.778   9.322  0.1568  0.0522 -0.1403
19329TIP3    H179478   2.287   3.827   9.342  1.2389  2.4977 -1.3575
19329TIP3    H279479   2.402   3.753   9.408 -0.8627  0.7496  0.5023
19330TIP3   OH279480   4.276   1.378  33.681 -0.1518  0.3840 -0.0349
19330TIP3    H179481   4.368   1.396  33.699 -0.7283  2.7040  0.9041
19330TIP3    H279482   4.262   1.290  33.717  1.8994 -0.4707 -1.1491
19331TIP3   OH279483   4.211   4.400  26.799 -0.2942  0.1365 -0.2563
19331TIP3    H179484   4.122   4.423  26.822 -1.1667 -2.2047 -0.9876
19331TIP3    H279485   4.219   4.420  26.706  0.4183  1.5471  0.0720
19332TIP3   OH279486   0.051   3.449   8.838 -0.1512 -0.2870 -0.0121
19332TIP3    H179487   0.081   3.531   8.799 -0.2997  0.0729  0.6135
19332TIP3    H279488   0.091   3.448   8.925  0.6138 -1.3321 -0.3550
19333TIP3   OH279489   0.020   1.272  35.521 -0.0637 -0.2451  0.4416
19333TIP3    H179490   0.040   1.351  35.470 -2.7855  1.1272  1.2895
19333TIP3    H279491   0.044   1.199  35.464 -1.1253  1.2094 -2.0390
19334TIP3   OH279492   3.913   3.528  32.522  0.5737 -0.4574 -0.5371
19334TIP3    H179493   3.999   3.507  32.485  2.1960  0.8309  2.2236
19334TIP3    H279494   3.879   3.444  32.552  1.2970 -0.8701 -0.8291
19335TIP3   OH279495   1.965   0.934  37.054 -0.2692 -0.2186 -0.0624
19335TIP3    H179496   2.046   0.925  37.004 -0.4261  1.1624 -0.6214
19335TIP3    H279497   1.965   0.861  37.115  1.2687 -0.3819 -0.2399
19336TIP3   OH279498   4.007   2.606  25.089 -0.2196  0.2316  0.1707
19336TIP3    H179499   4.006   2.548  25.165  2.2115  1.9814  1.6781
19336TIP3    H279500   4.060   2.560  25.025 -1.1864 -0.6768 -0.0115
19337TIP3   OH279501   1.214   4.182  36.333  0.3272 -0.3656  0.0522
19337TIP3    H179502   1.295   4.215  36.295  0.5398  0.6660  1.3051
19337TIP3    H279503   1.230   4.184  36.428 -0.2751 -2.5466  0.2463
19338TIP3   OH279504   2.386   3.189   7.853 -0.1964 -0.4419 -0.4829
19338TIP3    H179505   2.326   3.115   7.844 -0.1005 -0.6952  0.8258
19338TIP3    H279506   2.464   3.162   7.805  0.2558 -1.6655  0.8839
19339TIP3   OH279507   3.000   0.438  32.422  0.3524  0.2834 -0.1998
19339TIP3    H179508   3.066   0.390  32.370 -0.5564 -1.8917  0.5594
19339TIP3    H279509   2.947   0.483  32.356  0.3879 -0.8845 -1.0704
19340TIP3   OH279510   4.151   0.255   1.390  0.4675 -0.0530  0.2705
19340TIP3    H179511   4.090   0.233   1.461  0.7701 -0.2953  0.4563
19340TIP3    H279512   4.236   0.225   1.421  0.7357  0.5470  0.1388
19341TIP3   OH279513   4.339   3.856  31.538  0.0628  0.2922 -0.2857
19341TIP3    H179514   4.325   3.808  31.619  1.5638  0.9058  0.3776
19341TIP3    H279515   4.339   3.948  31.564 -0.1049  0.5371 -1.1046
19342TIP3   OH279516   2.005   0.588   3.900  0.3174  0.3905  0.2865
19342TIP3    H179517   2.037   0.560   3.986 -0.4257  0.7273  0.6839
19342TIP3    H279518   1.959   0.512   3.866  1.3752 -0.0420 -0.2167
19343TIP3   OH279519   0.258   3.862  38.650  0.0099  0.2851  0.2096
19343TIP3    H179520   0.334   3.832  38.699  1.3836  2.5705 -0.3665
19343TIP3    H279521   0.250   3.800  38.578  0.6311 -0.6150  0.8928
19344TIP3   OH279522   0.889   1.087  40.432 -0.3706  0.0376  0.1158
19344TIP3    H179523   0.961   1.144  40.461  0.0487 -1.3098  1.9003
19344TIP3    H279524   0.929   1.030  40.366  0.4603 -1.1953  1.6209
19345TIP3   OH279525   1.156   2.802   6.167 -0.8971  0.5609  0.0086
19345TIP3    H179526   1.236   2.854   6.176  0.1194 -0.7825 -0.9593
19345TIP3    H279527   1.163   2.763   6.080 -2.2339 -0.2048  0.2313
19346TIP3   OH279528   2.167   0.292   4.646  0.3820 -0.1851  0.1816
19346TIP3    H179529   2.246   0.315   4.598  1.1362 -1.0606  0.9630
19346TIP3    H279530   2.158   0.197   4.635 -1.2355  0.0497 -0.8726
19347TIP3   OH279531   1.099   2.723   4.025 -0.5703  0.3657 -0.0947
19347TIP3    H179532   1.094   2.695   3.934  1.8609 -0.5373 -0.0216
19347TIP3    H279533   1.192   2.740   4.040 -0.4004 -2.3883  3.0317
19348TIP3   OH279534   1.377   4.165   3.492  0.2007  0.0655 -0.1596
19348TIP3    H179535   1.286   4.136   3.495 -0.2592  1.3458 -1.0466
19348TIP3    H279536   1.407   4.157   3.583 -0.8513 -0.2105  0.1814
19349TIP3   OH279537   1.411   4.085  36.954 -0.8097  0.3422  0.2008
19349TIP3    H179538   1.378   4.153  36.895  0.1349  0.0534 -0.6832
19349TIP3    H279539   1.335   4.029  36.970 -0.6909 -0.7305 -2.3830
19350TIP3   OH279540   0.512   2.720  40.116  0.1033 -0.0197  0.0638
19350TIP3    H179541   0.596   2.765  40.107 -0.6768  1.4813 -0.0588
19350TIP3    H279542   0.492   2.688  40.028 -0.7249  2.0583 -0.5642
19351TIP3   OH279543   2.411   3.606   5.046  0.3257 -0.5280 -0.2597
19351TIP3    H179544   2.400   3.545   4.974 -0.7400  0.7800 -1.2592
19351TIP3    H279545   2.469   3.674   5.011  1.0985 -0.6806  0.6674
19352TIP3   OH279546   2.025   0.992  13.593 -0.1493  0.0740 -0.4519
19352TIP3    H179547   1.934   1.020  13.600 -0.1077 -0.0326  0.6432
19352TIP3    H279548   2.021   0.896  13.585 -0.1651  0.1392 -1.2901
19353TIP3   OH279549   3.698   2.256  35.423 -0.2251 -0.2344  0.4068
19353TIP3    H179550   3.716   2.223  35.511 -0.0728  1.5443  1.0819
19353TIP3    H279551   3.609   2.291  35.428 -0.2187 -0.1256 -0.1483
19354TIP3   OH279552   3.863   4.190   1.503  0.1849  0.5440 -0.1494
19354TIP3    H179553   3.904   4.119   1.452 -0.7334 -1.0779  1.2580
19354TIP3    H279554   3.917   4.267   1.484  2.1775 -0.8634 -0.5557
19355TIP3   OH279555   3.015   3.619  35.148 -0.2318  0.4205  0.4086
19355TIP3    H179556   2.953   3.572  35.205  1.6834 -1.1155  1.3289
19355TIP3    H279557   2.974   3.617  35.062 -0.3910 -2.8669  0.4262
19356TIP3   OH279558   1.568   0.269  28.995  0.1765 -0.0574 -0.1417
19356TIP3    H179559   1.584   0.339  29.059  0.5256  0.4068 -0.7227
19356TIP3    H279560   1.473   0.267  28.986  0.0834 -0.5140  0.8048
19357TIP3   OH279561   0.493   0.211  39.127 -0.2705 -0.1773 -0.3982
19357TIP3    H179562   0.575   0.205  39.176 -0.4589 -0.4619 -0.1184
19357TIP3    H279563   0.429   0.166  39.181 -0.4270 -0.7217 -1.0233
19358TIP3   OH279564   1.170   3.843  39.836 -0.1624 -0.5599 -0.5016
19358TIP3    H179565   1.194   3.916  39.894  0.2896  0.6383 -2.1294
19358TIP3    H279566   1.215   3.767  39.873  2.3588  0.6939 -0.7589
19359TIP3   OH279567   1.622   0.399   6.093  0.2327 -0.6396 -0.9608
19359TIP3    H179568   1.591   0.364   6.010  0.0493  0.5617 -1.4254
19359TIP3    H279569   1.584   0.487   6.097  2.5580  0.4262 -0.9763
19360TIP3   OH279570   2.463   2.569  11.893 -0.2440  0.2510 -0.6104
19360TIP3    H179571   2.394   2.527  11.842  1.0087  0.4483 -2.6067
19360TIP3    H279572   2.516   2.614  11.827  1.5264  0.4479  0.8851
19361TIP3   OH279573   3.556   2.416  28.337  0.6756  0.8025 -0.3694
19361TIP3    H179574   3.570   2.464  28.255 -0.3127  1.0701 -0.4066
19361TIP3    H279575   3.638   2.424  28.385  1.7910 -0.5871 -1.9331
19362TIP3   OH279576   1.861   3.628  13.298 -0.4237  0.1830  0.1455
19362TIP3    H179577   1.801   3.585  13.359 -0.0549 -0.6007 -0.0415
19362TIP3    H279578   1.804   3.659  13.228 -0.5516 -1.0678 -0.3201
19363TIP3   OH279579   3.232   4.252  36.936  0.4990 -0.3482  0.1500
19363TIP3    H179580   3.288   4.255  36.858 -0.6258 -0.5410 -0.6794
19363TIP3    H279581   3.154   4.302  36.912  0.5950  0.5125  1.5451
19364TIP3   OH279582   1.466   2.055  38.404  0.3357  0.1504 -0.2025
19364TIP3    H179583   1.501   1.984  38.350 -0.2981  0.6783 -1.3375
19364TIP3    H279584   1.382   2.022  38.436  0.8356 -0.2677  0.7073
19365TIP3   OH279585   3.821   0.343  12.811 -0.1653  0.1160  0.7888
19365TIP3    H179586   3.875   0.273  12.773  0.2440  0.7113  0.2501
19365TIP3    H279587   3.798   0.311  12.899 -0.6897 -1.0558  0.2429
19366TIP3   OH279588   3.157   3.102   1.392  0.6172  0.5129 -0.4928
19366TIP3    H179589   3.136   3.011   1.412  1.6254  0.0661 -1.3290
19366TIP3    H279590   3.203   3.098   1.308  3.3869  1.4092  0.8208
19367TIP3   OH279591   3.902   2.401  35.981  0.9228 -0.1129  0.5485
19367TIP3    H179592   3.863   2.364  36.061 -1.1933  1.2824  0.2285
19367TIP3    H279593   3.996   2.389  35.993  0.5445 -1.8383  2.2874
19368TIP3   OH279594   2.491   2.920  41.465 -0.0042 -1.0283  0.1815
19368TIP3    H179595   2.490   2.917  41.561 -1.1263 -1.8887  0.1665
19368TIP3    H279596   2.494   3.013  41.444 -2.2587 -0.6704  1.1030
19369TIP3   OH279597   3.188   0.332  41.445  0.3043 -0.2030  0.1778
19369TIP3    H179598   3.156   0.314  41.534 -1.7604  1.2355 -0.2013
19369TIP3    H279599   3.261   0.392  41.458  0.5568 -0.6563  0.9312
19370TIP3   OH279600   3.483   3.999  12.732  0.6862  0.1592  0.6209
19370TIP3    H179601   3.535   3.930  12.772  1.1251  0.1160  0.0014
19370TIP3    H279602   3.393   3.975  12.750  0.8702  0.5604  2.2480
19371TIP3   OH279603   3.316   4.391  10.161  0.9260 -0.0699 -0.1728
19371TIP3    H179604   3.297   4.333  10.235  0.5313 -0.7009 -0.7589
19371TIP3    H279605   3.277   4.475  10.186  0.5438 -0.3553  0.2090
19372TIP3   OH279606   1.338   3.521  39.430 -0.4253 -0.5999  0.0592
19372TIP3    H179607   1.405   3.468  39.474  0.1843  1.5653  1.9125
19372TIP3    H279608   1.255   3.483  39.461 -0.0958 -2.3945 -1.1301
19373TIP3   OH279609   4.257   2.673  27.947  1.2399  0.1793  0.1678
19373TIP3    H179610   4.164   2.659  27.962  1.0802 -0.2538 -1.1161
19373TIP3    H279611   4.300   2.598  27.988  0.9976  0.2100  0.4781
19374TIP3   OH279612   2.843   0.490  32.172  0.0230 -0.5211 -0.2925
19374TIP3    H179613   2.913   0.452  32.118 -0.5222 -0.0892 -1.3198
19374TIP3    H279614   2.782   0.417  32.187  1.2933 -1.2570  1.7169
19375TIP3   OH279615   2.314   1.253   2.477 -0.4610 -0.5173  0.4959
19375TIP3    H179616   2.333   1.192   2.549 -0.9084 -0.9572  0.2473
19375TIP3    H279617   2.274   1.329   2.520  1.6029  0.3536  1.0171
19376TIP3   OH279618   2.719   3.259  11.911  0.3720 -0.0214  0.3699
19376TIP3    H179619   2.734   3.329  11.974  1.1538  0.3398 -0.1962
19376TIP3    H279620   2.627   3.236  11.921 -0.5878  2.7567 -1.0966
19377TIP3   OH279621   0.196   0.510  41.057 -0.0672  0.4492 -0.0970
19377TIP3    H179622   0.160   0.561  40.985 -1.5317  1.3972  1.2425
19377TIP3    H279623   0.126   0.509  41.123  1.2577 -0.2916  1.3635
19378TIP3   OH279624   1.049   0.646  34.737  0.0048 -0.0862  0.4152
19378TIP3    H179625   1.052   0.565  34.788 -0.6335 -1.3718 -1.4932
19378TIP3    H279626   0.964   0.644  34.693  1.4189 -0.3187 -2.5782
19379TIP3   OH279627   2.363   1.392   6.425 -0.1535 -0.4747 -0.6357
19379TIP3    H179628   2.280   1.378   6.470 -0.4046 -1.1202 -1.2933
19379TIP3    H279629   2.345   1.374   6.333  0.5873 -0.1084 -0.8652
19380TIP3   OH279630   0.949   1.097  39.583 -0.4770  0.2117 -0.0635
19380TIP3    H179631   1.029   1.145  39.603 -0.6556  0.4799  0.0231
19380TIP3    H279632   0.976   1.006  39.573 -0.1651  0.3013 -0.0266
19381TIP3   OH279633   0.547   4.309  22.750  0.3777 -0.1359  0.0718
19381TIP3    H179634   0.534   4.223  22.710 -1.1542 -0.7397  1.7448
19381TIP3    H279635   0.487   4.311  22.825 -1.0074  3.0955 -0.9299
19382TIP3   OH279636   2.345   4.281  12.731  0.4773  0.3106  0.4234
19382TIP3    H179637   2.346   4.376  12.742  1.3832  0.8573 -3.1247
19382TIP3    H279638   2.437   4.255  12.736  0.4260 -0.0658 -0.3825
19383TIP3   OH279639   4.318   3.424   3.795 -0.0521  0.1752  0.2989
19383TIP3    H179640   4.364   3.346   3.825  0.5290  0.5842  0.5144
19383TIP3    H279641   4.370   3.456   3.721  1.4107  1.9409  1.9675
19384TIP3   OH279642   0.660   4.128  39.882  0.0472  0.6789  0.3426
19384TIP3    H179643   0.568   4.150  39.869 -0.0664  2.4304  3.3098
19384TIP3    H279644   0.674   4.133  39.976  2.9941 -0.5031  0.1013
19385TIP3   OH279645   1.540   3.827   4.248 -0.0596  0.0813  0.0291
19385TIP3    H179646   1.587   3.834   4.331  1.6370 -1.1918 -0.7581
19385TIP3    H279647   1.604   3.854   4.182 -0.2018 -2.1815 -1.1346
19386TIP3   OH279648   1.059   3.389  30.103 -0.0640  0.9317  0.0087
19386TIP3    H179649   1.005   3.312  30.086  0.4917  0.0266  2.0368
19386TIP3    H279650   1.144   3.367  30.065 -0.0240  0.7201  0.2187
19387TIP3   OH279651   2.477   0.288  29.921  0.7518 -0.4845  0.4317
19387TIP3    H179652   2.558   0.272  29.873  0.3657 -0.8304 -0.1227
19387TIP3    H279653   2.413   0.229  29.880 -0.2426  1.0628 -0.3804
19388TIP3   OH279654   1.949   1.150  41.485  0.6925  0.1281  0.0534
19388TIP3    H179655   1.989   1.229  41.521  2.7921  0.2561 -2.2498
19388TIP3    H279656   2.024   1.096  41.459 -0.7052 -2.0198  0.3032
19389TIP3   OH279657   0.268   1.154  22.726 -0.2105  0.0841  0.2955
19389TIP3    H179658   0.206   1.216  22.686 -0.2911 -0.4449 -0.4180
19389TIP3    H279659   0.335   1.141  22.659 -0.1920 -0.5895  0.4376
19390TIP3   OH279660   2.958   4.198   7.048 -0.2315 -0.2390 -0.3173
19390TIP3    H179661   2.992   4.285   7.069  0.4993 -0.9465  1.6817
19390TIP3    H279662   2.891   4.182   7.115  0.8072 -1.8411  0.3936
19391TIP3   OH279663   4.144   3.311  31.223 -0.2293  0.4281  0.2567
19391TIP3    H179664   4.159   3.340  31.133  0.2961  0.9972  0.5192
19391TIP3    H279665   4.190   3.227  31.230 -1.2175 -0.1789 -0.3237
19392TIP3   OH279666   1.111   4.088   3.413 -0.0923 -0.3644  0.7186
19392TIP3    H179667   1.092   4.120   3.325  1.5364 -0.4580  0.2880
19392TIP3    H279668   1.095   3.994   3.409  1.5800 -0.6624 -0.0209
19393TIP3   OH279669   1.793   3.296  28.408 -0.1697 -0.0571  0.4537
19393TIP3    H179670   1.739   3.218  28.391 -2.5623  1.6008 -0.0139
19393TIP3    H279671   1.833   3.317  28.324  0.0852 -0.4722  0.4685
19394TIP3   OH279672   0.655   0.894   8.078  0.2129 -0.7619  0.0157
19394TIP3    H179673   0.602   0.896   8.158  0.9596  0.4664  0.5125
19394TIP3    H279674   0.631   0.812   8.036 -0.0197 -1.5663  1.6202
19395TIP3   OH279675   2.765   3.978   7.605  0.5683 -0.4988  0.1110
19395TIP3    H179676   2.840   3.936   7.648 -0.4465 -1.4203  1.0252
19395TIP3    H279677   2.703   3.994   7.675  0.1161  0.8028 -0.5424
19396TIP3   OH279678   1.008   3.380  38.891 -0.0537  0.1924 -0.4148
19396TIP3    H179679   1.039   3.468  38.871 -1.3985  1.3956  2.2991
19396TIP3    H279680   1.038   3.363  38.980  1.5898 -2.8550 -1.3978
19397TIP3   OH279681   0.814   4.396  29.216  0.1451 -0.0669 -0.0777
19397TIP3    H179682   0.760   4.373  29.291 -0.1503  1.7806  0.3416
19397TIP3    H279683   0.775   4.348  29.143 -0.8429 -0.2966  0.5781
19398TIP3   OH279684   2.425   2.347   4.127  0.2816 -0.2726  0.1706
19398TIP3    H179685   2.451   2.350   4.035 -0.4894 -0.4011 -0.0594
19398TIP3    H279686   2.335   2.381   4.128 -0.5788 -2.4188  0.5498
19399TIP3   OH279687   2.485   0.083  36.950  0.4922 -0.0826 -0.2102
19399TIP3    H179688   2.458   0.124  37.032 -0.3734 -0.4759 -0.2893
19399TIP3    H279689   2.553   0.021  36.975  0.2677 -0.1642  0.2009
19400TIP3   OH279690   4.060   2.462  28.226 -0.2219  0.2055 -0.2358
19400TIP3    H179691   4.097   2.397  28.166  1.5137  1.6660 -0.8249
19400TIP3    H279692   4.046   2.540  28.173  1.2843  1.5159  1.1914
19401TIP3   OH279693   1.018   1.136  34.318  0.3558 -0.7334  0.4772
19401TIP3    H179694   1.107   1.101  34.315  0.9856  0.7345  1.0357
19401TIP3    H279695   0.986   1.112  34.405 -0.5751 -2.9361 -0.3749
19402TIP3   OH279696   4.186   4.131  24.287 -0.2280  0.1470 -0.2666
19402TIP3    H179697   4.280   4.122  24.268 -0.4497  1.0800 -2.0204
19402TIP3    H279698   4.144   4.111  24.203 -1.5083  1.2352  0.0970
19403TIP3   OH279699   1.534   1.189  41.442  0.6062  0.1739  1.2865
19403TIP3    H179700   1.523   1.239  41.523  2.5455  1.9151  0.5552
19403TIP3    H279701   1.473   1.229  41.380  0.0932 -0.2705  1.5015
19404TIP3   OH279702   1.380   0.103  29.276 -0.1130  0.4440  0.2344
19404TIP3    H179703   1.301   0.065  29.238  0.2578 -0.3056  0.1990
19404TIP3    H279704   1.418   0.033  29.329 -0.1958  1.2282  1.3611
19405TIP3   OH279705   0.366   0.459  27.692  0.0348 -0.1483  0.7761
19405TIP3    H179706   0.346   0.452  27.786 -0.5811 -1.2656  0.5752
19405TIP3    H279707   0.446   0.408  27.680 -0.6727 -1.2068  0.4636
19406TIP3   OH279708   2.545   4.257   0.317 -0.5315  0.5813  0.2537
19406TIP3    H179709   2.479   4.326   0.307 -1.7540 -0.5651  0.1327
19406TIP3    H279710   2.624   4.304   0.346 -2.1742  1.7215  3.4028
19407TIP3   OH279711   0.355   0.293  35.736  0.1717  0.6728  0.3201
19407TIP3    H179712   0.429   0.293  35.796  0.6470 -4.0985  0.0591
19407TIP3    H279713   0.394   0.295  35.649 -0.1238  0.0911  0.1727
19408TIP3   OH279714   3.263   1.602   3.269  0.2877 -0.4337 -0.2401
19408TIP3    H179715   3.230   1.649   3.192  0.1169 -2.0172 -1.1689
19408TIP3    H279716   3.347   1.643   3.289 -0.8045  1.6825  0.3295
19409TIP3   OH279717   1.601   3.917  28.170 -0.1916 -0.7079  0.0404
19409TIP3    H179718   1.619   3.988  28.231 -1.8164  0.8591 -1.1967
19409TIP3    H279719   1.523   3.874  28.206 -0.1626 -0.8359 -0.0494
19410TIP3   OH279720   1.983   1.071  32.425 -0.0651  0.2436 -0.0008
19410TIP3    H179721   1.944   1.059  32.339  0.3510  0.3147 -0.2040
19410TIP3    H279722   2.070   1.032  32.417 -0.4614 -0.8372  0.7402
19411TIP3   OH279723   3.922   1.843  32.121 -0.2789  0.3261 -0.4078
19411TIP3    H179724   3.906   1.752  32.144 -0.8141  0.6122  0.4067
19411TIP3    H279725   3.895   1.850  32.030  3.4517 -1.2370 -1.8183
19412TIP3   OH279726   0.158   1.339  23.115 -0.2887  0.0243 -0.3720
19412TIP3    H179727   0.162   1.388  23.197 -0.0393 -1.6294  0.6581
19412TIP3    H279728   0.228   1.275  23.122 -1.2490 -1.1685 -1.1870
19413TIP3   OH279729   0.810   0.677  32.475  0.1235 -0.0718  0.2221
19413TIP3    H179730   0.827   0.746  32.539  1.2583  0.5208 -0.6928
19413TIP3    H279731   0.799   0.598  32.528  0.6044  0.4801  1.1722
19414TIP3   OH279732   1.684   1.108  29.076  0.2715  0.7810 -0.2067
19414TIP3    H179733   1.615   1.106  29.010  0.3605  1.3631 -0.3192
19414TIP3    H279734   1.660   1.180  29.134  1.2786  1.6158 -0.7927
19415TIP3   OH279735   2.017   3.200  27.860  0.0062 -0.8604  0.0807
19415TIP3    H179736   2.005   3.285  27.818  1.2774 -1.5510 -1.8291
19415TIP3    H279737   1.932   3.157  27.851 -1.0738  0.6351  2.2876
19416TIP3   OH279738   2.878   2.062   7.580 -0.5040  0.3819 -0.6614
19416TIP3    H179739   2.955   2.083   7.632 -0.0613 -1.0428 -0.7006
19416TIP3    H279740   2.805   2.066   7.642 -0.6544  3.0530 -0.8895
19417TIP3   OH279741   3.098   3.420   0.126  0.3479 -0.2687 -0.4683
19417TIP3    H179742   3.016   3.465   0.144 -0.4685 -1.9482  0.1848
19417TIP3    H279743   3.096   3.342   0.180  3.4215  0.7269  1.3663
19418TIP3   OH279744   0.472   0.739  35.189  0.1042 -0.5644 -0.2337
19418TIP3    H179745   0.542   0.803  35.199 -1.2130  1.1638 -1.5046
19418TIP3    H279746   0.412   0.758  35.261  0.8866 -2.0799  0.8868
19419TIP3   OH279747   3.393   2.102  32.122  0.4695  0.4285 -0.0644
19419TIP3    H179748   3.427   2.047  32.192  2.6500  1.8016  0.0403
19419TIP3    H279749   3.463   2.103  32.056 -1.1934 -0.1922 -1.9465
19420TIP3   OH279750   3.998   1.249  22.344 -0.3758  0.1350 -0.5226
19420TIP3    H179751   3.926   1.288  22.394 -0.0261  0.6494 -0.4166
19420TIP3    H279752   4.007   1.161  22.380 -3.2871 -1.3084 -2.8553
19421TIP3   OH279753   0.544   3.457  40.256  0.3311  0.3281  0.7820
19421TIP3    H179754   0.527   3.368  40.287 -1.6339  0.3939  0.0226
19421TIP3    H279755   0.629   3.480  40.294  1.2449 -2.1340  0.3970
19422TIP3   OH279756   3.588   3.527   5.782 -0.2273 -0.7705 -0.2387
19422TIP3    H179757   3.575   3.530   5.877 -0.7148 -0.4289 -0.3099
19422TIP3    H279758   3.540   3.604   5.749  0.9159 -0.2080 -0.6463
19423TIP3   OH279759   1.530   1.061   1.741  0.2830 -0.0380 -0.1736
19423TIP3    H179760   1.625   1.066   1.750  0.2548  1.5157 -0.4679
19423TIP3    H279761   1.496   1.092   1.826 -0.0021 -2.0148  0.4976
19424TIP3   OH279762   1.345   1.965   8.622 -0.7961 -0.2598 -0.0703
19424TIP3    H179763   1.355   1.897   8.689 -0.7140 -0.2465 -0.0680
19424TIP3    H279764   1.373   2.045   8.666  0.8875 -0.5074 -0.6115
19425TIP3   OH279765   3.240   1.267  40.287  0.1416 -0.2316  0.3212
19425TIP3    H179766   3.324   1.247  40.247  0.2823 -0.3464  0.6755
19425TIP3    H279767   3.185   1.191  40.267  0.2996 -0.4174  0.5962
19426TIP3   OH279768   3.243   4.211   5.805 -0.2272  0.1233  0.1540
19426TIP3    H179769   3.163   4.244   5.846  0.3072  0.0115  1.3083
19426TIP3    H279770   3.234   4.237   5.713 -1.5194  0.2353  0.2903
19427TIP3   OH279771   0.485   4.016  32.836  0.3618  0.0738  0.4683
19427TIP3    H179772   0.406   3.972  32.869 -0.3446  2.2377  1.8691
19427TIP3    H279773   0.476   4.011  32.741 -0.5617 -1.2156  0.5815
19428TIP3   OH279774   2.370   3.984  32.234  0.3055  0.1761  0.4219
19428TIP3    H179775   2.361   4.065  32.184  2.1158  0.9842  1.3211
19428TIP3    H279776   2.297   3.986  32.295 -0.7110  0.2058 -0.7458
19429TIP3   OH279777   1.021   2.576   0.595  0.3243  0.0391  0.2332
19429TIP3    H179778   1.105   2.617   0.618  0.0569  0.7388 -0.0267
19429TIP3    H279779   1.041   2.482   0.592  1.4243  0.2721 -1.0944
19430TIP3   OH279780   1.592   2.601   4.892  0.0522  0.0983  0.1132
19430TIP3    H179781   1.645   2.568   4.819  0.5505 -0.4102  0.6833
19430TIP3    H279782   1.505   2.565   4.876  0.2149 -0.2068 -0.1106
19431TIP3   OH279783   4.388   4.022  31.155 -0.7817  0.4024  0.5310
19431TIP3    H179784   4.413   4.115  31.156 -0.3883  0.2969  1.1222
19431TIP3    H279785   4.454   3.979  31.209 -0.1076 -0.4599 -0.9564
19432TIP3   OH279786   1.277   1.510   5.434  0.4444 -0.3060  0.1962
19432TIP3    H179787   1.264   1.416   5.446  1.9188 -0.4911  0.6123
19432TIP3    H279788   1.271   1.546   5.523  0.9908 -0.1841  0.1909
19433TIP3   OH279789   1.025   0.166   8.515 -0.5038 -0.0012  0.3145
19433TIP3    H179790   1.039   0.103   8.586  0.3588 -0.1592  0.0110
19433TIP3    H279791   1.113   0.190   8.486 -0.8299 -1.0725 -1.7137
19434TIP3   OH279792   1.595   1.567  13.094  0.5081 -0.4486 -0.2016
19434TIP3    H179793   1.649   1.578  13.016 -1.5778 -0.7298 -1.7557
19434TIP3    H279794   1.652   1.521  13.155  2.2157 -0.2058 -1.5177
19435TIP3   OH279795   2.807   0.389  11.306  0.0216 -0.4901  0.7728
19435TIP3    H179796   2.787   0.482  11.300  0.1153 -0.4083  1.6084
19435TIP3    H279797   2.728   0.349  11.342 -0.6270 -0.9916 -1.1217
19436TIP3   OH279798   1.709   4.109  36.864  0.4154  0.2800 -0.1837
19436TIP3    H179799   1.621   4.144  36.849  0.6131  0.5217 -0.8546
19436TIP3    H279800   1.716   4.100  36.959 -1.2112 -2.0325 -0.2031
19437TIP3   OH279801   0.109   2.827  26.851 -0.1434  0.2195  0.1370
19437TIP3    H179802   0.187   2.782  26.884 -0.7457  0.0174  1.3212
19437TIP3    H279803   0.094   2.788  26.765  1.3987  0.6883 -0.3649
19438TIP3   OH279804   1.419   4.226   0.970  0.3930 -0.0732 -0.2704
19438TIP3    H179805   1.439   4.227   0.876 -1.6866  0.2658 -0.7663
19438TIP3    H279806   1.386   4.138   0.986 -0.3477  0.2161 -0.1431
19439TIP3   OH279807   0.757   1.516  28.151  0.1395  0.2040 -0.2152
19439TIP3    H179808   0.812   1.451  28.196 -0.2055 -0.1597 -0.3134
19439TIP3    H279809   0.819   1.582  28.119  0.2554  1.3827  2.2456
19440TIP3   OH279810   2.771   1.745  32.692  0.7550 -0.3111  0.4209
19440TIP3    H179811   2.863   1.740  32.666 -0.0669 -0.9066 -2.7648
19440TIP3    H279812   2.743   1.654  32.698  0.1649 -0.1224  0.5779
19441TIP3   OH279813   3.474   3.928  37.399 -0.6243 -0.3500 -0.0089
19441TIP3    H179814   3.560   3.970  37.393 -0.3976 -0.8632 -0.5290
19441TIP3    H279815   3.411   3.998  37.382 -0.2401 -0.2770 -1.2529
19442TIP3   OH279816   3.269   2.626  28.505 -0.7660  0.7204 -0.1567
19442TIP3    H179817   3.236   2.696  28.561  0.1230  0.9025  0.1507
19442TIP3    H279818   3.332   2.579  28.560 -0.8782  0.0727 -0.5706
19443TIP3   OH279819   2.671   3.285   3.409 -0.5516 -0.5248 -0.1725
19443TIP3    H179820   2.701   3.254   3.324 -1.4596  2.2200 -1.6234
19443TIP3    H279821   2.743   3.267   3.468  2.3664  2.0284 -2.6256
19444TIP3   OH279822   1.826   1.167  38.249  0.2981  0.5809  0.0583
19444TIP3    H179823   1.910   1.193  38.287  0.6530 -1.7550  1.0423
19444TIP3    H279824   1.784   1.250  38.225  2.0841  1.9090  1.2435
19445TIP3   OH279825   3.747   2.650  29.106  0.0785 -0.3299 -0.3207
19445TIP3    H179826   3.748   2.607  29.192  0.6207 -0.8722 -0.5981
19445TIP3    H279827   3.813   2.719  29.113 -0.1789 -0.0943 -0.1652
19446TIP3   OH279828   3.978   0.267  27.971  0.2892  0.7603  0.4768
19446TIP3    H179829   3.923   0.190  27.961 -1.0989  1.5892  1.4225
19446TIP3    H279830   3.940   0.332  27.912  1.7486  0.6091 -0.7000
19447TIP3   OH279831   0.316   1.792  34.808  0.2353  0.1796 -0.2946
19447TIP3    H179832   0.354   1.730  34.871 -2.0138 -1.5303 -0.5014
19447TIP3    H279833   0.346   1.760  34.723 -2.2933 -1.8753 -0.5612
19448TIP3   OH279834   1.372   2.291  26.893  0.5946  0.2619  0.0641
19448TIP3    H179835   1.405   2.351  26.826  0.6336 -1.5898 -1.6756
19448TIP3    H279836   1.278   2.308  26.896  0.5174  0.0828 -0.8279
19449TIP3   OH279837   3.105   1.534   6.297 -0.2748 -0.5608  0.1236
19449TIP3    H179838   3.148   1.617   6.273 -2.9951  0.8361 -0.3410
19449TIP3    H279839   3.053   1.511   6.221 -0.9918 -1.7365  0.9395
19450TIP3   OH279840   1.507   0.142  19.195  0.4107 -0.6472 -0.3758
19450TIP3    H179841   1.504   0.226  19.150  2.6242 -0.3394 -0.0745
19450TIP3    H279842   1.570   0.155  19.266  2.0152 -2.9657 -1.2519
19451TIP3   OH279843   4.247   1.108  36.829 -0.1563  0.1099  0.3913
19451TIP3    H179844   4.251   1.081  36.921 -0.6125 -0.3245  0.2894
19451TIP3    H279845   4.238   1.027  36.781 -0.4905  0.3755  0.0014
19452TIP3   OH279846   0.218   0.718  39.675  0.0488  0.0190  0.0481
19452TIP3    H179847   0.194   0.641  39.624  0.3141  0.5820 -0.9603
19452TIP3    H279848   0.208   0.791  39.614  1.8249  0.5584  0.3416
19453TIP3   OH279849   3.437   0.482  41.428 -0.7248 -0.4754  0.0408
19453TIP3    H179850   3.494   0.453  41.357  0.7187  0.8737  0.6015
19453TIP3    H279851   3.411   0.571  41.402  0.0405  0.1358  1.2930
19454TIP3   OH279852   3.340   1.358  13.513 -0.5185 -0.4622  0.2377
19454TIP3    H179853   3.411   1.420  13.530 -0.3299 -0.8271  0.7858
19454TIP3    H279854   3.308   1.333  13.600 -4.7528  3.5281  0.2351
19455TIP3   OH279855   1.476   0.860  31.758 -0.1529  0.2508 -0.3171
19455TIP3    H179856   1.401   0.863  31.817 -0.3745  1.3793 -0.6264
19455TIP3    H279857   1.442   0.895  31.675  0.8423  1.2578 -0.3110
19456TIP3   OH279858   0.742   2.357  34.143 -0.3748  0.4267 -0.1734
19456TIP3    H179859   0.778   2.321  34.224  1.7305 -1.6001 -1.8675
19456TIP3    H279860   0.776   2.446  34.140  1.0404 -0.0551  0.3525
19457TIP3   OH279861   1.161   3.522   9.458  0.7719 -0.3055  0.0849
19457TIP3    H179862   1.182   3.599   9.510  0.8692 -0.7839  0.7651
19457TIP3    H279863   1.068   3.505   9.477  0.8323 -0.5352  0.1745
19458TIP3   OH279864   1.991   3.474   5.783  0.2414 -0.2419 -0.3851
19458TIP3    H179865   1.990   3.405   5.717  0.4119  0.1166 -0.7638
19458TIP3    H279866   2.084   3.492   5.797  0.1842  0.4123 -0.8166
19459TIP3   OH279867   1.779   1.214  18.329  0.6865 -0.1307 -0.4063
19459TIP3    H179868   1.822   1.245  18.249  2.6889 -1.1601  0.2052
19459TIP3    H279869   1.804   1.277  18.396  2.4013 -1.4326  0.2305
19460TIP3   OH279870   3.023   0.239  36.460 -0.8543 -0.5541  0.3467
19460TIP3    H179871   3.002   0.306  36.525  0.2686 -0.5630  0.7507
19460TIP3    H279872   2.948   0.237  36.401  0.0107  2.6876 -1.0696
19461TIP3   OH279873   2.702   2.190  37.832 -0.4756  0.7098 -0.4194
19461TIP3    H179874   2.616   2.206  37.793 -0.4713 -1.3134 -1.3643
19461TIP3    H279875   2.685   2.187  37.926 -2.3622 -3.6850 -0.6442
19462TIP3   OH279876   0.919   4.368   5.477 -0.2204 -0.2330 -0.2203
19462TIP3    H179877   0.862   4.350   5.403 -0.4939  2.1932 -0.6728
19462TIP3    H279878   0.927   4.463   5.479  0.9349 -0.3045  2.0101
19463TIP3   OH279879   2.062   0.984  31.360 -0.4581  0.7045 -0.2766
19463TIP3    H179880   2.120   0.932  31.304  0.0943  0.6574  0.3259
19463TIP3    H279881   2.047   1.065  31.311 -0.1060  0.6057 -0.5527
19464TIP3   OH279882   0.559   0.510  41.648  0.5347  0.1506  0.1737
19464TIP3    H179883   0.469   0.543  41.649  1.2878  2.3999 -0.1360
19464TIP3    H279884   0.568   0.463  41.731 -1.0169 -0.4260  0.0441
19465TIP3   OH279885   2.531   0.908  34.932 -0.0167  0.1739 -0.2669
19465TIP3    H179886   2.593   0.882  34.864  0.3682 -2.3510  0.9433
19465TIP3    H279887   2.585   0.941  35.004 -0.2286  0.1860 -0.1094
19466TIP3   OH279888   0.776   3.986  29.329  0.3937 -0.1197 -0.2152
19466TIP3    H179889   0.821   4.048  29.273  1.3184 -0.5375  0.0485
19466TIP3    H279890   0.843   3.922  29.354  0.4534  0.9475  2.7104
19467TIP3   OH279891   1.024   3.142  32.330  0.1773  0.0530  0.1490
19467TIP3    H179892   0.941   3.187  32.345 -0.2654  0.4571 -2.9569
19467TIP3    H279893   1.002   3.049  32.333  0.1748  0.0725  1.8525
19468TIP3   OH279894   3.270   3.204  28.266 -0.3211  0.3073 -0.3500
19468TIP3    H179895   3.239   3.191  28.176  0.4304  2.6760 -1.0152
19468TIP3    H279896   3.200   3.255  28.308  0.0784  0.6788 -0.1256
19469TIP3   OH279897   2.762   1.974   5.784 -0.1782 -0.3270 -0.1938
19469TIP3    H179898   2.789   1.963   5.876 -1.1926  0.3916  0.2099
19469TIP3    H279899   2.799   2.058   5.758 -1.9516  0.7073  0.3891
19470TIP3   OH279900   3.787   3.971   5.861  0.4026 -0.1319  0.4485
19470TIP3    H179901   3.848   3.899   5.883  1.2971 -0.2700 -2.2025
19470TIP3    H279902   3.785   3.972   5.766  0.3076  3.3104  0.3929
19471TIP3   OH279903   2.382   1.430   1.835 -0.1864  0.4850 -0.1935
19471TIP3    H179904   2.477   1.421   1.827 -0.3562 -2.1107 -0.1990
19471TIP3    H279905   2.354   1.467   1.751  0.7495  0.6376 -0.4531
19472TIP3   OH279906   1.975   0.526   9.781  0.1530  0.3151  0.4699
19472TIP3    H179907   2.017   0.519   9.867 -0.1663  0.5549  0.6472
19472TIP3    H279908   1.883   0.542   9.801  0.2725  1.5881  0.0978
19473TIP3   OH279909   2.815   1.457  36.499  0.5595 -0.0082  0.2203
19473TIP3    H179910   2.808   1.375  36.450  2.2701 -1.5880  2.4217
19473TIP3    H279911   2.739   1.456  36.557 -0.2892  0.8114 -0.8249
19474TIP3   OH279912   1.352   1.572   0.963  0.1755  0.1074 -0.0047
19474TIP3    H179913   1.299   1.503   0.922 -1.0246  0.5159  0.8156
19474TIP3    H279914   1.441   1.553   0.933 -0.2504 -1.2483 -0.5445
19475TIP3   OH279915   3.156   3.681  28.027 -0.8813  0.2343  0.3300
19475TIP3    H179916   3.068   3.718  28.025 -1.4387 -1.0073  0.8224
19475TIP3    H279917   3.177   3.673  28.120  1.0994  3.4639  0.3195
19476TIP3   OH279918   0.924   4.117  41.145  0.0851  0.0758  0.6486
19476TIP3    H179919   0.901   4.047  41.207  0.1655  0.0509  0.6485
19476TIP3    H279920   0.987   4.171  41.193  0.1206  0.0762  0.5994
19477TIP3   OH279921   0.841   0.648  29.751  0.1617  0.4931 -0.0964
19477TIP3    H179922   0.866   0.567  29.707  4.9622  0.3219  2.2633
19477TIP3    H279923   0.893   0.716  29.708  0.0838  1.3849  1.1540
19478TIP3   OH279924   1.729   0.968   5.983  0.0197 -0.1716 -0.4155
19478TIP3    H179925   1.801   0.929   5.934  1.0399  1.6170 -0.4148
19478TIP3    H279926   1.657   0.974   5.920  0.9096  0.9226 -1.3715
19479TIP3   OH279927   0.133   0.242  40.353  0.4731  0.4445  0.0970
19479TIP3    H179928   0.217   0.238  40.306 -0.4482  2.0612 -1.8381
19479TIP3    H279929   0.069   0.263  40.285 -1.3363  0.3665  1.7180
19480TIP3   OH279930   3.801   4.002   2.760 -0.1359 -0.0889 -0.1970
19480TIP3    H179931   3.850   4.080   2.788  1.7996 -1.0248 -0.7781
19480TIP3    H279932   3.845   3.975   2.679 -0.6405 -1.9038  0.1057
19481TIP3   OH279933   4.231   3.466  22.329  0.3857 -0.2937  0.1545
19481TIP3    H179934   4.188   3.521  22.394  0.2594  2.8449 -2.3162
19481TIP3    H279935   4.158   3.424  22.282  0.4176 -1.3194  0.9962
19482TIP3   OH279936   0.079   2.825  33.639  0.6149  0.6003  0.0215
19482TIP3    H179937   0.056   2.734  33.623 -0.7568  0.6107  1.6291
19482TIP3    H279938   0.134   2.823  33.717 -0.4674  1.2170  0.8311
19483TIP3   OH279939   0.472   0.783  35.881  0.0741  0.6340  0.1222
19483TIP3    H179940   0.422   0.746  35.954  1.5402 -0.2998  0.6953
19483TIP3    H279941   0.479   0.711  35.818 -1.3588  1.4967 -1.0756
19484TIP3   OH279942   4.145   3.539  25.375  0.3886 -0.5890 -0.2993
19484TIP3    H179943   4.133   3.451  25.340  2.0930 -0.9104 -0.1373
19484TIP3    H279944   4.139   3.527  25.470  0.9928 -0.5982 -0.2609
19485TIP3   OH279945   3.250   1.809  27.544  0.3887 -0.0393  0.0821
19485TIP3    H179946   3.212   1.742  27.601  0.4824 -0.3868 -0.2580
19485TIP3    H279947   3.212   1.891  27.574  0.5148 -0.2092  0.7095
19486TIP3   OH279948   2.512   3.048   4.120  0.0192 -0.1390  0.4196
19486TIP3    H179949   2.600   3.085   4.122  0.0480 -0.2321  0.9214
19486TIP3    H279950   2.498   3.022   4.028  0.8453 -0.9563  0.5200
19487TIP3   OH279951   0.984   4.009  11.268  0.0880  0.3051 -0.1652
19487TIP3    H179952   0.992   3.941  11.201 -1.9784 -0.6018  0.4334
19487TIP3    H279953   0.936   4.080  11.224  0.2600  0.4354 -0.1428
19488TIP3   OH279954   0.154   0.137  11.278 -0.2043 -0.4900 -0.3870
19488TIP3    H179955   0.092   0.131  11.351 -1.1940 -0.9554 -1.2213
19488TIP3    H279956   0.240   0.131  11.318 -0.7315 -0.8755  0.7254
19489TIP3   OH279957   1.791   2.477  39.255  0.6892 -0.6872 -0.0893
19489TIP3    H179958   1.867   2.511  39.301  0.0067  1.4762 -0.4502
19489TIP3    H279959   1.803   2.507  39.165 -1.6937  1.8177  0.3182
19490TIP3   OH279960   0.543   1.729  32.208 -0.2664 -0.2482  0.6162
19490TIP3    H179961   0.492   1.798  32.251  0.0654  2.5586 -2.9890
19490TIP3    H279962   0.633   1.747  32.234  0.1188  2.3500 -1.9842
19491TIP3   OH279963   3.824   0.320   6.697  0.2614 -0.4748 -0.2134
19491TIP3    H179964   3.768   0.366   6.633 -0.6000  0.1910  0.9707
19491TIP3    H279965   3.912   0.329   6.662  0.2656  2.8880  0.3442
19492TIP3   OH279966   3.393   2.065  36.159 -0.5080  0.0772  0.2959
19492TIP3    H179967   3.314   2.088  36.109  1.9145 -0.5699 -4.3242
19492TIP3    H279968   3.432   2.149  36.182 -1.3602  0.3950  0.6363
19493TIP3   OH279969   3.710   2.187  37.549 -0.4538 -0.1726  0.0861
19493TIP3    H179970   3.655   2.171  37.626  2.1614 -1.1287  1.8649
19493TIP3    H279971   3.799   2.171  37.578  0.7832  0.5315 -2.8860
19494TIP3   OH279972   3.527   2.988  32.046 -0.8308 -0.3301 -0.6232
19494TIP3    H179973   3.532   3.043  31.968 -1.2925 -1.2860 -1.3525
19494TIP3    H279974   3.446   3.014  32.089  0.3133  1.4727  0.5638
19495TIP3   OH279975   3.962   1.779   0.908 -0.1579 -0.1229 -0.6474
19495TIP3    H179976   3.980   1.780   0.814  0.1440 -0.0413 -0.5894
19495TIP3    H279977   3.960   1.687   0.932  3.0936 -0.1526 -0.1078
19496TIP3   OH279978   0.359   0.851   6.626  0.8010  0.2988 -0.2557
19496TIP3    H179979   0.435   0.800   6.597  2.1854  2.3902 -0.5132
19496TIP3    H279980   0.395   0.917   6.685 -1.0874  0.2728  1.0316
19497TIP3   OH279981   1.235   3.051  34.952 -0.5509 -0.1977  0.1052
19497TIP3    H179982   1.287   3.115  34.903 -0.9208  0.3065  0.3638
19497TIP3    H279983   1.240   3.080  35.043 -1.6969  0.1585  0.0713
19498TIP3   OH279984   1.621   3.979  40.930 -0.2179  0.0652  0.3055
19498TIP3    H179985   1.621   3.935  40.846 -2.2848  1.7545 -0.6787
19498TIP3    H279986   1.554   3.933  40.981 -0.1308  0.0847  0.4399
19499TIP3   OH279987   3.944   3.895  40.237 -0.3476 -0.3678  0.4973
19499TIP3    H179988   3.856   3.865  40.260 -0.7352  0.5447  0.2815
19499TIP3    H279989   3.934   3.929  40.147  0.2181 -0.2426  0.4799
19500TIP3   OH279990   3.015   3.394  38.865  0.7701  0.6128 -0.3533
19500TIP3    H179991   3.072   3.336  38.916  0.2874  0.4052 -0.0542
19500TIP3    H279992   2.929   3.388  38.906  1.0659  2.8845  0.7934
19501TIP3   OH279993   1.762   1.157  18.620 -0.5805  0.9029 -0.0106
19501TIP3    H179994   1.816   1.211  18.677 -0.4893 -0.5182  1.3287
19501TIP3    H279995   1.767   1.199  18.534  1.6401  1.4897  0.3609
19502TIP3   OH279996   0.516   1.119  28.859  0.3390  0.5615  0.3286
19502TIP3    H179997   0.595   1.110  28.912  1.1048 -3.9017 -1.1817
19502TIP3    H279998   0.547   1.116  28.769 -1.4391  0.5429 -0.3183
19503TIP3   OH279999   0.194   1.900  12.259 -0.4394 -0.2731 -0.3034
19503TIP3    H180000   0.173   1.811  12.231 -0.7752 -0.0745 -0.6908
19503TIP3    H280001   0.142   1.913  12.338 -1.1669 -0.0690 -0.8082
19504TIP3   OH280002   3.599   1.428  34.117 -0.2885 -0.0545  0.7446
19504TIP3    H180003   3.639   1.515  34.112  0.1514  0.1260  4.7505
19504TIP3    H280004   3.666   1.372  34.156 -1.0185 -1.9821 -0.5795
19505TIP3   OH280005   3.474   1.138   9.979 -0.8980 -0.3468 -0.0574
19505TIP3    H180006   3.503   1.052  10.012  2.9428  0.7054 -0.2011
19505TIP3    H280007   3.537   1.159   9.910 -0.7137  3.2359  1.0201
19506TIP3   OH280008   0.397   4.179   0.455  0.0899 -0.2356 -0.3891
19506TIP3    H180009   0.392   4.251   0.517 -2.4663  0.8694 -1.7304
19506TIP3    H280010   0.482   4.190   0.411 -0.6930  2.7592 -1.3970
19507TIP3   OH280011   4.149   0.368  38.542 -0.0530 -0.5829  0.0652
19507TIP3    H180012   4.083   0.323  38.595 -2.0338  2.5309  0.5530
19507TIP3    H280013   4.161   0.452  38.586  0.1482  1.1272 -2.9703
19508TIP3   OH280014   0.471   0.207  41.533 -0.5080 -0.3965  0.0317
19508TIP3    H180015   0.423   0.257  41.467 -0.1190  0.1964  0.1887
19508TIP3    H280016   0.563   0.227  41.516 -0.2984 -1.6179 -0.3439
19509TIP3   OH280017   0.790   3.455  28.989 -0.2368  0.2453 -0.0224
19509TIP3    H180018   0.774   3.368  28.954 -1.2556 -0.0999  1.2112
19509TIP3    H280019   0.767   3.448  29.082  0.9844  1.4724  0.4067
19510TIP3   OH280020   3.051   1.714   0.447 -0.5749  0.4527 -0.1219
19510TIP3    H180021   3.117   1.782   0.437  0.1803 -0.2438 -0.0166
19510TIP3    H280022   2.971   1.761   0.467 -0.1478  1.3277 -0.4336
19511TIP3   OH280023   4.117   3.033   8.190 -0.3024  0.0272  0.8395
19511TIP3    H180024   4.175   3.105   8.211 -0.0974  1.0662 -2.6171
19511TIP3    H280025   4.174   2.957   8.182  0.0995  0.3396  0.7241
19512TIP3   OH280026   2.347   4.182  28.202 -0.0313 -0.1431 -0.6148
19512TIP3    H180027   2.356   4.237  28.280 -0.0393  0.5639 -1.1043
19512TIP3    H280028   2.334   4.244  28.130  0.5365 -0.7582 -1.2639
19513TIP3   OH280029   3.139   4.023  31.778  0.3982 -0.4291  0.3156
19513TIP3    H180030   3.154   4.079  31.854  0.3571 -0.4020  0.3035
19513TIP3    H280031   3.045   4.030  31.761  0.7280  1.2867 -1.0633
19514TIP3   OH280032   2.070   1.219  40.629 -0.3874 -0.0711  0.2932
19514TIP3    H180033   2.140   1.227  40.565  0.3303  0.1357  1.0840
19514TIP3    H280034   2.016   1.297  40.615  0.3359  0.4925  0.6128
19515TIP3   OH280035   3.658   3.198  34.561  0.0517 -0.2618  0.2690
19515TIP3    H180036   3.720   3.126  34.549  1.2600  0.6985  0.4950
19515TIP3    H280037   3.586   3.159  34.610  1.1172 -1.1052  1.2441
19516TIP3   OH280038   3.936   2.454  30.864 -0.0464 -0.5240  0.0794
19516TIP3    H180039   3.984   2.390  30.917  1.1788  0.4056  0.1467
19516TIP3    H280040   3.934   2.532  30.918 -0.3603 -0.1082 -0.5269
19517TIP3   OH280041   3.604   0.542  11.860 -0.1332  0.0926 -0.4484
19517TIP3    H180042   3.661   0.505  11.792  0.7121 -1.0624  0.8323
19517TIP3    H280043   3.540   0.595  11.812  0.6912 -0.3458 -2.0958
19518TIP3   OH280044   1.897   2.311   7.698  0.1099 -0.1292 -0.0399
19518TIP3    H180045   1.844   2.259   7.638  1.5374 -0.2139 -1.2785
19518TIP3    H280046   1.880   2.272   7.784  0.6808 -2.3235 -0.8473
19519TIP3   OH280047   1.550   1.994  32.052  0.6220  0.4351  0.9604
19519TIP3    H180048   1.500   2.074  32.070 -0.5128 -0.2937  1.1435
19519TIP3    H280049   1.600   1.979  32.132  0.9084  1.0079  0.8946
19520TIP3   OH280050   1.505   0.567   5.154  0.2873 -0.0935  0.4279
19520TIP3    H180051   1.422   0.574   5.202 -0.0434 -0.7287 -0.0434
19520TIP3    H280052   1.545   0.487   5.188  0.5262  0.0036  0.3721
19521TIP3   OH280053   0.564   0.031  23.311 -0.0605 -0.5712  0.0666
19521TIP3    H180054   0.531   0.121  23.308  0.6939 -0.3175 -1.0306
19521TIP3    H280055   0.630   0.032  23.380 -0.4431 -0.4259  0.4355
19522TIP3   OH280056   4.165   2.714   4.036  0.2200 -0.2829 -0.1217
19522TIP3    H180057   4.175   2.622   4.062  0.0339 -0.9797 -2.2935
19522TIP3    H280058   4.072   2.721   4.011  0.3177  0.3852 -0.3085
19523TIP3   OH280059   3.040   2.957  39.910 -0.4126  0.6508 -0.5884
19523TIP3    H180060   3.040   3.053  39.909 -0.0858  0.6442 -1.3456
19523TIP3    H280061   3.014   2.935  40.000 -2.3497  1.4257 -0.9250
19524TIP3   OH280062   0.889   0.337   3.368  0.1577 -0.7605 -0.1563
19524TIP3    H180063   0.901   0.421   3.412  1.6002  0.0644 -2.0192
19524TIP3    H280064   0.821   0.293   3.419 -1.9722  2.2513 -0.1594
19525TIP3   OH280065   0.745   4.160  37.520 -0.3610  0.1483 -0.0123
19525TIP3    H180066   0.656   4.159  37.485 -0.2123  2.7989 -0.6322
19525TIP3    H280067   0.794   4.100  37.463 -1.4354 -0.2836 -0.5011
19526TIP3   OH280068   0.403   3.998   4.494 -0.3068  0.1078 -0.3441
19526TIP3    H180069   0.422   3.993   4.400 -0.1891 -0.4610 -0.2928
19526TIP3    H280070   0.375   3.910   4.517  0.4312  0.0401  0.3141
19527TIP3   OH280071   1.934   1.515  33.637  0.0020 -0.1347 -0.0834
19527TIP3    H180072   2.020   1.488  33.671 -0.2370 -0.0462  0.6105
19527TIP3    H280073   1.875   1.446  33.666 -0.4570  0.6558  0.9286
19528TIP3   OH280074   2.518   3.969  39.603  0.0128  0.2642 -0.5507
19528TIP3    H180075   2.506   3.890  39.656 -0.8665  0.6552 -0.1484
19528TIP3    H280076   2.486   3.945  39.516 -0.5259  0.2616 -0.3548
19529TIP3   OH280077   3.902   3.693   2.376 -0.1532 -0.4221  0.3308
19529TIP3    H180078   3.877   3.608   2.341  0.8530 -0.1448 -1.1298
19529TIP3    H280079   3.865   3.694   2.465  0.0237 -2.4535  0.4707
19530TIP3   OH280080   4.331   2.870  37.405 -0.7651 -0.0219 -0.7716
19530TIP3    H180081   4.362   2.803  37.344  0.4724  0.6655 -0.9369
19530TIP3    H280082   4.270   2.824  37.463  0.9991 -1.6047 -0.0753
19531TIP3   OH280083   1.076   1.054  34.048 -0.4019 -1.0826 -0.0116
19531TIP3    H180084   1.076   1.064  33.952 -0.7840 -0.2592  0.0686
19531TIP3    H280085   1.090   0.961  34.062 -0.5191 -1.2407 -0.8796
19532TIP3   OH280086   3.735   1.444   5.494  0.0895 -0.8840 -0.3352
19532TIP3    H180087   3.670   1.416   5.430  0.4869 -0.1791 -1.0690
19532TIP3    H280088   3.750   1.537   5.475  0.4999 -0.7573  0.5332
19533TIP3   OH280089   0.630   3.216  27.688  0.3258 -0.5485  0.3158
19533TIP3    H180090   0.634   3.255  27.601 -0.4602  0.7980  0.8580
19533TIP3    H280091   0.595   3.128  27.673  1.1289 -0.7072 -0.8080
19534TIP3   OH280092   1.278   2.727   0.198 -0.1658 -0.2290 -0.1351
19534TIP3    H180093   1.329   2.785   0.142  0.8217 -0.1741  0.7973
19534TIP3    H280094   1.230   2.671   0.137 -0.9652  1.3811 -1.0624
19535TIP3   OH280095   3.484   4.221  38.358 -0.1924  0.3979 -0.2879
19535TIP3    H180096   3.433   4.272  38.295  0.2536  1.5744  0.2811
19535TIP3    H280097   3.442   4.239  38.442  0.1791  0.0911 -0.0361
19536TIP3   OH280098   0.019   4.138   9.014 -0.1733  0.1962  0.2198
19536TIP3    H180099   0.031   4.043   9.025  0.5050  0.2509 -0.0370
19536TIP3    H280100   0.084   4.163   8.948 -0.8548  0.7180 -0.2712
19537TIP3   OH280101   1.787   0.107   8.572  0.0004  0.0170  0.4819
19537TIP3    H180102   1.853   0.145   8.514 -0.2930  1.1995  0.9015
19537TIP3    H280103   1.823   0.022   8.596 -0.7675 -1.4335 -2.9898
19538TIP3   OH280104   0.045   3.256   0.668 -0.5392 -0.4722 -0.0225
19538TIP3    H180105  -0.041   3.269   0.627 -0.5995 -0.0657  0.2266
19538TIP3    H280106   0.074   3.345   0.692  0.3993 -0.4884 -0.9913
19539TIP3   OH280107   1.443   2.174   8.162  0.0592  0.3066 -0.0021
19539TIP3    H180108   1.497   2.202   8.088  1.3147  0.0575  0.7815
19539TIP3    H280109   1.444   2.078   8.157  0.8116  0.2654  0.7782
19540TIP3   OH280110   1.183   1.575  41.454 -0.2871 -0.0945  0.2429
19540TIP3    H180111   1.274   1.602  41.444  0.4095 -2.1430  0.6489
19540TIP3    H280112   1.141   1.602  41.373  1.1679 -0.8455 -0.8049
19541TIP3   OH280113   4.168   3.618   6.458  0.0653  0.6398  0.9817
19541TIP3    H180114   4.165   3.710   6.432  1.6928  0.6709  0.8250
19541TIP3    H280115   4.261   3.599   6.469 -0.2173 -1.0694  0.7167
19542TIP3   OH280116   3.410   1.844   9.730 -0.0818  0.2358  0.2096
19542TIP3    H180117   3.434   1.784   9.659 -0.4180  2.1179 -1.5969
19542TIP3    H280118   3.487   1.846   9.787 -0.3605 -2.4602  0.7841
19543TIP3   OH280119   0.779   1.703  34.514  0.1926 -0.0582  0.4538
19543TIP3    H180120   0.738   1.622  34.544  0.2483 -0.1043  0.4049
19543TIP3    H280121   0.730   1.728  34.436  0.3167 -0.1617  0.3428
19544TIP3   OH280122   3.970   1.880   0.306  0.2197 -0.3060 -0.0917
19544TIP3    H180123   3.907   1.913   0.370  0.1581 -0.8071  0.1142
19544TIP3    H280124   3.918   1.827   0.246 -0.1253  1.9553 -1.9384
19545TIP3   OH280125   1.823   0.777  28.177  0.5896 -0.7206  0.3200
19545TIP3    H180126   1.861   0.823  28.252  1.3061  0.0470 -0.4848
19545TIP3    H280127   1.751   0.726  28.214  0.3473  0.3476  1.3788
19546TIP3   OH280128   1.244   2.324  27.876 -0.1878 -0.0037  0.0430
19546TIP3    H180129   1.313   2.314  27.810 -0.1607 -0.1385  0.0896
19546TIP3    H280130   1.165   2.345  27.826 -0.1532 -0.0398 -0.0269
19547TIP3   OH280131   2.596   3.356  30.263  0.3619 -0.1439  0.2849
19547TIP3    H180132   2.534   3.335  30.333  0.3411  0.2736  0.3918
19547TIP3    H280133   2.577   3.291  30.195 -1.7566  1.3130 -0.6525
19548TIP3   OH280134   2.700   3.663  29.550 -0.0309 -0.6155 -0.2494
19548TIP3    H180135   2.723   3.694  29.638  2.1728 -1.0295 -0.6327
19548TIP3    H280136   2.609   3.692  29.539 -0.5746 -1.0120  2.3456
19549TIP3   OH280137   1.071   2.759  31.152  0.8635 -0.1105  0.1715
19549TIP3    H180138   1.089   2.671  31.185  1.0671  0.6027  2.0764
19549TIP3    H280139   0.976   2.769  31.160  0.7947 -0.2735 -0.3915
19550TIP3   OH280140   2.150   0.907  30.088  0.4596  0.0207  0.5727
19550TIP3    H180141   2.116   0.858  30.163 -1.5376  0.7949  0.2412
19550TIP3    H280142   2.171   0.994  30.123  0.4181  0.0916  0.4242
19551TIP3   OH280143   2.618   3.559   5.223  0.0124  0.1448  0.4541
19551TIP3    H180144   2.538   3.559   5.170  0.9865 -4.1427 -1.4312
19551TIP3    H280145   2.688   3.571   5.159  1.0238 -0.7003  1.3734
19552TIP3   OH280146   3.224   0.586  33.619  0.0279 -0.1995  0.4287
19552TIP3    H180147   3.235   0.668  33.570  1.1760 -1.0494 -0.8086
19552TIP3    H280148   3.135   0.558  33.599 -0.3732  0.7362  0.8615
19553TIP3   OH280149   0.103   3.818  26.761  0.3675  0.2335 -0.0563
19553TIP3    H180150   0.094   3.768  26.841 -1.6795  0.6482  0.0291
19553TIP3    H280151   0.109   3.753  26.691 -0.1073 -0.1372  0.2463
19554TIP3   OH280152   3.257   2.002  38.123 -0.1548 -0.3446 -0.8858
19554TIP3    H180153   3.185   2.062  38.106 -1.2120 -1.4309 -0.3566
19554TIP3    H280154   3.296   1.986  38.037  1.1702  2.2832 -0.8720
19555TIP3   OH280155   3.262   3.302   2.161 -0.2839 -0.1342 -1.3882
19555TIP3    H180156   3.344   3.261   2.190 -0.4934  1.1660  1.3125
19555TIP3    H280157   3.290   3.387   2.125 -0.4218  0.5851  0.1135
19556TIP3   OH280158   0.517   1.165   4.844 -0.3074  0.5383  0.5654
19556TIP3    H180159   0.484   1.078   4.824  2.1306 -0.5021  0.6327
19556TIP3    H280160   0.575   1.186   4.771 -1.4283  2.4693  0.1737
19557TIP3   OH280161   0.037   1.258  27.623  0.3269 -0.0260  0.6222
19557TIP3    H180162   0.107   1.270  27.559  1.1113 -0.6474  1.3399
19557TIP3    H280163   0.007   1.168  27.609  0.1295  0.0183  0.7625
19558TIP3   OH280164   0.992   1.337  40.448 -0.0097 -0.0411 -0.5285
19558TIP3    H180165   1.082   1.307  40.435  0.3708  0.7031  0.2890
19558TIP3    H280166   0.982   1.409  40.386 -0.3408 -0.6771 -1.2294
19559TIP3   OH280167   1.084   1.010  11.644  0.3380 -0.2541 -0.1389
19559TIP3    H180168   1.166   1.032  11.599  1.2820 -1.4105  0.9494
19559TIP3    H280169   1.073   0.916  11.628  0.1837 -0.4799  1.2132
19560TIP3   OH280170   3.465   2.550  36.900  0.5359 -0.3773  0.4648
19560TIP3    H180171   3.374   2.572  36.883  0.7034  0.0870  0.1342
19560TIP3    H280172   3.515   2.613  36.847  1.0528 -0.0705  1.2982
19561TIP3   OH280173   2.395   2.567   2.073 -0.4699  0.1478  0.3023
19561TIP3    H180174   2.340   2.641   2.047  0.0390  0.0238 -1.2133
19561TIP3    H280175   2.465   2.564   2.008  0.6032 -0.5152  1.4249
19562TIP3   OH280176   1.077   4.181  31.303  0.1125 -0.0357 -0.3525
19562TIP3    H180177   1.136   4.116  31.342 -1.6016 -1.6910 -0.3835
19562TIP3    H280178   1.010   4.196  31.370 -1.0091 -0.3708 -1.3644
19563TIP3   OH280179   3.220   0.768  33.041  0.0110 -0.7656  0.3222
19563TIP3    H180180   3.146   0.740  33.094 -2.5047  1.8461 -1.4753
19563TIP3    H280181   3.259   0.841  33.089 -0.8901  0.1724 -0.3279
19564TIP3   OH280182   0.406   1.666   9.917 -0.6345  0.0228  0.1668
19564TIP3    H180183   0.394   1.732   9.848  2.4120 -0.0180 -0.5513
19564TIP3    H280184   0.343   1.597   9.896 -1.5508  1.1769 -1.0557
19565TIP3   OH280185   2.441   1.123  10.893  0.1298  0.4741  0.0795
19565TIP3    H180186   2.411   1.123  10.984  3.0214 -0.7271  1.1667
19565TIP3    H280187   2.390   1.053  10.851  0.7023 -0.9214  1.5916
19566TIP3   OH280188   0.269   3.958   9.115 -0.2327 -0.1446  0.1665
19566TIP3    H180189   0.357   3.968   9.079  0.2158 -1.0229  0.9889
19566TIP3    H280190   0.244   4.047   9.141  1.1857 -0.1270  1.6604
19567TIP3   OH280191   2.317   4.085  35.301 -0.6792 -0.4498  0.0767
19567TIP3    H180192   2.296   4.167  35.257 -0.1525 -0.0363  0.5878
19567TIP3    H280193   2.305   4.018  35.233  0.3991  0.2042 -0.7976
19568TIP3   OH280194   3.561   2.902  39.737 -0.2044  0.3311  0.2269
19568TIP3    H180195   3.528   2.830  39.682 -1.2263  0.7919  0.2171
19568TIP3    H280196   3.495   2.911  39.806 -0.0490  1.2179  0.2675
19569TIP3   OH280197   0.211   3.233  35.133 -0.1924  0.2149 -0.2341
19569TIP3    H180198   0.306   3.230  35.142 -0.2238  0.2604  0.1378
19569TIP3    H280199   0.178   3.197  35.216 -0.5000  1.5108  0.2372
19570TIP3   OH280200   3.062   2.239  32.416 -0.0309  0.1616 -0.2794
19570TIP3    H180201   3.121   2.252  32.340  0.0637 -0.6290 -0.3421
19570TIP3    H280202   3.122   2.230  32.490 -0.0316 -1.3103 -0.4363
19571TIP3   OH280203   3.005   1.416   5.122 -0.2559  0.2233 -0.4908
19571TIP3    H180204   3.027   1.428   5.029 -0.1373 -0.5992 -0.5784
19571TIP3    H280205   2.940   1.347   5.122  1.4505 -1.4697  0.1972
19572TIP3   OH280206   3.958   3.361   1.363 -0.0775 -0.1985 -0.5499
19572TIP3    H180207   4.008   3.280   1.376 -1.1054 -1.1675 -2.2095
19572TIP3    H280208   3.884   3.354   1.423  0.2909 -0.0706 -0.0744
19573TIP3   OH280209   2.007   1.090  29.267  0.0556  0.4788 -0.0677
19573TIP3    H180210   2.098   1.083  29.295 -0.2589 -0.0153  0.8762
19573TIP3    H280211   2.005   1.048  29.181  0.8050  0.9076 -0.2989
19574TIP3   OH280212   2.569   2.040   8.999 -0.5271 -0.4243 -0.6522
19574TIP3    H180213   2.569   2.082   8.913 -0.8341 -0.9332 -0.9107
19574TIP3    H280214   2.487   1.991   9.001  0.1614 -1.6160 -0.6747
19575TIP3   OH280215   1.018   0.165  33.057 -0.5653 -0.1303  0.1929
19575TIP3    H180216   1.066   0.088  33.086 -2.0945 -1.4097 -0.5368
19575TIP3    H280217   0.970   0.194  33.135  0.5028  0.4863  0.6337
19576TIP3   OH280218   1.215   3.308  28.884  0.1913 -0.0373 -0.0650
19576TIP3    H180219   1.306   3.332  28.868  0.3703 -0.5956  0.0990
19576TIP3    H280220   1.180   3.378  28.939  0.6276 -0.0129  0.1815
19577TIP3   OH280221   0.446   2.095   9.606  0.1297 -0.2983  0.1159
19577TIP3    H180222   0.368   2.149   9.590  1.9277  2.0334 -1.3832
19577TIP3    H280223   0.493   2.141   9.675  0.2968 -1.5836  0.8791
19578TIP3   OH280224   3.989   4.235  10.475 -0.0457 -0.1343  0.4796
19578TIP3    H180225   3.904   4.223  10.517 -0.7251 -0.0906 -0.8070
19578TIP3    H280226   3.976   4.309  10.416  1.8438  1.9892  2.5729
19579TIP3   OH280227   3.858   0.142   3.795  0.2635  0.7323 -0.2835
19579TIP3    H180228   3.880   0.169   3.884  0.2753 -0.0764 -0.0302
19579TIP3    H280229   3.762   0.140   3.794  0.2647 -0.6799  0.1753
19580TIP3   OH280230   1.187   2.148  31.584 -0.5754 -0.6012  0.3957
19580TIP3    H180231   1.101   2.187  31.599  0.6410  1.1221  3.7967
19580TIP3    H280232   1.250   2.212  31.617  2.0173 -2.2476 -0.9325
19581TIP3   OH280233   4.148   1.867  37.231 -0.0307 -0.0375  0.2550
19581TIP3    H180234   4.133   1.848  37.138  0.4392  0.9337 -0.0382
19581TIP3    H280235   4.241   1.850  37.244  0.0234  0.3738  0.4094
19582TIP3   OH280236   1.855   3.696  14.140  0.0826 -0.0095 -0.4297
19582TIP3    H180237   1.921   3.661  14.080 -1.7563 -0.2389 -2.4187
19582TIP3    H280238   1.836   3.784  14.107  0.3777  0.6261  0.9874
19583TIP3   OH280239   0.597   3.475  31.418  0.2323  0.4471 -0.1012
19583TIP3    H180240   0.524   3.532  31.393 -0.7882 -0.8334 -0.1233
19583TIP3    H280241   0.608   3.491  31.512 -0.3301  0.3926 -0.0205
19584TIP3   OH280242   4.166   0.055   7.237 -0.4564 -0.0930  0.1975
19584TIP3    H180243   4.168  -0.032   7.278 -2.6640  0.7840  2.4290
19584TIP3    H280244   4.119   0.041   7.155 -0.8683 -0.9993  0.5640
19585TIP3   OH280245   0.816   2.774   4.575  0.4109  0.5507 -0.0592
19585TIP3    H180246   0.884   2.735   4.521  0.6186  0.7102  0.0821
19585TIP3    H280247   0.851   2.769   4.664  0.3861  0.9344 -0.0236
19586TIP3   OH280248   2.413   0.878  12.826  0.0895 -0.4785  0.6772
19586TIP3    H180249   2.407   0.913  12.914 -0.3646  0.1512  0.4027
19586TIP3    H280250   2.505   0.890  12.802 -0.1352  0.9186  0.4433
19587TIP3   OH280251   2.623   0.443  38.694 -0.3616 -0.2826 -0.4516
19587TIP3    H180252   2.541   0.444  38.645  0.0014 -0.9914 -1.0971
19587TIP3    H280253   2.685   0.489  38.637 -0.2561  0.0703 -0.0569
19588TIP3   OH280254   1.923   2.397  28.935  0.2196  0.4319 -0.3359
19588TIP3    H180255   1.883   2.468  28.985 -0.9111 -1.0070  0.8993
19588TIP3    H280256   1.928   2.430  28.846 -0.2207  2.0755  0.2119
19589TIP3   OH280257   1.005   0.199  16.980  0.3048 -0.1875  0.3920
19589TIP3    H180258   1.038   0.208  16.890  3.2983  1.1761  1.4761
19589TIP3    H280259   1.028   0.110  17.006  1.8893  0.2594  0.6173
19590TIP3   OH280260   2.356   4.158  19.528 -0.0435  0.2210  0.0370
19590TIP3    H180261   2.307   4.116  19.598  0.5360 -0.7020 -0.0959
19590TIP3    H280262   2.335   4.107  19.450  1.5833 -0.5885  0.0937
19591TIP3   OH280263   2.601   3.675   4.269  0.2703  0.3824 -0.2546
19591TIP3    H180264   2.565   3.588   4.251 -0.6922  0.5422  0.7473
19591TIP3    H280265   2.679   3.681   4.214  0.3150 -1.0803 -0.3943
19592TIP3   OH280266   3.479   0.862   5.196 -0.0333 -0.3242  0.4675
19592TIP3    H180267   3.522   0.787   5.236 -0.6739 -1.4186 -0.8476
19592TIP3    H280268   3.532   0.883   5.119 -2.1036 -2.1226 -1.5739
19593TIP3   OH280269   1.752   3.829  30.230  0.8772  0.3394 -0.4211
19593TIP3    H180270   1.669   3.875  30.214  0.7207  0.1302 -0.2332
19593TIP3    H280271   1.757   3.765  30.159 -0.1767 -1.0834  0.7092
19594TIP3   OH280272   3.630   4.011   1.159  0.4035  0.3177 -0.6608
19594TIP3    H180273   3.678   3.929   1.173  2.4162  1.4501 -0.4801
19594TIP3    H280274   3.648   4.034   1.068 -1.8831 -0.4427 -1.3562
19595TIP3   OH280275   2.941   0.765   1.042  0.4948 -0.4441 -0.3083
19595TIP3    H180276   2.982   0.735   0.961  1.5922 -0.0066  0.0682
19595TIP3    H280277   2.891   0.689   1.073 -0.0212 -0.5822 -1.4384
19596TIP3   OH280278   1.008   1.835  39.752  0.2035 -0.4229  0.0405
19596TIP3    H180279   0.962   1.794  39.679  1.0351 -0.3832 -0.5173
19596TIP3    H280280   1.091   1.787  39.759  0.2068 -0.3203  0.8495
19597TIP3   OH280281   4.335   0.506  11.228  1.2770 -0.9904 -0.2253
19597TIP3    H180282   4.337   0.434  11.292  1.7947 -0.8877 -0.1187
19597TIP3    H280283   4.306   0.582  11.279  1.4096 -0.9720 -0.1763
19598TIP3   OH280284   2.328   4.122   5.007  0.0633  0.1536  0.4266
19598TIP3    H180285   2.367   4.073   5.079 -1.0221 -1.1321  0.1902
19598TIP3    H280286   2.346   4.069   4.929 -0.5572  0.4624  0.0613
19599TIP3   OH280287   4.355   1.872  36.038 -0.1935 -0.1138 -0.6759
19599TIP3    H180288   4.414   1.945  36.054  0.2417 -0.4665 -0.6777
19599TIP3    H280289   4.322   1.848  36.124 -1.5248  1.0626 -0.8123
19600TIP3   OH280290   4.333   2.467   6.852  0.1541  0.2101  0.7180
19600TIP3    H180291   4.361   2.496   6.939 -1.0044  1.7221  0.6378
19600TIP3    H280292   4.373   2.530   6.792  0.7195 -0.6597  0.1553
19601TIP3   OH280293   0.793   1.228  41.112  0.2324 -0.4371  0.0220
19601TIP3    H180294   0.837   1.236  41.027  0.1382 -1.3498 -0.1172
19601TIP3    H280295   0.724   1.163  41.097 -0.0600 -0.2882  0.6906
19602TIP3   OH280296   1.054   1.150  33.710  0.5196 -0.8211 -0.2499
19602TIP3    H180297   0.979   1.111  33.756 -0.0182  1.4000  0.9389
19602TIP3    H280298   1.015   1.191  33.633  0.5489 -0.1130  0.0969
19603TIP3   OH280299   2.724   3.536  34.685  0.2620  0.4641  0.6933
19603TIP3    H180300   2.728   3.609  34.623  0.2530 -0.5171 -0.5164
19603TIP3    H280301   2.811   3.497  34.682  0.6340  1.1070  2.2270
19604TIP3   OH280302   3.394   3.527  38.482 -0.8223 -0.4946  0.6299
19604TIP3    H180303   3.339   3.598  38.515 -1.0448 -0.6248  0.5353
19604TIP3    H280304   3.483   3.560  38.492 -0.9276 -0.1807  0.5414
19605TIP3   OH280305   4.397   3.336   2.641 -0.1786 -0.0851 -0.7340
19605TIP3    H180306   4.348   3.400   2.694  0.9055  0.3057 -0.1731
19605TIP3    H280307   4.342   3.322   2.564 -1.3619  0.0276  0.0667
19606TIP3   OH280308   4.186   2.614  34.394  0.1545 -0.2686  0.0583
19606TIP3    H180309   4.265   2.633  34.344 -0.3918  1.7481 -0.1219
19606TIP3    H280310   4.217   2.569  34.473  1.2120 -1.6695 -1.0838
19607TIP3   OH280311   0.038   2.093   3.690  0.2613  0.9368 -0.4811
19607TIP3    H180312   0.050   2.166   3.629 -1.2378  1.2236 -0.4730
19607TIP3    H280313  -0.031   2.041   3.650 -0.3787  0.8459  0.7248
19608TIP3   OH280314   1.052   2.980   4.300 -0.0941  0.2548 -0.0952
19608TIP3    H180315   1.119   2.979   4.369  1.3761  4.5559 -1.1512
19608TIP3    H280316   0.971   3.003   4.345  0.3192  0.5219  0.5225
19609TIP3   OH280317   3.506   1.943   7.599  0.2206  0.6597  0.0844
19609TIP3    H180318   3.512   2.005   7.671 -0.0436  1.2393 -0.3809
19609TIP3    H280319   3.565   1.978   7.532 -0.2876  0.6628 -0.3677
19610TIP3   OH280320   1.315   1.555  35.306 -0.0819 -0.1846 -0.3656
19610TIP3    H180321   1.334   1.583  35.395  1.6111 -1.3057 -0.3187
19610TIP3    H280322   1.253   1.483  35.316 -0.9466  0.5712 -0.2021
19611TIP3   OH280323   1.256   0.326   1.529  0.2279 -0.1649 -1.0211
19611TIP3    H180324   1.219   0.271   1.597 -0.7016  0.6432 -0.8447
19611TIP3    H280325   1.306   0.393   1.576 -0.8426  0.7039 -1.0740
19612TIP3   OH280326   4.262   0.101   9.897 -0.4752 -0.4802  0.1144
19612TIP3    H180327   4.316   0.174   9.868 -1.4405 -0.0208 -0.5619
19612TIP3    H280328   4.306   0.024   9.862  2.2708 -0.6156  3.3377
19613TIP3   OH280329   3.662   1.708  38.772 -0.3729  0.0844  0.1751
19613TIP3    H180330   3.698   1.712  38.683 -2.4472  0.4627 -0.7044
19613TIP3    H280331   3.638   1.617  38.784  0.3935 -0.0763  0.5867
19614TIP3   OH280332   1.146   3.884  30.380 -0.0210 -0.0555  0.1553
19614TIP3    H180333   1.224   3.874  30.326 -1.2103 -0.8668 -1.5214
19614TIP3    H280334   1.086   3.935  30.326 -0.3803  1.2789  1.7455
19615TIP3   OH280335   3.196   0.404  27.069  0.1300  0.0326  0.0652
19615TIP3    H180336   3.178   0.344  26.997  1.8936  0.4775 -0.8062
19615TIP3    H280337   3.117   0.457  27.076 -0.4486 -0.6623 -0.8795
19616TIP3   OH280338   3.358   0.592  28.349  0.4885  0.4459 -0.3239
19616TIP3    H180339   3.439   0.595  28.298  0.5796 -0.1636 -0.2252
19616TIP3    H280340   3.334   0.500  28.351  0.2076  0.5255  0.3035
19617TIP3   OH280341   2.584   4.055  30.577  0.0756  0.0210 -0.3951
19617TIP3    H180342   2.677   4.064  30.598 -0.5301  1.5919  2.0999
19617TIP3    H280343   2.582   4.044  30.482  2.7794  0.2693 -0.5652
19618TIP3   OH280344   4.210   0.417   3.254 -0.3850 -0.6235  0.0451
19618TIP3    H180345   4.158   0.446   3.180  3.1750  1.8430 -1.7438
19618TIP3    H280346   4.229   0.325   3.236 -1.0108 -0.5325 -1.1506
19619TIP3   OH280347   1.930   3.145  29.733  0.0839 -0.0420 -0.2885
19619TIP3    H180348   1.873   3.068  29.725  0.5849 -0.4143 -0.3583
19619TIP3    H280349   1.953   3.168  29.643  1.9604 -1.3765 -0.2243
19620TIP3   OH280350   2.022   1.509  12.128 -0.4629  0.2214 -0.4431
19620TIP3    H180351   2.108   1.542  12.154 -0.7985  1.4959 -0.8474
19620TIP3    H280352   1.990   1.574  12.065 -1.1553 -0.9463 -1.3262
19621TIP3   OH280353   2.489   3.171   2.403 -0.8800  0.3252  0.2919
19621TIP3    H180354   2.482   3.119   2.323 -0.9735  0.1324  0.4268
19621TIP3    H280355   2.501   3.261   2.371 -1.7285  0.3625  0.0531
19622TIP3   OH280356   4.314   0.534   6.492 -0.3329 -0.4638  0.1389
19622TIP3    H180357   4.253   0.468   6.460 -0.6166  0.7160 -1.9461
19622TIP3    H280358   4.270   0.572   6.569 -1.0746 -1.3110  0.1464
19623TIP3   OH280359   2.789   3.481  32.883  0.4017 -0.0943 -0.6953
19623TIP3    H180360   2.824   3.400  32.847 -1.0624 -0.7831 -0.6460
19623TIP3    H280361   2.708   3.496  32.835 -0.7344 -0.1277  1.0921
19624TIP3   OH280362   0.504   1.869  28.599 -0.0977  0.7570  0.2659
19624TIP3    H180363   0.534   1.791  28.645 -0.2975 -0.2528 -1.2482
19624TIP3    H280364   0.487   1.839  28.509 -2.3436  2.0192  0.1889
19625TIP3   OH280365   3.350   2.076  31.179  0.0371 -0.8173 -0.4368
19625TIP3    H180366   3.308   2.072  31.266  1.5590 -0.5169  0.3510
19625TIP3    H280367   3.319   2.158  31.141  0.7108 -0.0490  0.5963
19626TIP3   OH280368   2.668   3.560  38.072 -0.0952  0.1844  0.6485
19626TIP3    H180369   2.610   3.515  38.134 -1.9757  0.7400 -0.6255
19626TIP3    H280370   2.609   3.606  38.012  1.5842 -0.6953 -1.8697
19627TIP3   OH280371   2.466   2.750  10.795  0.5530  0.1556 -0.3497
19627TIP3    H180372   2.437   2.834  10.760  2.5753  1.3622  0.7336
19627TIP3    H280373   2.547   2.769  10.842 -0.2890 -1.9203  2.2113
19628TIP3   OH280374   2.463   4.161  33.949  0.0389  0.1412  0.1259
19628TIP3    H180375   2.499   4.127  33.867 -0.0602  2.3170 -0.8975
19628TIP3    H280376   2.528   4.137  34.015  0.5657 -0.8961 -0.7344
19629TIP3   OH280377   0.790   2.198   3.489  0.0954 -0.9585 -0.1119
19629TIP3    H180378   0.821   2.289   3.493  1.8212 -1.5492  1.5142
19629TIP3    H280379   0.855   2.153   3.436 -0.7854 -1.2709 -0.9600
19630TIP3   OH280380   3.762   0.444  10.402  0.3508 -0.1031  0.5583
19630TIP3    H180381   3.789   0.513  10.341 -0.5110  2.0204  2.4667
19630TIP3    H280382   3.667   0.447  10.401  0.2872 -1.4218  0.5835
19631TIP3   OH280383   0.647   1.718  37.705  0.2860  0.4017  0.5963
19631TIP3    H180384   0.697   1.639  37.689  0.1987  0.5436 -0.4535
19631TIP3    H280385   0.622   1.713  37.797  1.6604  0.0132  0.9573
19632TIP3   OH280386   0.948   3.641   8.943  0.1593 -0.4891  0.0102
19632TIP3    H180387   0.999   3.707   8.990 -0.1728  0.2769 -0.6601
19632TIP3    H280388   0.937   3.678   8.855 -1.3048 -0.7488  0.0467
19633TIP3   OH280389   1.077   0.709   4.598  0.5018 -0.0309  0.2298
19633TIP3    H180390   1.116   0.624   4.617 -0.1240 -0.4348 -0.2173
19633TIP3    H280391   1.123   0.741   4.520  0.3724 -0.2208  0.0729
19634TIP3   OH280392   1.729   2.095   7.579  0.2241 -0.2095 -0.2562
19634TIP3    H180393   1.702   2.021   7.634 -0.3946  0.0754 -0.1717
19634TIP3    H280394   1.716   2.065   7.489  1.4148 -0.7448 -0.2630
19635TIP3   OH280395   3.845   3.015  30.466 -0.0449 -0.4435 -0.3474
19635TIP3    H180396   3.763   3.041  30.423 -0.6444 -1.6564  0.0057
19635TIP3    H280397   3.822   2.936  30.514  1.4908 -1.1200 -0.6881
19636TIP3   OH280398   1.021   4.347   8.658 -0.1757 -0.8147  0.3056
19636TIP3    H180399   0.932   4.336   8.692  0.0063 -0.1473  1.0521
19636TIP3    H280400   1.072   4.377   8.734  0.1835  1.0888 -0.6118
19637TIP3   OH280401   1.386   1.122  19.264  0.2897 -0.8962 -0.0300
19637TIP3    H180402   1.370   1.060  19.192  0.3951 -1.3134  0.3027
19637TIP3    H280403   1.427   1.197  19.222 -0.3260 -0.8256 -0.5239
19638TIP3   OH280404   3.928   0.253  40.670 -0.3978 -0.8685  0.6599
19638TIP3    H180405   3.952   0.181  40.728  1.5310  0.7774  2.0768
19638TIP3    H280406   3.892   0.320  40.729  1.3280  0.7448 -0.0115
19639TIP3   OH280407   3.928   0.517  28.253  0.3434  0.5818  0.5302
19639TIP3    H180408   3.869   0.443  28.268  0.6078  0.4915  1.1618
19639TIP3    H280409   3.875   0.581  28.207 -0.4224  0.7335  1.5901
19640TIP3   OH280410   4.272   4.117  33.359  0.6624  0.4951 -0.2955
19640TIP3    H180411   4.204   4.184  33.369 -0.0183 -0.2405  0.1319
19640TIP3    H280412   4.227   4.043  33.320  0.8412 -0.5755  1.4447
19641TIP3   OH280413   3.852   0.144   4.815  0.5567  0.7318  0.0916
19641TIP3    H180414   3.760   0.139   4.788  0.9309 -1.5829 -1.0078
19641TIP3    H280415   3.896   0.184   4.740  0.9172 -1.5523 -1.0181
19642TIP3   OH280416   3.663   1.004   8.384  0.0977 -0.5602 -0.3924
19642TIP3    H180417   3.622   0.937   8.328 -0.0685 -1.4516  0.7600
19642TIP3    H280418   3.757   0.991   8.372  0.0673 -0.1099 -1.1860
19643TIP3   OH280419   0.383   1.809  12.933 -0.5979 -0.1986  0.2077
19643TIP3    H180420   0.367   1.789  13.025 -0.6458  1.9411  0.7137
19643TIP3    H280421   0.446   1.881  12.934 -1.4233  0.6149 -1.3636
19644TIP3   OH280422   2.547   4.171  29.303 -0.1749 -0.2684 -0.3968
19644TIP3    H180423   2.530   4.167  29.397 -0.6492  0.3735 -0.4469
19644TIP3    H280424   2.613   4.240  29.294  0.8651 -1.2467 -0.4123
19645TIP3   OH280425   3.967   0.058  31.444 -0.0282 -0.2433  0.5471
19645TIP3    H180426   3.898   0.003  31.481  0.9706 -0.1888  2.6070
19645TIP3    H280427   3.931   0.089  31.361 -1.3144 -2.5306  0.1860
19646TIP3   OH280428   2.435   2.716   9.720 -0.1201  0.2083  0.6755
19646TIP3    H180429   2.486   2.792   9.690  0.5457 -0.0632  1.1097
19646TIP3    H280430   2.412   2.737   9.810  1.7839 -0.9588  1.4857
19647TIP3   OH280431   0.020   1.800   1.599  0.0926  0.2979 -0.0793
19647TIP3    H180432  -0.059   1.764   1.641 -0.4427 -0.0314 -1.3255
19647TIP3    H280433   0.046   1.734   1.535  1.4984  0.3299  0.4279
19648TIP3   OH280434   0.484   2.542  39.879  0.2449  0.2556 -0.1319
19648TIP3    H180435   0.449   2.518  39.794 -0.0661 -1.6322  0.4684
19648TIP3    H280436   0.540   2.467  39.903  0.5743  0.8919  1.1676
19649TIP3   OH280437   0.179   2.619  10.678  0.1490  0.1734  0.1466
19649TIP3    H180438   0.259   2.575  10.707 -1.3077 -2.7677  0.0752
19649TIP3    H280439   0.180   2.609  10.583 -0.5117 -0.3587  0.1858
19650TIP3   OH280440   0.327   2.964  30.509 -0.2078  0.0776 -0.6456
19650TIP3    H180441   0.250   2.918  30.542  1.2979 -1.0262  1.5430
19650TIP3    H280442   0.382   2.896  30.471  1.3469  0.1818  1.2445
19651TIP3   OH280443   3.156   3.365  34.215  0.3224 -0.2123 -0.4534
19651TIP3    H180444   3.066   3.381  34.186  0.8024 -1.1451 -2.7467
19651TIP3    H280445   3.152   3.282  34.262 -0.0501 -0.1943 -0.4503
19652TIP3   OH280446   0.488   3.175   4.945  0.1659  0.1327  0.5394
19652TIP3    H180447   0.414   3.121   4.918  2.5563 -2.5412 -1.2734
19652TIP3    H280448   0.553   3.112   4.978  1.8427  2.2876  1.6163
19653TIP3   OH280449   3.737   1.224   4.744  0.2977 -0.1686  0.1824
19653TIP3    H180450   3.789   1.180   4.811 -0.1992 -0.9064  0.0940
19653TIP3    H280451   3.648   1.225   4.779  0.4321  1.6024  0.5941
19654TIP3   OH280452   0.126   2.928   3.772 -0.0784  0.7328  0.3338
19654TIP3    H180453   0.184   2.876   3.828  0.8715  2.1570  0.7284
19654TIP3    H280454   0.038   2.898   3.795  0.4446 -1.2235 -0.0195
19655TIP3   OH280455   4.294   1.304  33.110  0.3090 -0.1100  1.0500
19655TIP3    H180456   4.331   1.381  33.067  1.2460 -0.5671  0.9934
19655TIP3    H280457   4.311   1.318  33.203  0.0581 -0.0323  1.0822
19656TIP3   OH280458   2.279   0.508   6.256 -0.6945  0.3320 -0.4164
19656TIP3    H180459   2.328   0.590   6.256 -1.6256  0.9096  0.3705
19656TIP3    H280460   2.213   0.520   6.324 -1.4466 -0.7138 -0.9423
19657TIP3   OH280461   0.449   3.156  30.994  0.4828  0.2331 -0.0071
19657TIP3    H180462   0.542   3.175  30.986  0.5552 -0.1967 -0.2195
19657TIP3    H280463   0.422   3.132  30.905  0.1043  0.6397 -0.0068
19658TIP3   OH280464   1.115   0.713  28.599  0.9000 -0.6901 -0.1517
19658TIP3    H180465   1.124   0.807  28.608 -1.9543 -0.4470  0.9368
19658TIP3    H280466   1.110   0.699  28.504 -1.2132  0.6221 -0.3052
19659TIP3   OH280467   3.467   1.401   5.607  0.1016  0.5911  0.0673
19659TIP3    H180468   3.441   1.399   5.699 -0.8555  0.3792 -0.2039
19659TIP3    H280469   3.563   1.410   5.610  0.2663 -1.1133  1.1007
19660TIP3   OH280470   3.334   3.074   7.260  0.1785 -0.2245  0.3340
19660TIP3    H180471   3.381   3.026   7.192 -0.5863 -3.3523  1.8048
19660TIP3    H280472   3.399   3.084   7.330 -0.2860 -1.3339  0.9547
19661TIP3   OH280473   1.978   0.985   8.354  0.1043 -0.3443  0.0259
19661TIP3    H180474   1.886   0.984   8.380  0.2079 -1.3323  0.4069
19661TIP3    H280475   1.980   0.940   8.270  0.0525  0.9853 -0.7019
19662TIP3   OH280476   3.535   4.111   2.898  0.0022 -0.3173 -0.6688
19662TIP3    H180477   3.476   4.068   2.836  0.2695 -2.2505  0.3498
19662TIP3    H280478   3.622   4.084   2.870  0.2356  0.2147 -0.4665
19663TIP3   OH280479   3.638   1.422  39.099 -0.1093 -0.0543 -0.7280
19663TIP3    H180480   3.664   1.498  39.151 -1.7717  0.9241 -1.2296
19663TIP3    H280481   3.612   1.356  39.164 -0.0446  0.3400 -0.2985
19664TIP3   OH280482   0.860   4.380   9.510 -0.4029  0.6192  0.0538
19664TIP3    H180483   0.770   4.415   9.506 -0.3271  0.9390  0.8430
19664TIP3    H280484   0.907   4.442   9.565  0.2636  0.3492 -0.2014
19665TIP3   OH280485   1.973   2.571  38.418 -0.2141  0.2796  0.1113
19665TIP3    H180486   1.991   2.480  38.396 -1.1352 -0.0488  0.6228
19665TIP3    H280487   1.883   2.570  38.452 -0.2556  1.3860  0.0790
19666TIP3   OH280488   0.794   0.293  39.391  0.4653  0.0984 -0.2871
19666TIP3    H180489   0.742   0.216  39.369 -0.8143  0.2459  1.8716
19666TIP3    H280490   0.884   0.267  39.375  0.1200 -2.1095  0.9992
19667TIP3   OH280491   2.498   3.663  39.160 -0.2192  0.4244  0.2859
19667TIP3    H180492   2.580   3.664  39.112 -0.3607  1.0730  0.0417
19667TIP3    H280493   2.478   3.570  39.173 -0.2990  0.2147 -1.1215
19668TIP3   OH280494   2.287   3.485  32.173  0.2008 -0.5334 -0.4578
19668TIP3    H180495   2.314   3.568  32.214 -1.1298 -0.8120  1.0751
19668TIP3    H280496   2.365   3.456  32.126  1.2121  0.7811  0.3145
19669TIP3   OH280497   4.274   2.536  34.905  0.6414 -0.1629 -0.4326
19669TIP3    H180498   4.362   2.539  34.943 -0.7602  0.8935  3.2051
19669TIP3    H280499   4.233   2.459  34.945 -0.4823  0.1376 -0.9591
19670TIP3   OH280500   1.157   0.824  30.026  0.2985 -0.1592 -1.0778
19670TIP3    H180501   1.114   0.903  30.058  1.8657  0.3094 -0.0003
19670TIP3    H280502   1.146   0.760  30.097 -0.1610 -0.6140 -1.5550
19671TIP3   OH280503   4.074   3.390  36.415  0.1919  0.5940  0.7533
19671TIP3    H180504   4.045   3.481  36.420  0.3497  0.6620  0.4448
19671TIP3    H280505   4.015   3.343  36.474 -1.9626  0.3833 -1.3969
19672TIP3   OH280506   1.496   4.154  34.634 -0.2869  0.3164  0.1269
19672TIP3    H180507   1.551   4.190  34.565 -1.9482 -0.4249 -1.6629
19672TIP3    H280508   1.518   4.061  34.636  0.5445  0.5067  1.4254
19673TIP3   OH280509   2.860   0.781  34.162 -0.6411 -0.3024  0.8503
19673TIP3    H180510   2.868   0.686  34.170 -4.2526 -0.9328 -0.9364
19673TIP3    H280511   2.865   0.798  34.067 -0.5452  1.2334  1.0977
19674TIP3   OH280512   2.572   3.668  40.341 -0.0181  0.0662  0.1454
19674TIP3    H180513   2.632   3.610  40.294 -0.4909  1.5231 -2.4257
19674TIP3    H280514   2.609   3.674  40.429  3.3552  0.4974 -1.1616
19675TIP3   OH280515   0.839   2.454  40.128  0.6779  0.4845 -0.5466
19675TIP3    H180516   0.771   2.405  40.083 -0.3874 -0.5186  2.0245
19675TIP3    H280517   0.822   2.545  40.104 -0.0219  0.0246 -1.8951
19676TIP3   OH280518   3.132   1.661  39.766  0.2995  0.3337  0.0456
19676TIP3    H180519   3.046   1.633  39.737  0.3665 -0.1839  0.3276
19676TIP3    H280520   3.116   1.741  39.816  0.1054  0.8082 -0.7710
19677TIP3   OH280521   4.275   1.866  34.750 -0.0751 -0.5592  0.8506
19677TIP3    H180522   4.280   1.861  34.846 -1.5429  0.9160  1.0635
19677TIP3    H280523   4.181   1.863  34.731  0.2333 -1.9619 -0.6606
19678TIP3   OH280524   4.373   0.194   4.985  0.0590 -0.2348  0.2944
19678TIP3    H180525   4.381   0.143   4.904 -0.4110  1.2516 -0.7401
19678TIP3    H280526   4.305   0.149   5.035 -0.6184 -0.4503 -0.7616
19679TIP3   OH280527   0.121   2.954  31.245  0.5327  0.2369 -1.1840
19679TIP3    H180528   0.109   2.946  31.340  0.2119 -0.7418 -1.2947
19679TIP3    H280529   0.206   2.914  31.228  0.6068  0.4451 -1.3167
19680TIP3   OH280530   1.549   1.623   2.182  0.3088  0.2547  0.3048
19680TIP3    H180531   1.594   1.611   2.099 -1.1338  0.8772 -0.6032
19680TIP3    H280532   1.464   1.581   2.170 -0.3534  1.3195  1.0638
19681TIP3   OH280533   3.287   3.198  35.677  0.1086 -0.3739 -0.4831
19681TIP3    H180534   3.372   3.237  35.695  0.2522 -0.8189 -0.2000
19681TIP3    H280535   3.295   3.165  35.587  0.2969 -0.5953 -0.3816
19682TIP3   OH280536   4.034   1.464  34.294  1.0282 -0.9021 -0.3488
19682TIP3    H180537   4.121   1.442  34.326  1.2559  0.8236  0.3407
19682TIP3    H280538   4.025   1.558  34.310  0.0377 -0.4851 -2.8105
19683TIP3   OH280539   2.306   1.759   4.293 -0.0526 -0.2831 -0.4680
19683TIP3    H180540   2.385   1.813   4.295 -1.3830  1.7692 -0.2509
19683TIP3    H280541   2.257   1.789   4.216 -1.6448  0.0722  0.6273
19684TIP3   OH280542   2.494   1.170   9.630 -0.0571 -0.1398 -0.1414
19684TIP3    H180543   2.430   1.098   9.637 -1.9685  1.3418 -1.2259
19684TIP3    H280544   2.535   1.158   9.545  0.8352 -0.8303  0.3647
19685TIP3   OH280545   0.298   2.059  26.878 -0.3080 -0.3552 -0.1144
19685TIP3    H180546   0.346   2.109  26.944  1.4420  2.3211 -3.1353
19685TIP3    H280547   0.366   2.014  26.828 -1.3873 -0.7175 -1.3039
19686TIP3   OH280548   0.752   0.852   4.680  0.0474 -0.1907  0.4156
19686TIP3    H180549   0.682   0.789   4.695  0.0255 -1.2559 -3.2039
19686TIP3    H280550   0.770   0.846   4.586  2.7095  2.4738  0.6037
19687TIP3   OH280551   0.537   0.951  35.690 -0.6904  0.2869  0.4526
19687TIP3    H180552   0.513   0.917  35.776 -1.3283 -0.5039 -0.0279
19687TIP3    H280553   0.633   0.953  35.691 -0.6954  2.1291  1.8674
19688TIP3   OH280554   1.009   0.305   6.980 -0.5634 -0.4818 -0.1326
19688TIP3    H180555   0.935   0.350   7.021 -0.6464 -1.1245  0.4444
19688TIP3    H280556   0.968   0.248   6.914 -0.7197 -1.6759  0.9383
19689TIP3   OH280557   0.976   4.342   0.383 -0.1624  0.0034 -0.4199
19689TIP3    H180558   1.049   4.404   0.389  0.0018 -0.2308  0.0939
19689TIP3    H280559   0.920   4.377   0.314 -0.0043  0.6529 -0.2271
19690TIP3   OH280560   2.759   0.068  32.457  0.6163  0.4657  0.3757
19690TIP3    H180561   2.707  -0.011  32.473 -2.1671  2.1938  0.5659
19690TIP3    H280562   2.816   0.045  32.384 -0.9384 -1.3769 -0.3537
19691TIP3   OH280563   3.785   2.287  34.858  0.0384 -0.0466  0.2091
19691TIP3    H180564   3.869   2.300  34.813 -0.5057  1.1293 -0.4913
19691TIP3    H280565   3.769   2.370  34.903 -1.5908  0.4014 -1.1072
19692TIP3   OH280566   1.893   1.248   0.485  0.1706 -0.0046 -0.2342
19692TIP3    H180567   1.852   1.191   0.419  0.1308  1.7828 -1.8257
19692TIP3    H280568   1.924   1.324   0.436  3.7513 -0.3475  1.1739
19693TIP3   OH280569   0.961   2.302  11.000 -0.2929  0.1016 -0.1816
19693TIP3    H180570   0.877   2.284  10.957  0.1834 -0.7272 -0.7940
19693TIP3    H280571   0.960   2.397  11.015 -2.2970 -0.1657  1.8985
19694TIP3   OH280572   4.323   1.140  27.925 -0.6449  0.4368 -0.0003
19694TIP3    H180573   4.307   1.111  27.835 -1.5236 -1.0324  0.6017
19694TIP3    H280574   4.414   1.115  27.942 -1.4434 -2.3643  0.5846
19695TIP3   OH280575   3.419   1.843  39.463 -0.0731 -0.2432  0.1745
19695TIP3    H180576   3.418   1.799  39.378  0.7910  0.4484 -0.2078
19695TIP3    H280577   3.368   1.923  39.449  1.9295  1.0033 -0.3572
19696TIP3   OH280578   0.077   0.715  27.954 -0.6085  0.1762  0.3500
19696TIP3    H180579   0.116   0.797  27.923  2.7462 -1.1905  0.5425
19696TIP3    H280580   0.073   0.725  28.049 -0.8564  0.3627  0.3213
19697TIP3   OH280581   1.281   1.773  37.878 -0.1125  0.0639 -0.6234
19697TIP3    H180582   1.308   1.787  37.788  1.4767  0.2130 -0.1490
19697TIP3    H280583   1.266   1.678  37.884  0.6916 -0.0788 -0.8093
19698TIP3   OH280584   0.494   0.644  22.930  0.6599 -0.3041  0.1036
19698TIP3    H180585   0.529   0.732  22.942 -1.1295  0.3001  1.4302
19698TIP3    H280586   0.563   0.586  22.960  0.9848  0.7697  1.5429
19699TIP3   OH280587   4.053   3.427  12.176 -0.3925 -0.4968 -0.3170
19699TIP3    H180588   4.111   3.360  12.140  2.0261  1.8880 -1.2607
19699TIP3    H280589   4.046   3.493  12.107 -1.2504  1.0297  1.1330
19700TIP3   OH280590   2.116   3.209  11.323 -0.5063 -0.4035 -0.3913
19700TIP3    H180591   2.110   3.124  11.366  3.5498 -1.2274 -1.0586
19700TIP3    H280592   2.150   3.268  11.390 -0.9642  0.0814 -0.5803
19701TIP3   OH280593   3.672   2.035   3.569 -0.9364 -0.2019 -0.4162
19701TIP3    H180594   3.662   1.944   3.542  1.8330 -0.5415 -0.5296
19701TIP3    H280595   3.638   2.086   3.495  0.7267 -1.1667 -1.9040
19702TIP3   OH280596   2.043   0.276  26.984  0.7995  0.1849 -0.1980
19702TIP3    H180597   1.974   0.217  27.015  1.3120 -1.2985 -1.7098
19702TIP3    H280598   2.037   0.352  27.042 -1.0037 -0.6099  0.7606
19703TIP3   OH280599   0.579   2.893   8.977 -0.2217 -0.2853  1.0562
19703TIP3    H180600   0.491   2.926   8.966 -0.1030 -0.0792  0.7292
19703TIP3    H280601   0.614   2.942   9.051  0.4966  1.4739 -0.3647
19704TIP3   OH280602   0.900   1.391   7.853  0.3252  0.1977 -0.7640
19704TIP3    H180603   0.901   1.412   7.946 -1.2375  2.3353 -1.1489
19704TIP3    H280604   0.845   1.459   7.814  1.4432 -0.2651 -3.3481
19705TIP3   OH280605   1.071   0.862  33.657  0.4312  0.6695 -0.3144
19705TIP3    H180606   1.160   0.889  33.634  0.5788 -0.3127 -0.9495
19705TIP3    H280607   1.015   0.909  33.595  0.5086  1.1812 -0.0063
19706TIP3   OH280608   3.339   0.322  29.224  0.4602  0.7776 -0.6781
19706TIP3    H180609   3.272   0.258  29.250  0.9086 -0.2207 -1.9046
19706TIP3    H280610   3.422   0.283  29.251  0.5784  2.3076  1.4352
19707TIP3   OH280611   0.320   1.753  29.926  0.4430 -0.5809 -0.3951
19707TIP3    H180612   0.322   1.755  30.022 -2.1483  2.5587 -0.2443
19707TIP3    H280613   0.295   1.663  29.905 -1.4179 -0.7695  2.0955
19708TIP3   OH280614   0.971   1.044  36.272 -0.7978  0.0244  0.2333
19708TIP3    H180615   1.039   1.043  36.204  0.7002  0.8812  1.6407
19708TIP3    H280616   0.920   1.123  36.253 -2.0978 -1.1208 -1.3976
19709TIP3   OH280617   1.776   2.832   6.422 -0.3939  0.1317 -0.3564
19709TIP3    H180618   1.744   2.790   6.502  0.0616  0.3585 -0.0537
19709TIP3    H280619   1.780   2.762   6.357 -1.3622  0.0685 -0.3597
19710TIP3   OH280620   4.292   2.515  13.233 -0.1823 -0.2922 -0.3402
19710TIP3    H180621   4.275   2.562  13.314  0.4351  1.3946 -1.1399
19710TIP3    H280622   4.376   2.549  13.202 -1.1292  0.2669 -2.4619
19711TIP3   OH280623   0.444   1.718  32.842  0.4646  0.2053 -0.2472
19711TIP3    H180624   0.377   1.767  32.793  0.1708  0.0061 -0.0509
19711TIP3    H280625   0.421   1.626  32.830 -1.4108  0.1473  2.6238
19712TIP3   OH280626   2.309   0.038  32.321 -0.1855 -0.3759  0.3089
19712TIP3    H180627   2.361   0.116  32.299 -0.5963 -0.3339 -0.5606
19712TIP3    H280628   2.251   0.067  32.391  2.4345 -1.0038  2.9422
19713TIP3   OH280629   1.301   2.036  32.652 -0.2871 -0.5373 -0.1465
19713TIP3    H180630   1.356   1.958  32.647 -0.1801 -0.4338 -0.6968
19713TIP3    H280631   1.292   2.064  32.561  0.3798  0.5844  0.1198
19714TIP3   OH280632   2.532   0.020  27.095  0.2007  0.1310 -0.6978
19714TIP3    H180633   2.487   0.102  27.070  1.7774  0.7478 -1.6121
19714TIP3    H280634   2.490  -0.005  27.178  0.1600  2.2641 -0.0074
19715TIP3   OH280635   0.753   4.242  14.134  0.1872  0.2084  0.2057
19715TIP3    H180636   0.745   4.326  14.181 -0.4379 -0.2753  1.0017
19715TIP3    H280637   0.842   4.241  14.101  0.2386  1.1425  0.2943
19716TIP3   OH280638   3.697   0.156  27.301 -0.0871 -0.1801 -0.3870
19716TIP3    H180639   3.721   0.076  27.254  0.1569 -0.3591  0.0389
19716TIP3    H280640   3.763   0.220  27.275  0.1801 -0.3443 -0.1074
19717TIP3   OH280641   0.278   3.780   4.567 -0.5628  0.2397  0.2677
19717TIP3    H180642   0.187   3.769   4.538  0.1241 -0.2670 -1.9390
19717TIP3    H280643   0.305   3.693   4.596 -0.4071  0.0656 -0.3709
19718TIP3   OH280644   1.928   3.926  18.754  0.4712  0.5284 -0.3376
19718TIP3    H180645   1.889   3.976  18.683  0.6457  0.4906 -0.4586
19718TIP3    H280646   1.865   3.856  18.772 -0.3080  1.4117  0.5649
19719TIP3   OH280647   0.908   1.783  30.730  0.3891  0.4620  0.7180
19719TIP3    H180648   0.972   1.852  30.748  0.3198  0.5323  0.6994
19719TIP3    H280649   0.912   1.726  30.807  0.9119  0.1210  0.4431
19720TIP3   OH280650   2.708   3.604  36.713 -0.4152  0.4513 -0.2326
19720TIP3    H180651   2.646   3.642  36.651 -1.0109  0.9375  0.6422
19720TIP3    H280652   2.697   3.510  36.704 -1.3423  0.5344 -0.0425
19721TIP3   OH280653   3.249   2.982  39.633  0.4526  0.5635 -0.1448
19721TIP3    H180654   3.286   3.038  39.702 -1.6997  1.9126  0.0153
19721TIP3    H280655   3.165   2.953  39.669 -1.0299  1.8045 -2.3669
19722TIP3   OH280656   1.125   4.255   9.459  0.3411 -0.3873 -0.3792
19722TIP3    H180657   1.165   4.257   9.546 -0.2448 -1.1011 -0.0862
19722TIP3    H280658   1.035   4.284   9.473  0.2565 -0.4543 -0.7653
19723TIP3   OH280659   2.306   0.211   9.533 -0.0489 -0.0981 -0.1399
19723TIP3    H180660   2.374   0.187   9.596  1.7960 -0.6120 -2.2177
19723TIP3    H280661   2.260   0.129   9.515 -0.0265 -0.1201 -0.0972
19724TIP3   OH280662   0.163   2.882  29.091  0.5379  0.2268 -0.2726
19724TIP3    H180663   0.245   2.912  29.129  0.0184  0.2491  0.8741
19724TIP3    H280664   0.113   2.961  29.073  0.7753  0.2150 -0.9951
19725TIP3   OH280665   1.761   2.193  11.348 -0.4095  0.8655  0.0471
19725TIP3    H180666   1.777   2.125  11.282  0.9358  1.2604 -0.0622
19725TIP3    H280667   1.692   2.156  11.403  1.0900 -1.1372  0.7303
19726TIP3   OH280668   1.782   2.672  32.399 -0.0581 -0.0356  0.1303
19726TIP3    H180669   1.719   2.601  32.388  1.5670 -1.5614  0.2122
19726TIP3    H280670   1.836   2.669  32.321  0.7424  0.3611  0.6504
19727TIP3   OH280671   2.678   0.745  28.111  0.0781  0.2397  0.1392
19727TIP3    H180672   2.604   0.696  28.146  0.8003 -0.2222  1.0895
19727TIP3    H280673   2.754   0.690  28.131  0.8118  1.2854  0.3265
19728TIP3   OH280674   1.252   1.674  38.667  0.6397 -0.0689 -0.0073
19728TIP3    H180675   1.234   1.757  38.623  0.8418 -0.3151 -0.5653
19728TIP3    H280676   1.197   1.675  38.745 -1.2440 -0.4759 -1.2662
19729TIP3   OH280677   4.130   2.406  38.565 -0.3018 -0.7054 -0.3222
19729TIP3    H180678   4.077   2.386  38.488 -0.7161  0.5374 -0.3764
19729TIP3    H280679   4.172   2.323  38.588  1.4284 -0.7258 -3.0759
19730TIP3   OH280680   3.442   3.306  39.416  0.1029  0.2835 -0.0872
19730TIP3    H180681   3.469   3.272  39.330 -1.0239  0.8708 -0.6926
19730TIP3    H280682   3.406   3.231  39.462  0.3385  0.0526 -0.2743
19731TIP3   OH280683   2.425   4.198   4.132  0.1298  0.8332  0.4487
19731TIP3    H180684   2.385   4.210   4.046 -0.0307 -0.7719  0.2668
19731TIP3    H280685   2.359   4.228   4.194 -2.3645 -3.4171  0.2702
19732TIP3   OH280686   1.189   2.622  41.588 -0.3067 -0.0308  0.1184
19732TIP3    H180687   1.186   2.527  41.578 -0.5042  0.1470 -2.0704
19732TIP3    H280688   1.264   2.648  41.534 -1.0464  1.1487 -0.3608
19733TIP3   OH280689   2.038   2.958  27.354 -0.0127  0.3865 -0.1949
19733TIP3    H180690   2.077   3.013  27.286  0.9493 -0.7667 -0.6174
19733TIP3    H280691   1.943   2.968  27.342  0.1239  2.2231 -0.0023
19734TIP3   OH280692   3.055   3.906  32.925  0.0314  0.1592 -0.1271
19734TIP3    H180693   3.139   3.946  32.945 -0.5617  1.4791 -0.1963
19734TIP3    H280694   3.071   3.811  32.931  1.2803  0.4132  0.7542
19735TIP3   OH280695   3.106   1.479   6.783 -0.0861  0.3116  0.1387
19735TIP3    H180696   3.091   1.419   6.710  1.7544 -1.5560  1.1870
19735TIP3    H280697   3.171   1.541   6.750  0.3142 -0.1810 -0.0242
19736TIP3   OH280698   3.070   3.986  34.222 -0.1963 -1.2428  0.8477
19736TIP3    H180699   3.037   3.915  34.166  1.0250 -0.6052 -0.7633
19736TIP3    H280700   3.046   4.066  34.175  2.2605 -0.7215  0.3500
19737TIP3   OH280701   0.951   2.832  10.471  0.1279  0.1529  0.4833
19737TIP3    H180702   1.017   2.787  10.524 -0.4016  0.1057  1.1067
19737TIP3    H280703   0.986   2.829  10.382  0.7293 -0.3141  0.7290
19738TIP3   OH280704   1.136   4.010  39.167 -0.1713  0.1330  0.4462
19738TIP3    H180705   1.139   3.979  39.076  1.2443 -1.4372  0.9684
19738TIP3    H280706   1.129   4.105  39.160  1.6210  0.2046 -1.3526
19739TIP3   OH280707   2.055   2.950  27.617 -0.2106  0.0752  0.2312
19739TIP3    H180708   2.045   2.927  27.525  0.3661 -2.4982  0.7260
19739TIP3    H280709   1.982   3.009  27.636  1.0653  2.8110 -2.4189
19740TIP3   OH280710   3.065   4.084  37.457 -0.1984  0.2628 -0.2267
19740TIP3    H180711   3.004   4.047  37.393  0.3634 -1.2449  0.0590
19740TIP3    H280712   3.010   4.137  37.515 -1.1972 -0.7492 -0.2055
19741TIP3   OH280713   4.365   0.779   5.503  0.0684 -0.4771 -0.5347
19741TIP3    H180714   4.312   0.731   5.567 -1.3443  1.2807 -0.2765
19741TIP3    H280715   4.388   0.715   5.437 -0.7006 -1.7608  0.4009
19742TIP3   OH280716   1.368   4.385  15.898 -0.8291 -0.6894  0.0767
19742TIP3    H180717   1.333   4.359  15.983  0.7235 -3.0275  0.0922
19742TIP3    H280718   1.314   4.338  15.834 -1.0584 -0.0968 -0.1792
19743TIP3   OH280719   1.460   0.811  10.173 -0.0632 -0.6429  1.0596
19743TIP3    H180720   1.417   0.890  10.205  0.1485 -0.6731  1.4275
19743TIP3    H280721   1.394   0.768  10.118  0.4054  0.6884 -0.6310
19744TIP3   OH280722   1.856   0.990  12.175 -0.8666 -0.1544  0.3602
19744TIP3    H180723   1.901   1.075  12.176 -0.0319 -0.5353  2.9158
19744TIP3    H280724   1.764   1.011  12.190 -0.5027  0.2993  2.2239
19745TIP3   OH280725   2.540   3.746   6.464 -0.2641 -0.4233 -0.4857
19745TIP3    H180726   2.550   3.738   6.558 -1.2168 -1.2764 -0.4320
19745TIP3    H280727   2.490   3.668   6.438 -1.0892  0.4038 -1.5075
19746TIP3   OH280728   4.367   0.767  38.585 -0.1955  0.1864 -0.3979
19746TIP3    H180729   4.382   0.706  38.658 -1.2462 -0.7420 -0.9285
19746TIP3    H280730   4.398   0.719  38.508 -0.8327  0.4039 -0.7948
19747TIP3   OH280731   1.182   1.364  27.540 -0.3344  0.7049 -0.5209
19747TIP3    H180732   1.199   1.373  27.633  0.0790 -2.9294 -0.0900
19747TIP3    H280733   1.148   1.275  27.530  0.1404  0.7415 -3.9053
19748TIP3   OH280734   0.280   0.987  35.171 -0.8037  0.5177  1.0824
19748TIP3    H180735   0.352   0.925  35.181 -1.4314 -0.1791  1.3427
19748TIP3    H280736   0.217   0.962  35.238 -1.8101  0.3813  0.1192
19749TIP3   OH280737   1.334   3.926  10.100  0.1058 -0.1978  0.5767
19749TIP3    H180738   1.360   4.009  10.061 -0.2308 -0.4041 -0.0884
19749TIP3    H280739   1.313   3.948  10.191  0.3261  0.3839  0.4882
19750TIP3   OH280740   2.235   0.663  10.639  0.6732  0.3018  0.2949
19750TIP3    H180741   2.261   0.588  10.586  1.0245  0.8837 -0.3934
19750TIP3    H280742   2.161   0.701  10.592  0.9899  0.8277  0.2127
19751TIP3   OH280743   1.810   1.803   2.189 -0.2520 -0.1306 -0.3172
19751TIP3    H180744   1.896   1.772   2.217  0.0214 -0.1298 -1.1315
19751TIP3    H280745   1.749   1.770   2.256  0.6591  2.1010  1.7828
19752TIP3   OH280746   2.860   4.309   6.401  1.2158 -0.1065 -0.0755
19752TIP3    H180747   2.930   4.243   6.406 -0.3820 -1.7700  1.4197
19752TIP3    H280748   2.779   4.259   6.406 -0.1338  1.8154 -1.2847
19753TIP3   OH280749   3.017   2.709   7.151 -0.4536  0.1360 -0.5870
19753TIP3    H180750   3.020   2.739   7.061  0.0588  1.7623 -0.0647
19753TIP3    H280751   2.938   2.748   7.188 -0.2320  0.1477 -0.1091
19754TIP3   OH280752   0.912   1.957   5.054  0.3093  0.6865  0.0848
19754TIP3    H180753   0.914   1.899   5.130 -0.3723 -1.1343 -1.2095
19754TIP3    H280754   0.871   2.037   5.086  2.2714  0.9356  2.1998
19755TIP3   OH280755   1.103   0.464   0.535 -0.5856 -0.5958 -0.2058
19755TIP3    H180756   1.180   0.485   0.482  0.4456  0.7328  1.6859
19755TIP3    H280757   1.038   0.530   0.510 -0.7865 -1.1231 -1.1123
19756TIP3   OH280758   4.060   0.254  38.963  0.3982  0.1074 -0.6068
19756TIP3    H180759   3.991   0.191  38.983 -0.8620  0.6079 -2.9556
19756TIP3    H280760   4.016   0.339  38.966  1.2955  0.5829 -0.5865
19757TIP3   OH280761   3.580   0.120   4.731  0.5974 -0.5175  0.3163
19757TIP3    H180762   3.522   0.074   4.792  0.5799 -0.5398  0.2822
19757TIP3    H280763   3.534   0.118   4.647 -1.0896  2.6129  1.0097
19758TIP3   OH280764   2.357   0.073  28.731 -0.2623 -0.2109 -0.6288
19758TIP3    H180765   2.356   0.158  28.774  0.0452 -1.1676  1.3644
19758TIP3    H280766   2.427   0.080  28.666 -0.0766  0.9639 -0.3231
19759TIP3   OH280767   1.424   3.879  32.214 -0.4560 -0.1616  0.6982
19759TIP3    H180768   1.418   3.973  32.200  2.0916  0.1348  1.1741
19759TIP3    H280769   1.428   3.841  32.126 -0.8348  0.2299  0.5138
19760TIP3   OH280770   2.661   0.627  41.555 -0.3972 -0.3712  0.0063
19760TIP3    H180771   2.660   0.614  41.650 -1.8656 -0.1951  0.0386
19760TIP3    H280772   2.581   0.584  41.524  0.8135 -1.7727 -1.3595
19761TIP3   OH280773   0.954   0.701  27.466  0.0897 -0.1724 -0.0571
19761TIP3    H180774   0.935   0.641  27.393  0.2524 -1.0158  0.5825
19761TIP3    H280775   0.975   0.785  27.423  0.4920 -0.7344 -0.9938
19762TIP3   OH280776   3.742   0.925  30.101 -0.0661 -0.2855  0.0533
19762TIP3    H180777   3.739   0.843  30.149 -1.1696  0.7098  1.7857
19762TIP3    H280778   3.835   0.946  30.095  0.5372 -3.0149 -2.9977
19763TIP3   OH280779   4.363   0.223   6.315  0.1193 -0.1289  0.1743
19763TIP3    H180780   4.417   0.295   6.349  2.0647 -0.8646 -1.1565
19763TIP3    H280781   4.333   0.177   6.394  1.9734 -0.0320  0.9897
19764TIP3   OH280782   0.076   3.790   4.995  0.2460  0.3766 -0.6532
19764TIP3    H180783   0.045   3.846   5.066  1.2140 -0.5552  0.5674
19764TIP3    H280784   0.024   3.711   5.002  2.4231 -1.0410  1.1667
19765TIP3   OH280785   1.718   0.865  10.577 -0.0197 -0.2731  0.4562
19765TIP3    H180786   1.639   0.868  10.630  0.7402 -0.5662  1.6520
19765TIP3    H280787   1.752   0.955  10.580 -0.7271  0.0681 -0.7755
19766TIP3   OH280788   2.048   0.588  30.669  0.0770  0.3657 -0.4649
19766TIP3    H180789   2.003   0.508  30.640 -1.4112  0.2884  1.7674
19766TIP3    H280790   2.017   0.656  30.609 -0.9768 -0.2008 -0.5996
19767TIP3   OH280791   0.977   0.370  38.072 -0.1734  0.2146  0.8850
19767TIP3    H180792   1.012   0.361  37.983 -0.0627 -0.8922  1.0225
19767TIP3    H280793   1.047   0.336  38.128 -1.0497 -1.1085  1.2357
19768TIP3   OH280794   0.871   2.981   8.391  0.0845 -0.1392 -0.0723
19768TIP3    H180795   0.804   2.914   8.374  1.3407 -1.3922 -0.2483
19768TIP3    H280796   0.825   3.064   8.376 -1.0228 -0.9793 -1.8106
19769TIP3   OH280797   1.815   4.266  28.050 -0.1117  0.5350  0.5043
19769TIP3    H180798   1.752   4.338  28.054  0.7215  1.2445  0.8820
19769TIP3    H280799   1.799   4.225  27.964 -1.0651  0.7141  0.5838
19770TIP3   OH280800   4.104   2.043  37.852 -0.1210 -0.0366 -0.5384
19770TIP3    H180801   4.080   1.985  37.924 -0.8017 -0.8548 -1.3878
19770TIP3    H280802   4.062   2.126  37.872  1.4297  0.4214  1.0424
19771TIP3   OH280803   1.992   1.455   0.739  0.0551 -0.1123  0.4434
19771TIP3    H180804   2.038   1.380   0.701 -0.8887  0.9320 -3.1319
19771TIP3    H280805   1.902   1.425   0.749  0.2099 -0.2442  1.6538
19772TIP3   OH280806   3.954   1.288   8.356 -0.3054 -0.2846  0.8175
19772TIP3    H180807   3.949   1.376   8.319  1.4874 -0.9669 -1.2707
19772TIP3    H280808   3.993   1.300   8.443 -1.4246  1.0768  1.1607
19773TIP3   OH280809   2.222   3.002  11.858 -0.2498 -0.3677 -0.2089
19773TIP3    H180810   2.132   2.987  11.828 -0.3054  0.0533 -0.2637
19773TIP3    H280811   2.273   2.932  11.818 -0.9942 -2.3832  2.0986
19774TIP3   OH280812   3.584   3.942   7.905  0.2683 -0.1700 -0.2918
19774TIP3    H180813   3.673   3.976   7.899  0.0188  0.4556 -0.5547
19774TIP3    H280814   3.569   3.898   7.821  0.4341 -0.5601 -0.1235
19775TIP3   OH280815   2.063   3.597   3.490  0.5133 -0.2960 -0.0791
19775TIP3    H180816   2.147   3.641   3.500  1.3139 -1.8145  0.2331
19775TIP3    H280817   2.057   3.539   3.566 -0.1163 -1.2848 -0.8569
19776TIP3   OH280818   0.823   3.992  23.237  0.0985 -0.3932 -0.0789
19776TIP3    H180819   0.854   4.066  23.291  0.6348 -0.9136  0.3388
19776TIP3    H280820   0.896   3.930  23.238 -0.7545 -1.4061  0.4739
19777TIP3   OH280821   4.060   4.243   3.553  0.3290  0.0262 -0.5790
19777TIP3    H180822   4.071   4.149   3.536 -3.6655 -0.7293  0.2080
19777TIP3    H280823   4.109   4.258   3.634 -0.1414 -1.7200  0.0729
19778TIP3   OH280824   2.088   0.633  38.831  0.2023  0.3038 -0.0948
19778TIP3    H180825   2.163   0.641  38.889 -0.0427 -0.4873  0.3553
19778TIP3    H280826   2.015   0.614  38.890 -0.1758  0.1373 -0.6091
19779TIP3   OH280827   0.752   0.825  32.113 -0.3245 -0.2655 -0.0093
19779TIP3    H180828   0.711   0.748  32.073 -2.8107  0.7453  0.3665
19779TIP3    H280829   0.823   0.790  32.165  0.3852 -2.0224 -1.9869
19780TIP3   OH280830   0.832   2.253   4.971 -0.3268 -0.1801 -0.4990
19780TIP3    H180831   0.852   2.342   4.999  0.6782 -0.1100 -1.3891
19780TIP3    H280832   0.787   2.214   5.046 -2.5389  1.6452 -0.7258
19781TIP3   OH280833   0.404   2.150  22.830  0.0879  0.8827  0.1302
19781TIP3    H180834   0.383   2.098  22.908 -0.4432  0.4067 -0.3258
19781TIP3    H280835   0.473   2.101  22.787  1.5025  1.9364  1.0959
19782TIP3   OH280836   2.667   1.094  32.143 -0.2576  0.0801  0.2669
19782TIP3    H180837   2.571   1.090  32.141 -0.2969 -1.0264  1.9461
19782TIP3    H280838   2.688   1.097  32.237  1.3564 -0.4140 -0.0544
19783TIP3   OH280839   1.672   3.049  10.233 -0.1572  0.0471  0.0495
19783TIP3    H180840   1.766   3.037  10.242 -0.0921  0.3686 -0.1957
19783TIP3    H280841   1.642   3.072  10.321 -0.4627 -2.9542  0.8686
19784TIP3   OH280842   2.685   3.884  11.501 -0.4610  0.0477 -0.0160
19784TIP3    H180843   2.777   3.867  11.519 -0.5095  0.7216  1.0103
19784TIP3    H280844   2.646   3.798  11.491  0.1528 -0.2741  0.2974
19785TIP3   OH280845   0.764   2.573  29.455  0.3003 -0.2668  0.2019
19785TIP3    H180846   0.793   2.628  29.383 -0.1906  0.1588  0.3230
19785TIP3    H280847   0.844   2.549  29.501  0.5407  0.1225 -0.0128
19786TIP3   OH280848   0.121   2.768  25.464  0.1369  0.1304 -0.0306
19786TIP3    H180849   0.153   2.847  25.419 -0.1117 -0.2867 -0.9571
19786TIP3    H280850   0.105   2.706  25.394 -1.2377 -0.2014  0.5586
19787TIP3   OH280851   0.323   3.860   7.855 -0.1301 -0.5739  0.4401
19787TIP3    H180852   0.306   3.810   7.935 -0.7374 -0.4087  0.4201
19787TIP3    H280853   0.287   3.947   7.874  0.9404 -0.1208  0.4902
19788TIP3   OH280854   1.546   2.952   3.180 -0.5071  0.1001  0.0342
19788TIP3    H180855   1.538   3.040   3.219  1.5789  0.2627  0.2246
19788TIP3    H280856   1.577   2.897   3.252  1.2596 -0.0786 -0.8189
19789TIP3   OH280857   1.314   1.062  10.195  0.0848 -0.4361  0.3629
19789TIP3    H180858   1.291   1.099  10.110 -0.9732 -2.9124 -0.5324
19789TIP3    H280859   1.290   1.130  10.258 -1.0332  0.6738 -1.1747
19790TIP3   OH280860   4.266   4.278  10.425 -0.0657  0.3082  0.1617
19790TIP3    H180861   4.243   4.369  10.408 -0.9655 -0.1393 -1.2535
19790TIP3    H280862   4.182   4.235  10.444  0.1645 -0.4776 -0.5321
19791TIP3   OH280863   0.237   0.939  41.628  0.2295  0.7010  0.0001
19791TIP3    H180864   0.323   0.899  41.613 -0.2946 -0.3865 -0.1322
19791TIP3    H280865   0.193   0.880  41.689 -0.6307  0.9695 -0.3477
19792TIP3   OH280866   4.233   3.833  36.997  0.1801  0.1270  0.0414
19792TIP3    H180867   4.230   3.928  36.986 -0.2396  0.1053 -0.0672
19792TIP3    H280868   4.304   3.804  36.939  1.7036  0.5720  1.6171
19793TIP3   OH280869   4.166   1.793  28.739 -0.2286 -0.2220  0.1487
19793TIP3    H180870   4.105   1.812  28.810  0.4692  1.2209  0.3821
19793TIP3    H280871   4.242   1.849  28.756  0.1277 -0.1513 -1.5013
19794TIP3   OH280872   2.765   3.085  36.790 -0.6362 -0.2078  0.9456
19794TIP3    H180873   2.826   3.149  36.753  0.5939 -0.3242  2.6345
19794TIP3    H280874   2.784   3.003  36.744 -1.1897  0.2875 -0.1896
19795TIP3   OH280875   1.910   0.407  19.058  0.0614 -0.1886 -0.2691
19795TIP3    H180876   1.965   0.395  18.980 -0.2581  0.7204 -0.6454
19795TIP3    H280877   1.836   0.459  19.028 -0.0431  0.2202  0.6559
19796TIP3   OH280878   4.227   0.848   1.826  0.1506  0.1263 -0.4711
19796TIP3    H180879   4.236   0.918   1.892 -1.1815 -0.6041  0.5415
19796TIP3    H280880   4.304   0.858   1.770  0.6401  1.6183  0.3971
19797TIP3   OH280881   3.619   1.803   0.306  0.1592  0.0354 -0.0805
19797TIP3    H180882   3.559   1.809   0.232 -0.5170  0.5028  0.4949
19797TIP3    H280883   3.704   1.784   0.266  0.0020  1.2592 -1.0631
19798TIP3   OH280884   4.271   3.469  29.436 -0.1964 -0.1351  0.4273
19798TIP3    H180885   4.257   3.419  29.516  0.1456  0.9221  1.1714
19798TIP3    H280886   4.229   3.553  29.453  0.6719  0.4256 -0.1415
19799TIP3   OH280887   0.345   0.310  30.498 -0.4286 -0.6856 -0.4877
19799TIP3    H180888   0.366   0.327  30.590 -0.9623  1.5944 -0.7199
19799TIP3    H280889   0.426   0.276  30.460 -0.1298 -1.4117  0.7516
19800TIP3   OH280890   0.393   0.127   1.700 -0.3316 -0.4142  0.2166
19800TIP3    H180891   0.333   0.120   1.774  0.4073 -0.4772  0.8151
19800TIP3    H280892   0.371   0.052   1.645 -1.0361 -0.2444  0.2479
19801TIP3   OH280893   1.187   3.777   4.565 -0.3197  0.3721  0.1241
19801TIP3    H180894   1.192   3.817   4.478 -1.2921  0.5758  0.1486
19801TIP3    H280895   1.268   3.726   4.572  1.9158  3.6586  0.7848
19802TIP3   OH280896   3.960   2.470  27.147 -0.2096 -0.3793 -0.2885
19802TIP3    H180897   3.940   2.387  27.105  1.3197 -0.1571 -1.5199
19802TIP3    H280898   3.947   2.536  27.079  2.2774 -0.0069 -0.4946
19803TIP3   OH280899   3.496   2.461  26.128 -0.6373  0.2652 -0.1651
19803TIP3    H180900   3.583   2.443  26.164 -0.7739 -0.7082 -0.3014
19803TIP3    H280901   3.496   2.418  26.042 -1.3253  0.0796 -0.0781
19804TIP3   OH280902   1.433   0.013  32.177  0.1461  0.0994  0.8603
19804TIP3    H180903   1.505   0.074  32.164  0.0391 -0.2333 -1.8353
19804TIP3    H280904   1.466  -0.071  32.145 -1.0391 -0.3043  0.6499
19805TIP3   OH280905   4.310   0.369  24.294 -0.3313  0.0607 -0.4023
19805TIP3    H180906   4.256   0.447  24.280  2.3744  1.9071 -1.5670
19805TIP3    H280907   4.384   0.401  24.345  0.1563 -2.1169  0.3303
19806TIP3   OH280908   0.250   2.054   1.715 -0.3937  0.0001 -0.2139
19806TIP3    H180909   0.229   2.006   1.634 -0.5390 -1.3263  0.5728
19806TIP3    H280910   0.187   2.021   1.779  2.2981 -2.2095  1.5561
19807TIP3   OH280911   2.600   2.270  33.400  0.1790 -0.0922  0.3074
19807TIP3    H180912   2.623   2.239  33.488  0.1405  1.4398  0.8812
19807TIP3    H280913   2.512   2.306  33.410  0.8968  1.8371  0.1244
19808TIP3   OH280914   2.450   2.118  41.519  0.2045  0.2518 -0.3798
19808TIP3    H180915   2.380   2.061  41.552  0.6822 -0.8237 -1.1750
19808TIP3    H280916   2.405   2.180  41.462  0.0305 -1.4756 -2.2449
19809TIP3   OH280917   1.173   2.373  13.184 -0.5906 -0.2512  0.0213
19809TIP3    H180918   1.229   2.396  13.110 -0.4767  0.4937  0.3305
19809TIP3    H280919   1.231   2.328  13.245 -0.9241 -1.8793 -0.8065
19810TIP3   OH280920   1.299   2.961  28.353  0.1895  0.1916 -0.3386
19810TIP3    H180921   1.328   3.036  28.405 -1.9537 -0.1713  1.5140
19810TIP3    H280922   1.377   2.905  28.346  0.6355  0.3861  2.3089
19811TIP3   OH280923   3.090   0.141  38.470 -0.2114 -0.7791  0.5349
19811TIP3    H180924   3.127   0.134  38.558 -1.3691 -0.9191  1.0268
19811TIP3    H280925   3.111   0.057  38.429  0.0381 -0.8448  0.7909
19812TIP3   OH280926   1.722   4.113  35.007 -0.0340  0.2026  0.7912
19812TIP3    H180927   1.709   4.162  34.926  1.4555  1.4179  1.2247
19812TIP3    H280928   1.640   4.122  35.055 -0.4506  0.6311  0.0010
19813TIP3   OH280929   3.519   1.248  27.170 -0.2546 -0.2438  0.0286
19813TIP3    H180930   3.591   1.308  27.190  0.3555 -1.5318  1.9290
19813TIP3    H280931   3.533   1.173  27.228 -2.7630 -0.8196  0.0051
19814TIP3   OH280932   1.027   3.623  29.944  0.3687 -0.0689  0.6178
19814TIP3    H180933   0.977   3.669  30.010 -0.8155 -1.1891  0.5495
19814TIP3    H280934   1.036   3.534  29.978  2.5844  0.1437  0.7584
19815TIP3   OH280935   0.038   0.498   5.851 -0.1664  0.0896  0.3790
19815TIP3    H180936   0.004   0.420   5.894 -1.3876  1.1560  1.4695
19815TIP3    H280937   0.118   0.519   5.898  0.2121 -0.5539  0.0211
19816TIP3   OH280938   3.926   4.160   9.707 -0.0895 -0.7512 -0.7408
19816TIP3    H180939   3.893   4.247   9.687 -1.9465 -0.9365  1.1861
19816TIP3    H280940   3.854   4.101   9.688  0.1831 -1.5454  0.5107
19817TIP3   OH280941   2.549   0.694  30.503  0.1268 -0.2794  0.0712
19817TIP3    H180942   2.519   0.651  30.584  0.5370  0.1096  0.4352
19817TIP3    H280943   2.472   0.743  30.473 -0.2512 -1.0043 -0.1782
19818TIP3   OH280944   1.076   3.444  11.823 -0.0096  0.2844  0.2369
19818TIP3    H180945   1.038   3.357  11.812  0.9034 -0.3359  1.6724
19818TIP3    H280946   1.152   3.430  11.880  0.4912  1.9419  0.0350
19819TIP3   OH280947   0.856   1.176  17.036  0.4434  0.3396 -0.5290
19819TIP3    H180948   0.823   1.088  17.021 -0.0557  0.5910 -0.9354
19819TIP3    H280949   0.802   1.210  17.108  1.2155  0.0063  0.2179
19820TIP3   OH280950   1.306   2.898  31.092  0.1822  0.8485  0.3847
19820TIP3    H180951   1.227   2.844  31.096 -0.3887  1.7740  2.8231
19820TIP3    H280952   1.373   2.839  31.056 -1.0596 -0.6302  0.4062
19821TIP3   OH280953   1.506   1.644   5.373  0.3333 -0.8646 -0.3176
19821TIP3    H180954   1.528   1.705   5.442 -0.8667  0.4686 -1.0574
19821TIP3    H280955   1.434   1.592   5.409 -0.6944  0.2260 -0.7252
19822TIP3   OH280956   1.549   0.405  38.662 -0.8373 -0.3093  0.1018
19822TIP3    H180957   1.514   0.349  38.593  0.0796 -1.1905  0.3244
19822TIP3    H280958   1.587   0.343  38.725  1.2514  0.5852 -0.2081
19823TIP3   OH280959   3.867   2.501  35.410 -0.0242  0.1638  0.3320
19823TIP3    H180960   3.806   2.427  35.412 -1.6900  1.4913  1.6387
19823TIP3    H280961   3.926   2.485  35.483  0.6888 -0.6754 -0.3962
19824TIP3   OH280962   0.502   4.095  36.414 -0.4631 -0.2647  0.1150
19824TIP3    H180963   0.485   4.052  36.330  0.6926 -1.2182  0.3388
19824TIP3    H280964   0.418   4.096  36.459 -0.9361 -0.4201 -0.7491
19825TIP3   OH280965   0.631   4.184  29.091 -0.4687  0.2903 -0.3018
19825TIP3    H180966   0.705   4.134  29.056 -0.4732  0.7217 -0.9487
19825TIP3    H280967   0.588   4.220  29.013 -0.4817  1.2750  0.1418
19826TIP3   OH280968   2.002   3.372   2.910 -0.5281 -0.0893 -0.0289
19826TIP3    H180969   2.079   3.357   2.855 -0.2310 -0.7403  0.5432
19826TIP3    H280970   2.009   3.464   2.937 -0.0389 -0.0976 -0.1185
19827TIP3   OH280971   2.798   2.594  27.371  0.9601 -0.1862 -0.0709
19827TIP3    H180972   2.841   2.672  27.405  1.9316 -0.3155 -0.9441
19827TIP3    H280973   2.712   2.593  27.412  1.6643  0.2713  1.4588
19828TIP3   OH280974   1.007   1.491   3.050 -0.0745 -0.2052 -0.0976
19828TIP3    H180975   0.951   1.444   2.988 -0.2173 -0.7406  0.4241
19828TIP3    H280976   1.088   1.441   3.051  0.5511  0.7590 -1.1002
19829TIP3   OH280977   0.322   3.719  36.873  0.1374  0.3474 -0.0088
19829TIP3    H180978   0.391   3.679  36.925  1.4945 -0.5158 -2.3299
19829TIP3    H280979   0.275   3.646  36.834  1.2177  0.8968 -2.5102
19830TIP3   OH280980   1.177   2.817   5.707 -0.0358 -0.1600  0.1715
19830TIP3    H180981   1.165   2.722   5.711  0.6636 -0.2214  1.1440
19830TIP3    H280982   1.239   2.836   5.778 -0.1314  1.0155 -0.0488
19831TIP3   OH280983   1.511   2.571  29.168 -0.5504 -0.4619  0.4880
19831TIP3    H180984   1.469   2.647  29.128 -1.3448 -0.7794  0.7030
19831TIP3    H280985   1.457   2.551  29.245 -0.9175 -1.8158 -0.0901
19832TIP3   OH280986   0.160   3.872  30.710 -0.5306 -0.5062 -0.4751
19832TIP3    H180987   0.152   3.949  30.654  3.7780  1.1595  0.7570
19832TIP3    H280988   0.207   3.808  30.657  2.7461  0.7401  0.6878
19833TIP3   OH280989   2.471   3.808   7.169  0.1244 -0.2925  0.2056
19833TIP3    H180990   2.438   3.800   7.259  0.4360 -0.9739  0.2733
19833TIP3    H280991   2.456   3.721   7.131  0.1228 -0.0469 -0.3515
19834TIP3   OH280992   2.219   4.197  40.917 -0.0342  0.3488  0.3307
19834TIP3    H180993   2.147   4.145  40.954  0.5216 -0.4879  0.2671
19834TIP3    H280994   2.283   4.203  40.987  2.2676 -3.5638 -1.1287
19835TIP3   OH280995   2.611   1.312  12.695  0.6423 -0.4685  0.2451
19835TIP3    H180996   2.679   1.300  12.761  2.1885 -2.8888 -1.5823
19835TIP3    H280997   2.654   1.363  12.626 -0.6908  1.3312  0.6743
19836TIP3   OH280998   0.112   4.015  27.866  0.6107 -0.3692  0.4916
19836TIP3    H180999   0.052   3.950  27.903  0.3896  0.5778  1.8782
19836TIP3    H281000   0.199   3.987  27.897  0.9632 -1.7806 -1.5731
19837TIP3   OH281001   0.135   2.492  11.542 -0.0024  0.2452  0.5258
19837TIP3    H181002   0.072   2.473  11.473 -0.6828  2.0437  0.6155
19837TIP3    H281003   0.202   2.424  11.533 -1.0178 -0.6261 -0.7190
19838TIP3   OH281004   1.528   2.872  35.389  0.6008 -0.0316 -0.4678
19838TIP3    H181005   1.614   2.909  35.412  0.6273 -0.4993  0.2303
19838TIP3    H281006   1.508   2.812  35.461 -0.2120 -0.0976 -0.7368
19839TIP3   OH281007   3.476   2.673   6.953 -0.2594  0.0183 -0.4774
19839TIP3    H181008   3.513   2.595   6.912  0.3873 -0.3167  0.6968
19839TIP3    H281009   3.381   2.662   6.945 -0.3506 -2.3299  2.0722
19840TIP3   OH281010   3.463   1.072  11.021 -0.5192  0.0535  0.1552
19840TIP3    H181011   3.378   1.032  11.042  0.2916 -1.3622  0.9381
19840TIP3    H281012   3.444   1.136  10.953 -2.2023 -0.2849  0.2734
19841TIP3   OH281013   3.900   1.763   1.259  0.2017  0.4368  0.0328
19841TIP3    H181014   3.995   1.762   1.246 -0.0450  1.4734 -2.3564
19841TIP3    H281015   3.871   1.677   1.229  0.3291  0.3217  0.2387
19842TIP3   OH281016   3.319   1.131  34.568 -0.3536 -0.1569 -0.0211
19842TIP3    H181017   3.410   1.151  34.548  0.3686 -2.2352  0.9248
19842TIP3    H281018   3.291   1.073  34.497 -0.9221  0.3210 -0.2057
19843TIP3   OH281019   1.289   3.149  33.388  0.3923 -0.3967  0.2360
19843TIP3    H181020   1.308   3.076  33.447  2.2957 -0.4173 -0.3467
19843TIP3    H281021   1.351   3.138  33.315 -2.0987 -0.5815 -2.0094
19844TIP3   OH281022   3.016   3.668   2.275  0.4842  0.5717  0.5772
19844TIP3    H181023   3.039   3.758   2.250 -0.1078  1.1482  2.0395
19844TIP3    H281024   2.924   3.659   2.252  0.5020  0.3749  0.5762
19845TIP3   OH281025   1.228   4.285  33.398 -0.2927 -0.0898  0.4751
19845TIP3    H181026   1.247   4.249  33.484  1.5359  1.3142  0.7448
19845TIP3    H281027   1.241   4.380  33.409  0.9244  0.0314 -1.5180
19846TIP3   OH281028   0.851   0.893  30.334 -0.0733 -0.2883 -0.1348
19846TIP3    H181029   0.799   0.907  30.255  0.6580 -0.4342 -0.6514
19846TIP3    H281030   0.787   0.872  30.402 -0.7508  0.4144 -0.5526
19847TIP3   OH281031   2.995   3.040  32.835 -0.2779 -0.6875  0.8102
19847TIP3    H181032   2.954   3.112  32.788 -0.3935 -1.0724  0.3005
19847TIP3    H281033   3.066   3.011  32.777  0.9250  0.1509  1.7981
19848TIP3   OH281034   2.026   3.949   9.745 -0.2234 -0.3551  0.2785
19848TIP3    H181035   2.039   3.890   9.670 -1.0059 -0.1935  0.0026
19848TIP3    H281036   2.084   4.023   9.727 -0.0625 -0.5301  0.0622
19849TIP3   OH281037   2.600   0.755  12.303 -0.0791  0.3028 -0.2693
19849TIP3    H181038   2.645   0.839  12.294 -1.3842  1.2448  1.5380
19849TIP3    H281039   2.536   0.754  12.232 -0.3155  1.0081 -0.0721
19850TIP3   OH281040   3.575   3.929  36.277 -0.1112 -1.2200 -0.0031
19850TIP3    H181041   3.530   3.963  36.354  1.7185 -0.8016  0.9372
19850TIP3    H281042   3.543   3.838  36.269 -0.7422 -1.0938  0.8937
19851TIP3   OH281043   4.098   0.759  30.633 -0.5325 -0.3894 -0.5270
19851TIP3    H181044   4.109   0.689  30.569 -1.2228  0.8721 -2.0795
19851TIP3    H281045   4.079   0.837  30.581 -0.6054  0.8010  1.1930
19852TIP3   OH281046   0.347   0.427  24.322  0.3552  0.2033 -0.1089
19852TIP3    H181047   0.385   0.490  24.384 -0.0422 -1.2086  1.6193
19852TIP3    H281048   0.418   0.364  24.305  0.5707  0.7457 -1.4048
19853TIP3   OH281049   3.920   3.690   0.654  0.5047  0.0257  0.3393
19853TIP3    H181050   3.973   3.619   0.690  0.6029 -0.9776 -1.6512
19853TIP3    H281051   3.971   3.722   0.579 -1.0915 -0.1012 -0.8486
19854TIP3   OH281052   1.321   0.323  17.529  0.0217  0.1854  0.1856
19854TIP3    H181053   1.246   0.362  17.484 -0.6490 -1.1563  0.0871
19854TIP3    H281054   1.293   0.234  17.548 -0.1182  0.8900  4.1638
19855TIP3   OH281055   0.387   2.608  11.665  0.5777 -0.0825  0.6638
19855TIP3    H181056   0.303   2.598  11.619  0.4034  0.1955  0.9204
19855TIP3    H281057   0.373   2.680  11.726  1.3718  0.7692 -0.1194
19856TIP3   OH281058   3.654   4.194   7.731 -0.4967  0.0067  0.3115
19856TIP3    H181059   3.618   4.128   7.790 -1.1711  0.3391  0.2928
19856TIP3    H281060   3.748   4.178   7.730 -0.7124 -1.3736 -0.2081
19857TIP3   OH281061   4.023   2.314  39.477 -0.2654  0.1615 -0.1255
19857TIP3    H181062   4.017   2.243  39.541  1.2244 -0.2447 -0.4010
19857TIP3    H281063   3.938   2.315  39.434 -0.7205 -0.6436  0.7272
19858TIP3   OH281064   0.432   3.439  28.995  0.3137  0.3013  0.2454
19858TIP3    H181065   0.417   3.374  29.064  0.3401  0.8875  0.8144
19858TIP3    H281066   0.469   3.514  29.041 -0.7189  1.1298 -0.2278
19859TIP3   OH281067   0.369   0.230   5.319  0.4619  0.0476  0.2988
19859TIP3    H181068   0.462   0.254   5.313  0.1335  1.2446 -0.1731
19859TIP3    H281069   0.333   0.290   5.384 -0.2837  0.5744 -0.5786
19860TIP3   OH281070   3.825   0.108   9.825  0.5303 -0.8973  0.2994
19860TIP3    H181071   3.791   0.046   9.761  0.3242 -0.4979  0.0088
19860TIP3    H281072   3.747   0.140   9.871  0.4439  0.3263 -0.6477
19861TIP3   OH281073   3.738   2.261  32.763  0.3101 -0.2394  0.0650
19861TIP3    H181074   3.818   2.278  32.714 -0.2555 -0.7115 -1.0750
19861TIP3    H281075   3.751   2.304  32.847  1.2762  0.6882 -0.5390
19862TIP3   OH281076   1.211   1.211  34.679  1.0318 -0.1414  0.1691
19862TIP3    H181077   1.126   1.249  34.701  1.1224 -0.4255  1.0535
19862TIP3    H281078   1.192   1.122  34.650  0.8853  0.3198 -1.2521
19863TIP3   OH281079   3.689   3.791  34.134  0.0358  0.3880  0.7794
19863TIP3    H181080   3.773   3.747  34.146 -1.2064 -1.6750  2.6078
19863TIP3    H281081   3.650   3.746  34.059  0.0884  0.5897  0.6293
19864TIP3   OH281082   1.931   0.377  40.742 -0.0196  0.1811  0.7163
19864TIP3    H181083   2.026   0.388  40.743 -0.0024  0.0971  0.2721
19864TIP3    H281084   1.899   0.436  40.810  0.1524  2.1895 -0.8614
19865TIP3   OH281085   0.261   1.259  25.789  0.4748  0.4405 -0.1858
19865TIP3    H181086   0.213   1.252  25.871  1.3543  3.7526  0.7724
19865TIP3    H281087   0.349   1.229  25.810  0.7299  1.3963  0.1504
19866TIP3   OH281088   0.123   3.233  10.482 -0.1933 -0.4657 -0.1224
19866TIP3    H181089   0.045   3.271  10.441  0.4754  1.0337 -0.0729
19866TIP3    H281090   0.180   3.209  10.409 -0.6496 -1.5210 -0.1576
19867TIP3   OH281091   1.228   2.873   9.561 -0.1018 -0.3792 -0.1163
19867TIP3    H181092   1.294   2.935   9.531 -0.8198  0.7064  0.4904
19867TIP3    H281093   1.278   2.804   9.605  0.5682  1.9054  3.0802
19868TIP3   OH281094   2.143   0.567  11.271 -0.2678  0.5562 -0.2433
19868TIP3    H181095   2.176   0.514  11.344  1.2979  1.5812 -0.1620
19868TIP3    H281096   2.118   0.502  11.205  2.3576 -0.3713 -0.4721
19869TIP3   OH281097   1.899   0.392   3.427  0.0961  0.0415 -0.9474
19869TIP3    H181098   1.859   0.308   3.446  2.8784 -1.2048 -0.1915
19869TIP3    H281099   1.920   0.429   3.513 -0.2548  1.0994 -1.2976
19870TIP3   OH281100   2.174   1.674  12.876 -0.4503 -0.2163  0.4016
19870TIP3    H181101   2.190   1.584  12.849 -0.1436 -0.1965  0.5063
19870TIP3    H281102   2.231   1.687  12.952  0.2466  0.3561 -0.1914
19871TIP3   OH281103   1.544   3.888   8.116  0.4891  0.7447 -0.0525
19871TIP3    H181104   1.524   3.908   8.024 -2.6069  0.3701  0.4187
19871TIP3    H281105   1.478   3.937   8.166  0.9947 -0.4368  1.8853
19872TIP3   OH281106   0.131   0.491  31.572  0.3120 -0.7796 -0.0939
19872TIP3    H181107   0.134   0.397  31.556 -0.3344 -0.7224 -0.6160
19872TIP3    H281108   0.185   0.504  31.649  1.6369 -1.3824 -0.8808
19873TIP3   OH281109   1.075   0.380  30.443  0.2469  0.3597  0.0509
19873TIP3    H181110   1.103   0.297  30.481 -1.9740  0.2550  1.6569
19873TIP3    H281111   1.015   0.355  30.372  0.2169  0.5826 -0.0042
19874TIP3   OH281112   3.365   2.489  34.792  0.5532 -0.4261 -0.2974
19874TIP3    H181113   3.318   2.448  34.719  1.2640  0.9877 -1.6094
19874TIP3    H281114   3.296   2.512  34.855 -0.6668  1.8699 -2.2958
19875TIP3   OH281115   3.448   2.509  36.366 -0.2156 -0.0556  0.1494
19875TIP3    H181116   3.364   2.555  36.360  0.3340  0.8596 -0.9721
19875TIP3    H281117   3.453   2.457  36.286  0.9970  1.1976 -0.6313
19876TIP3   OH281118   0.463   3.430  28.277  0.1495 -0.0794  0.4056
19876TIP3    H181119   0.391   3.376  28.311  0.2400  0.4458  1.4635
19876TIP3    H281120   0.432   3.457  28.190 -0.4796 -0.7075  0.4172
19877TIP3   OH281121   4.381   4.024   8.026 -0.6481  0.2861 -0.2010
19877TIP3    H181122   4.333   4.053   8.103  1.2128  1.3051  0.6337
19877TIP3    H281123   4.410   4.105   7.984  2.8254 -0.1533  0.9996
19878TIP3   OH281124   1.405   1.997  40.345  0.2343  0.5877 -0.4812
19878TIP3    H181125   1.401   2.088  40.374 -2.8814  0.6283 -0.7488
19878TIP3    H281126   1.412   1.947  40.426 -1.8015  0.9826 -0.0019
19879TIP3   OH281127   2.353   2.076   9.620  0.0211 -0.5831  0.4543
19879TIP3    H181128   2.324   2.002   9.673  0.0055 -0.6354  0.3728
19879TIP3    H281129   2.297   2.149   9.646  0.2192 -0.5311  0.7334
19880TIP3   OH281130   2.596   0.750  29.760  0.4280 -0.6169 -0.1171
19880TIP3    H181131   2.658   0.823  29.761 -0.8116  0.5406 -1.6308
19880TIP3    H281132   2.560   0.748  29.848 -0.9757  2.0057 -0.5129
19881TIP3   OH281133   0.859   1.496   1.209 -0.2178  0.0840 -0.8604
19881TIP3    H181134   0.861   1.541   1.293  2.5599  0.2800 -0.9263
19881TIP3    H281135   0.823   1.409   1.229  1.1590 -0.1762  0.7443
19882TIP3   OH281136   3.629   3.044  13.227  0.1025  0.2851 -0.1356
19882TIP3    H181137   3.562   3.084  13.170  0.6559  0.1330 -0.9039
19882TIP3    H281138   3.682   3.118  13.255 -0.4815  0.4286  0.6114
19883TIP3   OH281139   0.299   0.426  11.307 -0.1360 -0.5809  0.0586
19883TIP3    H181140   0.346   0.344  11.315  1.0162  0.0562 -0.0479
19883TIP3    H281141   0.341   0.472  11.234 -0.5293  0.2593  0.3410
19884TIP3   OH281142   0.126   3.305  30.999  0.0252  0.0333 -0.6683
19884TIP3    H181143   0.054   3.368  31.005  0.6430  0.7247 -0.3316
19884TIP3    H281144   0.199   3.348  31.044  0.1583 -1.3916  0.5475
19885TIP3   OH281145   2.130   0.790  29.000 -0.2819 -0.2861  0.2950
19885TIP3    H181146   2.191   0.762  28.932 -1.6507 -0.2179 -1.0063
19885TIP3    H281147   2.163   0.875  29.028 -0.1240  0.0396 -0.8247
19886TIP3   OH281148   1.681   4.064   6.617  0.8448 -0.1622 -0.1528
19886TIP3    H181149   1.666   4.144   6.666 -2.1851  0.1101 -1.3484
19886TIP3    H281150   1.770   4.038   6.641  1.1503  2.3737  1.8874
19887TIP3   OH281151   3.080   3.400  28.345 -0.1072 -0.4002  0.1760
19887TIP3    H181152   3.102   3.420  28.436 -0.2134 -0.1785  0.1529
19887TIP3    H281153   2.986   3.417  28.339  0.2650  1.6441 -0.5151
19888TIP3   OH281154   1.206   4.038  14.845 -0.0651 -0.3896 -0.0074
19888TIP3    H181155   1.237   3.979  14.776  0.8002  0.3488 -0.2633
19888TIP3    H281156   1.197   4.123  14.802 -0.1222 -0.0606  0.6448
19889TIP3   OH281157   1.363   0.775   9.533  1.0391 -0.0069  0.2546
19889TIP3    H181158   1.271   0.789   9.557  1.6381  0.2864  2.5738
19889TIP3    H281159   1.389   0.856   9.490  0.1180 -0.2629 -0.8509
19890TIP3   OH281160   2.673   0.259   4.109 -0.8007 -0.1971 -0.4369
19890TIP3    H181161   2.659   0.164   4.106  2.0689 -0.7191  0.0571
19890TIP3    H281162   2.704   0.281   4.021  1.7128 -0.3704  0.3462
19891TIP3   OH281163   0.207   0.576   4.706 -0.0874  0.5546 -0.4002
19891TIP3    H181164   0.227   0.530   4.787  1.8594 -3.2723 -2.7421
19891TIP3    H281165   0.113   0.595   4.711 -0.3365 -0.9632  2.0753
19892TIP3   OH281166   0.307   0.023  36.443 -0.1007 -0.4796  0.1702
19892TIP3    H181167   0.363   0.066  36.508  3.4513 -1.5674 -1.9004
19892TIP3    H281168   0.256   0.095  36.405  2.1835  1.1791  0.0488
19893TIP3   OH281169   2.262   0.102  35.005  0.2476 -0.2462 -0.4129
19893TIP3    H181170   2.299   0.107  34.917  0.6442 -0.7173 -0.2729
19893TIP3    H281171   2.217   0.185  35.016  2.1019  0.7777 -0.1924
19894TIP3   OH281172   2.770   1.024   5.576 -0.6568  0.2970  0.0441
19894TIP3    H181173   2.803   1.096   5.523  0.8742 -0.1227  0.3752
19894TIP3    H281174   2.742   0.958   5.512  0.9424 -0.1060 -0.2734
19895TIP3   OH281175   1.019   1.563  33.474  0.0093 -0.0342  0.5618
19895TIP3    H181176   1.039   1.471  33.455  1.9465  0.1588  1.3805
19895TIP3    H281177   1.074   1.584  33.550 -0.6066  1.7171  0.5607
19896TIP3   OH281178   3.261   1.984  33.151 -0.3358  0.1693 -0.2333
19896TIP3    H181179   3.330   2.038  33.191  0.7877 -0.7051 -0.9477
19896TIP3    H281180   3.308   1.914  33.106 -1.7561 -1.9662  1.4110
19897TIP3   OH281181   3.570   3.500  39.188  0.7677  0.0808  0.2434
19897TIP3    H181182   3.568   3.408  39.212 -0.6075  0.2920  1.0365
19897TIP3    H281183   3.497   3.512  39.128 -0.8890  1.1773  2.3551
19898TIP3   OH281184   3.921   3.952   1.375  0.4927 -0.0697 -0.6476
19898TIP3    H181185   3.847   3.904   1.338  0.0131  0.4992 -0.4528
19898TIP3    H281186   3.984   3.957   1.303 -0.3236  0.8083 -1.3355
19899TIP3   OH281187   2.843   0.923  36.389  0.1248  0.0438  0.3126
19899TIP3    H181188   2.805   0.938  36.476 -1.2933  0.0613 -0.2740
19899TIP3    H281189   2.778   0.870  36.344  0.6966  0.2958 -0.8369
19900TIP3   OH281190   3.809   1.352  25.518 -0.1082  0.1602 -0.2013
19900TIP3    H181191   3.793   1.342  25.612 -1.0681  1.4494 -0.2002
19900TIP3    H281192   3.863   1.277  25.495 -2.7756 -2.2136  0.6623
19901TIP3   OH281193   3.208   1.431  39.925  0.3903 -0.4044  0.1769
19901TIP3    H181194   3.182   1.508  39.875  2.2839  0.4088  0.3594
19901TIP3    H281195   3.283   1.394  39.877  1.0432 -0.7072  1.3699
19902TIP3   OH281196   0.551   1.055  12.480 -0.1418  0.4163 -0.3557
19902TIP3    H181197   0.479   1.110  12.509  0.0609  1.6859 -2.1176
19902TIP3    H281198   0.621   1.116  12.459  0.4178 -0.5708 -1.4562
19903TIP3   OH281199   3.549   1.525   4.917  0.3864 -0.0392  0.2567
19903TIP3    H181200   3.475   1.583   4.899  0.2722  0.9424  3.2913
19903TIP3    H281201   3.616   1.551   4.854 -0.5831  1.5961 -0.1594
19904TIP3   OH281202   2.038   0.807   5.657 -1.0704  0.0620 -0.1764
19904TIP3    H181203   1.985   0.817   5.736 -0.1027 -1.2640  0.6885
19904TIP3    H281204   2.102   0.879   5.662 -0.8727 -0.1492  0.3774
19905TIP3   OH281205   0.393   2.926  14.192  0.0222 -0.0855  1.0628
19905TIP3    H181206   0.429   2.985  14.258  0.4094 -1.3046  1.9783
19905TIP3    H281207   0.323   2.976  14.150  0.6489  1.1776  1.4737
19906TIP3   OH281208   4.249   0.566   6.121  0.0407 -0.5765 -0.2226
19906TIP3    H181209   4.311   0.616   6.068  0.7268 -0.2296  0.8805
19906TIP3    H281210   4.229   0.623   6.195 -0.4014 -1.3141  0.2402
19907TIP3   OH281211   4.074   3.473   8.467  0.4834  0.0641  0.4205
19907TIP3    H181212   4.059   3.561   8.502  1.8151 -0.0449  1.3205
19907TIP3    H281213   4.093   3.419   8.544 -1.3201 -1.2743 -0.0034
19908TIP3   OH281214   0.783   2.490   8.948 -0.4693  0.1767 -0.3647
19908TIP3    H181215   0.723   2.521   9.016  1.0915  1.0269  0.6749
19908TIP3    H281216   0.759   2.398   8.935 -1.8648  0.4479  0.1509
19909TIP3   OH281217   0.885   0.122  28.615 -0.1122 -0.0874  0.0556
19909TIP3    H181218   0.919   0.207  28.642  0.6183 -1.0090  2.3246
19909TIP3    H281219   0.961   0.077  28.577  0.0486 -0.4660  0.8090
19910TIP3   OH281220   1.415   3.408  18.954 -0.0334  0.4151 -0.1542
19910TIP3    H181221   1.384   3.379  18.868 -2.0723 -1.2598  1.0470
19910TIP3    H281222   1.363   3.486  18.973  0.9117  1.2018 -0.6771
19911TIP3   OH281223   0.312   2.050  37.159  0.0018 -1.1408  0.2382
19911TIP3    H181224   0.237   2.106  37.180 -1.4647 -1.1251 -3.9984
19911TIP3    H281225   0.383   2.110  37.141 -0.3861 -0.8366 -0.3177
19912TIP3   OH281226   2.221   0.878  33.876  0.7999 -0.0434 -0.0567
19912TIP3    H181227   2.234   0.815  33.948  0.6112 -0.0271 -0.0082
19912TIP3    H281228   2.303   0.875  33.827  0.3511 -1.2313 -0.7708
19913TIP3   OH281229   0.408   3.104   9.428 -0.5706  0.1018 -0.0716
19913TIP3    H181230   0.335   3.145   9.475  0.1641 -0.5123  1.6717
19913TIP3    H281231   0.441   3.037   9.488  1.9613  0.9232 -0.4187
19914TIP3   OH281232   4.083   4.019   4.447  0.2978 -0.1064 -0.2212
19914TIP3    H181233   4.120   4.005   4.534  1.4727  0.8913 -0.5356
19914TIP3    H281234   4.157   4.046   4.393 -0.0231 -2.4899 -2.0243
19915TIP3   OH281235   4.210   2.095   7.727 -0.1067 -0.2745 -0.4912
19915TIP3    H181236   4.176   2.106   7.637 -0.5083 -0.9800 -0.4310
19915TIP3    H281237   4.158   2.157   7.779  0.5242  0.5644 -0.8244
19916TIP3   OH281238   0.109   3.290  34.361 -0.0434  0.0103 -0.2551
19916TIP3    H181239   0.033   3.294  34.302  0.0306 -1.2151 -0.4687
19916TIP3    H281240   0.137   3.381  34.371 -2.0299  0.5983  0.4783
19917TIP3   OH281241   3.313   1.581   5.117  0.6475 -0.6237  0.0810
19917TIP3    H181242   3.405   1.593   5.139  0.5140 -0.6348  0.6429
19917TIP3    H281243   3.297   1.488   5.130  0.7027 -0.7308 -0.5833
19918TIP3   OH281244   3.031   2.636  38.528 -0.1835 -0.2952 -0.1935
19918TIP3    H181245   2.940   2.610  38.535 -0.1079 -0.2053  1.8951
19918TIP3    H281246   3.058   2.609  38.440 -2.2496 -0.1445 -0.9155
19919TIP3   OH281247   1.052   0.042  18.272 -0.3345  0.0491  0.4185
19919TIP3    H181248   0.963   0.008  18.275  0.1169 -1.1722  0.5822
19919TIP3    H281249   1.090   0.017  18.356  0.1029  0.7705  0.4484
19920TIP3   OH281250   0.939   3.907   6.595 -0.3223 -0.4098  0.5037
19920TIP3    H181251   1.032   3.909   6.619 -0.1986 -1.5111  0.1842
19920TIP3    H281252   0.894   3.935   6.674  0.3131  1.0423  0.3759
19921TIP3   OH281253   1.712   3.641   9.505 -0.3595  0.5262 -0.1918
19921TIP3    H181254   1.629   3.629   9.459  0.5792  0.2438 -1.8784
19921TIP3    H281255   1.755   3.555   9.500  0.7453  1.0938 -0.8100
19922TIP3   OH281256   2.807   0.582  32.685  0.3607 -0.2446 -0.4154
19922TIP3    H181257   2.787   0.499  32.728 -1.3327 -0.3855 -1.3771
19922TIP3    H281258   2.808   0.647  32.756 -0.2485 -0.7907  0.1058
19923TIP3   OH281259   0.180   2.220   8.054  0.3442  0.2102  0.7943
19923TIP3    H181260   0.221   2.306   8.060  0.5370  0.1084  0.9639
19923TIP3    H281261   0.145   2.205   8.142  1.2346 -0.3346  1.0766
19924TIP3   OH281262   0.578   0.468  23.530 -0.0680  0.4002  0.3156
19924TIP3    H181263   0.507   0.413  23.496  0.5931 -0.5172  0.3741
19924TIP3    H281264   0.590   0.439  23.620  1.0485 -0.1741  0.0026
19925TIP3   OH281265   2.183   1.541   4.467  0.1407 -0.3149 -0.0788
19925TIP3    H181266   2.122   1.468   4.453  1.2024 -1.2170 -0.1451
19925TIP3    H281267   2.167   1.568   4.558  0.4707 -1.3444  0.2966
19926TIP3   OH281268   1.078   4.175  14.144 -0.4897  0.2469 -0.0106
19926TIP3    H181269   1.156   4.120  14.149  0.2624  1.3428  0.7530
19926TIP3    H281270   1.084   4.232  14.221 -1.6683  0.8434 -0.3400
19927TIP3   OH281271   2.027   2.165  34.323  0.1356  0.6032  0.1225
19927TIP3    H181272   2.029   2.085  34.272 -0.2287  0.5660  0.1688
19927TIP3    H281273   1.949   2.211  34.294 -0.0919  0.5677  0.6674
19928TIP3   OH281274   1.982   2.548   1.834  0.2905  0.0505  0.3106
19928TIP3    H181275   1.986   2.480   1.767  0.5984  0.6934 -0.3340
19928TIP3    H281276   2.073   2.563   1.860  0.6748  2.5484 -1.9836
19929TIP3   OH281277   3.904   2.266  28.394 -0.0760 -0.4847  0.2865
19929TIP3    H181278   3.863   2.299  28.474 -2.1311 -0.2176 -0.8031
19929TIP3    H281279   3.961   2.337  28.365  0.7947 -0.6384  1.5705
19930TIP3   OH281280   3.096   1.779  38.318 -0.5757 -0.4557 -0.1476
19930TIP3    H181281   3.031   1.710  38.303 -0.6012 -0.8736  1.6648
19930TIP3    H281282   3.057   1.834  38.385 -0.4557  1.2495 -1.4065
19931TIP3   OH281283   2.916   2.047  11.107  0.3962  0.1388 -0.1998
19931TIP3    H181284   2.912   2.060  11.202 -0.0677 -0.1364 -0.1789
19931TIP3    H281285   2.985   2.106  11.078  1.1215 -0.3793  0.4137
19932TIP3   OH281286   1.567   4.250   1.224  0.9192  0.0238 -0.2538
19932TIP3    H181287   1.632   4.313   1.253  0.2550  0.3388  0.5928
19932TIP3    H281288   1.525   4.291   1.149  1.5097 -0.0763 -0.6516
19933TIP3   OH281289   2.534   0.682  33.346  0.4193 -0.1968 -0.3703
19933TIP3    H181290   2.569   0.722  33.425  1.4594  1.3946 -1.5847
19933TIP3    H281291   2.447   0.650  33.372  1.2218 -0.8461  1.7105
19934TIP3   OH281292   1.662   3.656  34.200 -0.1964 -0.3248  0.3462
19934TIP3    H181293   1.588   3.677  34.142 -0.5400  0.5210  1.0725
19934TIP3    H281294   1.739   3.687  34.151 -0.6272  2.1709  1.0822
19935TIP3   OH281295   0.630   3.289  27.147  0.3549 -0.2894 -0.1762
19935TIP3    H181296   0.691   3.348  27.102 -0.5816 -1.0311 -2.5800
19935TIP3    H281297   0.587   3.241  27.077 -2.8596 -0.0098  1.4225
19936TIP3   OH281298   2.472   0.156   4.550 -0.3972 -0.0313  0.4719
19936TIP3    H181299   2.408   0.087   4.569 -0.4999 -0.5924 -1.6743
19936TIP3    H281300   2.427   0.214   4.489  0.5385  0.5518  0.3232
19937TIP3   OH281301   0.288   3.219   2.174 -0.0543  0.0576 -0.7098
19937TIP3    H181302   0.346   3.274   2.227  0.7935 -1.8925  0.4994
19937TIP3    H281303   0.334   3.209   2.091  0.2154  0.4157 -0.6075
19938TIP3   OH281304   1.136   0.969  14.507  0.2036 -0.2481  0.1355
19938TIP3    H181305   1.184   0.893  14.542 -0.7689 -1.1711 -0.4571
19938TIP3    H281306   1.047   0.959  14.541 -0.5707 -0.7375 -1.8289
19939TIP3   OH281307   2.949   3.788  27.409 -0.0071 -0.0025 -0.0871
19939TIP3    H181308   3.037   3.802  27.445 -1.2043  0.2628  3.0651
19939TIP3    H281309   2.897   3.859  27.446 -1.8880 -1.0465 -0.6301
19940TIP3   OH281310   1.796   3.984   8.634 -0.0246 -0.0059  0.3912
19940TIP3    H181311   1.708   3.986   8.595  1.4882  0.3298 -3.4981
19940TIP3    H281312   1.836   3.905   8.598  2.0489  1.1980 -0.0791
19941TIP3   OH281313   4.360   2.800  40.071  0.0514 -0.1298 -0.3706
19941TIP3    H181314   4.399   2.881  40.038 -0.3128 -0.2394 -1.1078
19941TIP3    H281315   4.308   2.827  40.146 -0.3328  0.3823 -0.8054
19942TIP3   OH281316   1.759   3.465  31.145 -0.4154  0.1472 -0.5398
19942TIP3    H181317   1.829   3.507  31.094 -0.8661  0.6425 -0.7662
19942TIP3    H281318   1.805   3.408  31.206  0.2436  1.2711  0.0494
19943TIP3   OH281319   4.137   2.450  24.928  0.2706  0.2746  0.1757
19943TIP3    H181320   4.188   2.391  24.984 -0.3220 -0.6346 -0.2200
19943TIP3    H281321   4.125   2.401  24.847 -2.8760 -0.3829  0.9179
19944TIP3   OH281322   1.579   0.033  39.531  0.1995  0.3865 -0.1965
19944TIP3    H181323   1.562  -0.007  39.617 -1.5067 -2.6950 -1.8081
19944TIP3    H281324   1.664  -0.003  39.505  0.8898  1.6034  0.2667
19945TIP3   OH281325   0.471   3.599   9.959 -0.2160 -0.0089 -0.1727
19945TIP3    H181326   0.385   3.582   9.996 -0.2174  1.0219  0.3398
19945TIP3    H281327   0.531   3.595  10.033  0.0791 -0.0393 -0.4103
19946TIP3   OH281328   3.042   2.496  40.994  0.0829  0.0695 -0.5341
19946TIP3    H181329   2.964   2.529  41.038  0.1538 -0.0367 -0.3267
19946TIP3    H281330   3.107   2.485  41.064  0.7984  1.6373 -0.9092
19947TIP3   OH281331   3.868   1.141  28.389  0.2022  0.5380 -0.4362
19947TIP3    H181332   3.878   1.087  28.311 -1.8800  0.1394 -0.5013
19947TIP3    H281333   3.946   1.197  28.391  2.9787 -2.9813  0.1104
19948TIP3   OH281334   1.220   3.433  39.838  0.2213  0.4860  0.4897
19948TIP3    H181335   1.294   3.484  39.808 -0.6023  2.7959  2.1018
19948TIP3    H281336   1.244   3.342  39.818  2.4517  1.3241 -1.0441
19949TIP3   OH281337   4.295   3.705  33.952  0.0369 -0.3923  0.1393
19949TIP3    H181338   4.345   3.710  33.871 -1.4910 -1.9301 -0.9593
19949TIP3    H281339   4.209   3.742  33.930  0.7226  2.8020  2.1470
19950TIP3   OH281340   3.128   0.528  28.791  0.2493 -0.4528  0.1420
19950TIP3    H181341   3.203   0.473  28.768  0.7713  1.1551 -2.4167
19950TIP3    H281342   3.136   0.604  28.733 -4.0617 -0.7824 -1.1828
19951TIP3   OH281343   4.044   2.236  34.767 -0.0557  0.1264  0.5800
19951TIP3    H181344   4.067   2.204  34.679 -0.8944 -0.8460  0.6908
19951TIP3    H281345   4.052   2.159  34.823  1.3044  0.9371  1.5363
19952TIP3   OH281346   2.879   2.305  36.066 -0.1091  0.0230 -0.2580
19952TIP3    H181347   2.942   2.377  36.071 -0.7944  0.5848  0.5993
19952TIP3    H281348   2.844   2.309  35.977  1.9088 -1.0518 -1.1613
19953TIP3   OH281349   3.055   1.695  32.769 -0.3446  0.3967  0.4500
19953TIP3    H181350   3.119   1.741  32.715  0.8093  0.3270  1.7011
19953TIP3    H281351   3.025   1.760  32.832 -2.2911  0.7064 -0.7118
19954TIP3   OH281352   0.009   3.333   6.990  0.3524 -0.0077 -0.2245
19954TIP3    H181353  -0.021   3.337   7.081  0.4409 -0.2786 -0.1823
19954TIP3    H281354  -0.054   3.274   6.947 -1.1303  1.9450 -0.9049
19955TIP3   OH281355   4.205   0.137  39.410 -0.0912 -0.6230 -0.4032
19955TIP3    H181356   4.208   0.226  39.447 -0.0020 -0.6084 -0.4441
19955TIP3    H281357   4.113   0.125  39.386 -0.7195 -1.5628  2.0852
19956TIP3   OH281358   3.340   2.392  39.548  0.0283  0.2697  0.6022
19956TIP3    H181359   3.421   2.404  39.498 -0.1879  2.1272  0.6469
19956TIP3    H281360   3.348   2.453  39.621 -1.3397  0.3628  0.6953
19957TIP3   OH281361   3.016   1.140  27.835  0.2213  0.0184 -0.5896
19957TIP3    H181362   3.102   1.140  27.793 -0.1213 -0.2956 -1.3059
19957TIP3    H281363   2.979   1.226  27.815  0.7092  0.4976  0.4659
19958TIP3   OH281364   1.982   2.880  10.612  0.5281 -0.2406  0.2365
19958TIP3    H181365   2.036   2.843  10.683 -0.3312 -1.5722  0.2322
19958TIP3    H281366   1.922   2.809  10.589 -1.6804  1.3864  0.6872
19959TIP3   OH281367   3.374   3.646   6.535 -0.0467 -0.4843  0.6448
19959TIP3    H181368   3.314   3.655   6.609 -0.6835 -1.7826  0.3151
19959TIP3    H281369   3.461   3.642   6.574 -0.3451 -0.7073  1.2895
19960TIP3   OH281370   1.733   1.947   4.320 -0.2883  0.3677 -0.1015
19960TIP3    H181371   1.761   2.013   4.383 -0.9047  1.3140 -0.7809
19960TIP3    H281372   1.812   1.928   4.269  0.0415  0.1173  0.4998
19961TIP3   OH281373   2.255   0.105  31.231 -0.3131  0.7166  0.1130
19961TIP3    H181374   2.203   0.051  31.291 -2.0077 -1.0418 -2.7036
19961TIP3    H281375   2.346   0.088  31.255 -0.9105 -0.3013  1.8054
19962TIP3   OH281376   1.261   0.645  14.031 -0.6558  0.2465  0.0436
19962TIP3    H181377   1.288   0.558  14.001  1.3980  0.5486  0.8278
19962TIP3    H281378   1.272   0.701  13.954 -1.0486 -0.0196 -0.2066
19963TIP3   OH281379   2.669   0.486  29.691 -0.4178  0.1248 -0.5894
19963TIP3    H181380   2.575   0.470  29.685 -0.1523 -1.0598 -3.0919
19963TIP3    H281381   2.679   0.580  29.679 -1.3009  0.3552  0.3769
19964TIP3   OH281382   3.584   0.238   2.701  0.2346  0.4626 -0.1571
19964TIP3    H181383   3.575   0.165   2.639  0.3419 -0.1424  0.5279
19964TIP3    H281384   3.544   0.312   2.656  0.1464 -0.0108 -0.8795
19965TIP3   OH281385   0.703   1.596  30.198  0.4988 -0.3447  0.2780
19965TIP3    H181386   0.710   1.686  30.166  1.6942  0.0373  1.5104
19965TIP3    H281387   0.782   1.552  30.164  0.5508 -0.5813  0.6949
19966TIP3   OH281388   0.250   0.323   2.306 -0.0326 -0.8913 -0.8161
19966TIP3    H181389   0.303   0.402   2.317 -0.8254 -0.3519 -0.7571
19966TIP3    H281390   0.311   0.251   2.315  0.3032 -0.3717  1.6496
19967TIP3   OH281391   0.013   1.486   8.796 -0.2371 -0.1770  0.3090
19967TIP3    H181392  -0.033   1.500   8.879  0.1033  2.7544  0.1183
19967TIP3    H281393   0.076   1.417   8.814 -2.2181 -1.7795  1.5708
19968TIP3   OH281394   2.970   2.816  37.285  0.0643 -0.3425 -0.0699
19968TIP3    H181395   3.023   2.792  37.361 -0.1570  1.2311  0.6217
19968TIP3    H281396   2.895   2.757  37.288 -0.3082  0.1801  1.3783
19969TIP3   OH281397   1.795   2.244  31.081  0.4700  0.3084 -0.6755
19969TIP3    H181398   1.888   2.266  31.082  0.6306 -0.3758 -0.0722
19969TIP3    H281399   1.776   2.224  30.989  1.0593 -0.1082 -0.7123
19970TIP3   OH281400   0.951   4.048   5.531 -0.0753 -0.1231 -0.3203
19970TIP3    H181401   0.872   4.093   5.501  0.6012  0.8862 -0.6726
19970TIP3    H281402   0.992   4.111   5.591  0.3170 -0.7481  0.0744
19971TIP3   OH281403   1.757   2.200  15.562  0.6774 -0.0310 -0.2938
19971TIP3    H181404   1.792   2.252  15.634  0.4971  1.0325 -0.9496
19971TIP3    H281405   1.786   2.110  15.581  2.6071  0.5757 -0.0993
19972TIP3   OH281406   1.679   2.760  10.988  0.7367  0.0465  0.2688
19972TIP3    H181407   1.604   2.807  10.952 -0.5736 -0.4726  2.1400
19972TIP3    H281408   1.755   2.800  10.946 -0.5852 -0.0616 -2.4458
19973TIP3   OH281409   1.080   4.342  10.283 -0.2986  0.1452  0.3572
19973TIP3    H181410   1.006   4.401  10.301 -0.4254  0.0377  0.1878
19973TIP3    H281411   1.115   4.372  10.200 -0.8664 -0.5174 -0.1371
19974TIP3   OH281412   0.281   4.190   5.584 -0.1422  0.7204 -0.0159
19974TIP3    H181413   0.360   4.139   5.566 -1.5322 -1.6927  0.2929
19974TIP3    H281414   0.265   4.238   5.503 -0.1237 -1.2854 -1.2748
19975TIP3   OH281415   3.876   4.229   2.943  0.7218 -0.1032 -0.1517
19975TIP3    H181416   3.820   4.204   3.016  0.2991  1.3054  0.0275
19975TIP3    H281417   3.840   4.311   2.911  1.6561 -0.0525 -1.1463
19976TIP3   OH281418   2.106   3.593  37.671 -0.2154 -0.1345  0.0281
19976TIP3    H181419   2.023   3.638  37.684  1.0770  2.3164  0.3139
19976TIP3    H281420   2.114   3.585  37.576 -1.1887 -1.2856  0.0227
19977TIP3   OH281421   2.988   3.750  39.851 -0.2315  0.3742 -0.4375
19977TIP3    H181422   3.013   3.842  39.862 -0.6256  0.3402  0.8885
19977TIP3    H281423   3.049   3.717  39.785  1.6003  0.9362  0.8777
19978TIP3   OH281424   2.718   1.364  39.132  0.4233 -0.1977  0.0989
19978TIP3    H181425   2.806   1.339  39.160  1.6830  1.0495 -2.4754
19978TIP3    H281426   2.724   1.374  39.037 -2.5376 -0.1108 -0.1786
19979TIP3   OH281427   2.348   0.535   0.286  0.1081  0.2171  0.3241
19979TIP3    H181428   2.335   0.478   0.210  1.0301 -0.1850  0.4585
19979TIP3    H281429   2.384   0.477   0.354 -0.9303  0.5151  1.1566
19980TIP3   OH281430   1.903   4.218  29.910  0.0587  0.6139  0.2246
19980TIP3    H181431   1.875   4.309  29.900 -0.9517  0.2908  0.0221
19980TIP3    H281432   1.850   4.169  29.847  0.9464 -0.0499 -0.0177
19981TIP3   OH281433   3.107   4.401   8.171  0.1425  0.2488 -0.0699
19981TIP3    H181434   3.044   4.459   8.214  1.2998  0.9490  0.7333
19981TIP3    H281435   3.090   4.315   8.209 -0.8827  0.2477 -0.4963
19982TIP3   OH281436   1.594   3.004  40.570 -0.1687 -0.5950  0.0696
19982TIP3    H181437   1.512   3.046  40.596  0.7441  2.7390 -1.8222
19982TIP3    H281438   1.571   2.953  40.493 -0.4783  0.5840 -0.6473
19983TIP3   OH281439   1.312   3.662  37.167 -0.1935  0.2027 -0.0460
19983TIP3    H181440   1.336   3.618  37.085  0.5313 -0.3903  0.4771
19983TIP3    H281441   1.222   3.691  37.153 -0.8476 -1.8113 -0.2489
19984TIP3   OH281442   4.033   2.441  40.874 -0.4404 -0.1440 -0.4565
19984TIP3    H181443   4.011   2.511  40.812 -2.5761 -1.0961 -0.8768
19984TIP3    H281444   3.988   2.465  40.955  2.3873  1.1192  0.8409
19985TIP3   OH281445   0.299   1.354  28.361  0.3475 -0.2967  0.7903
19985TIP3    H181446   0.269   1.443  28.344 -2.1129 -0.9678  1.2631
19985TIP3    H281447   0.306   1.314  28.274 -0.3915 -0.1727  0.6652
19986TIP3   OH281448   3.707   1.676  26.016  0.5293  0.1273  0.4545
19986TIP3    H181449   3.751   1.751  26.055  0.0258 -0.2884  1.8734
19986TIP3    H281450   3.642   1.650  26.081 -0.8637 -0.1389 -0.9827
19987TIP3   OH281451   1.397   3.112  37.422 -0.0713 -0.7817 -0.0385
19987TIP3    H181452   1.327   3.047  37.411 -0.4713 -0.8024  2.1835
19987TIP3    H281453   1.353   3.197  37.413  0.1702 -0.7926 -1.4476
19988TIP3   OH281454   2.690   1.719   9.328  0.3760 -0.2337 -0.2510
19988TIP3    H181455   2.756   1.709   9.396 -0.2057  1.3801  0.6184
19988TIP3    H281456   2.731   1.685   9.249  1.1642 -1.9262  0.8259
19989TIP3   OH281457   1.516   0.741  33.743 -0.3476 -0.1159 -0.1635
19989TIP3    H181458   1.546   0.663  33.697 -0.6059 -0.4125  0.1683
19989TIP3    H281459   1.551   0.814  33.691  0.0333 -0.4484 -0.3821
19990TIP3   OH281460   3.917   0.286   5.045 -0.0642  0.0438 -0.1534
19990TIP3    H181461   3.877   0.220   4.989 -0.0701 -0.8922  0.9231
19990TIP3    H281462   3.886   0.369   5.009 -3.0557 -0.6151  0.6163
19991TIP3   OH281463   1.575   2.892  18.549 -0.0406  0.0166  0.1617
19991TIP3    H181464   1.533   2.915  18.631 -1.2745  0.2338 -0.5052
19991TIP3    H281465   1.514   2.920  18.481  1.3880  0.7576 -0.8886
19992TIP3   OH281466   0.183   1.843  32.990 -0.3828 -0.5462  0.1941
19992TIP3    H181467   0.233   1.800  33.059  0.5208 -1.0282 -0.7412
19992TIP3    H281468   0.137   1.914  33.034  1.6609  0.3402  0.9749
19993TIP3   OH281469   4.212   0.618  11.981 -0.2817  0.6343 -0.5534
19993TIP3    H181470   4.292   0.637  12.030  1.1024 -2.4085 -1.3599
19993TIP3    H281471   4.211   0.683  11.911 -0.0473  2.4277  1.0280
19994TIP3   OH281472   2.914   4.074  28.270 -0.4947 -0.4088 -0.0645
19994TIP3    H181473   2.914   4.010  28.342 -0.9705 -0.9873 -0.5696
19994TIP3    H281474   2.941   4.024  28.194  0.3870  0.2905 -0.2334
19995TIP3   OH281475   1.487   2.201   3.314 -0.0892 -0.3375 -0.2738
19995TIP3    H181476   1.417   2.264   3.296 -0.8724 -1.6737 -2.1277
19995TIP3    H281477   1.537   2.196   3.232  1.7302 -0.0257  0.7534
19996TIP3   OH281478   1.930   4.114  31.222  0.0493  0.3974 -0.1257
19996TIP3    H181479   1.869   4.042  31.206  1.3689 -0.8993  0.4337
19996TIP3    H281480   1.976   4.089  31.302  1.0725  1.4904 -0.3452
19997TIP3   OH281481   0.615   1.198  37.163  0.4456 -0.0440  0.4847
19997TIP3    H181482   0.567   1.208  37.081 -1.4952 -0.7366  1.4703
19997TIP3    H281483   0.657   1.283  37.178 -1.4824  1.0133  0.1559
19998TIP3   OH281484   4.343   0.283  36.343  0.1713 -0.6442  0.2338
19998TIP3    H181485   4.320   0.374  36.362  0.1233 -0.4536 -0.7084
19998TIP3    H281486   4.402   0.288  36.268 -0.8187 -1.4640 -0.6396
19999TIP3   OH281487   4.019   1.433   1.593  0.0719 -0.2989  0.1215
19999TIP3    H181488   4.110   1.403   1.587  0.0808 -0.3752  0.5964
19999TIP3    H281489   4.027   1.525   1.621 -0.0187 -0.6153  1.2279
20000TIP3   OH281490   3.767   0.410   3.774  0.5411 -0.5241 -0.5414
20000TIP3    H181491   3.799   0.330   3.733  0.9030  0.7286 -2.8814
20000TIP3    H281492   3.832   0.476   3.753  1.3286  0.0719  3.1042
20001TIP3   OH281493   0.794   1.194   9.522  0.2572  0.2268  0.3804
20001TIP3    H181494   0.775   1.100   9.530 -1.3950  0.4584 -0.4514
20001TIP3    H281495   0.735   1.225   9.454  1.7992  1.6080 -0.4111
20002TIP3   OH281496   3.579   1.171   1.721  0.0746  0.3600 -0.5417
20002TIP3    H181497   3.560   1.153   1.629 -1.4270  0.5526 -0.2945
20002TIP3    H281498   3.563   1.088   1.765  4.4142 -0.9095 -0.8288
20003TIP3   OH281499   3.749   0.519  31.249  0.1862  0.0386  0.2489
20003TIP3    H181500   3.816   0.487  31.189 -1.5698 -2.5795 -0.4335
20003TIP3    H281501   3.682   0.558  31.193  0.7743  2.1735  0.9028
20004TIP3   OH281502   3.711   0.923  36.743 -0.2024 -0.2177  0.5482
20004TIP3    H181503   3.750   0.862  36.681  1.9544 -0.1937  1.7719
20004TIP3    H281504   3.678   0.868  36.814 -1.5896 -0.1654 -0.0307
20005TIP3   OH281505   1.567   3.562   6.002 -0.1316 -0.0302 -0.2398
20005TIP3    H181506   1.524   3.511   6.070  0.1051 -1.2774 -0.9949
20005TIP3    H281507   1.656   3.528   5.998  0.6922  1.8657  0.6324
20006TIP3   OH281508   1.516   3.805  39.092 -0.5188  0.3514 -0.1680
20006TIP3    H181509   1.505   3.860  39.170  1.5390  0.0101  0.4299
20006TIP3    H281510   1.611   3.807  39.075 -0.8300 -0.2698 -2.1708
20007TIP3   OH281511   2.246   3.622  38.161 -0.4857  0.2431  0.1123
20007TIP3    H181512   2.214   3.544  38.114 -0.5318  0.1891  0.2337
20007TIP3    H281513   2.323   3.592  38.208 -0.9478  0.0783  0.7757
20008TIP3   OH281514   4.135   0.675  32.088 -0.6149 -0.2000  0.2931
20008TIP3    H181515   4.050   0.640  32.059 -1.0807  1.5442 -0.5794
20008TIP3    H281516   4.152   0.748  32.028  0.6256  0.6222  1.6045
20009TIP3   OH281517   4.102   0.595   0.410 -0.3665 -0.4433  0.6182
20009TIP3    H181518   4.087   0.619   0.501  1.6792  0.1367  0.8309
20009TIP3    H281519   4.189   0.557   0.408 -0.8063 -1.4955 -0.9341
20010TIP3   OH281520   4.127   1.122  13.305  0.8233 -0.4751 -0.2702
20010TIP3    H181521   4.050   1.138  13.359  1.2424 -2.2859  0.9793
20010TIP3    H281522   4.139   1.202  13.255 -0.8084  0.5068  0.8201
20011TIP3   OH281523   1.083   1.843  30.479  0.1742 -0.2663  0.3655
20011TIP3    H181524   1.156   1.793  30.444  0.4701  1.0369 -0.9504
20011TIP3    H281525   1.019   1.776  30.506  0.8560 -1.3589 -0.6482
20012TIP3   OH281526   2.594   1.840  30.004 -0.2673 -0.3619  0.3475
20012TIP3    H181527   2.609   1.747  30.025  0.4806 -0.4376 -0.4737
20012TIP3    H281528   2.501   1.844  29.981 -0.4387 -0.7996  0.9493
20013TIP3   OH281529   1.680   4.348  28.446  0.5287  0.0026  0.3756
20013TIP3    H181530   1.603   4.337  28.502  0.9680 -1.1847  0.7731
20013TIP3    H281531   1.727   4.422  28.484 -0.0646  0.3100  0.5270
20014TIP3   OH281532   0.507   3.465  32.669 -0.0943 -0.9342  0.1564
20014TIP3    H181533   0.508   3.376  32.702  1.5512 -1.3346 -0.8920
20014TIP3    H281534   0.596   3.497  32.681 -0.7552  0.7477  0.9301
20015TIP3   OH281535   0.342   1.724   0.170  0.0471  0.0404  0.1957
20015TIP3    H181536   0.349   1.809   0.213 -1.3623 -0.6239  1.8954
20015TIP3    H281537   0.260   1.728   0.121  1.7026  0.8332 -2.7192
20016TIP3   OH281538   3.198   2.293  29.846 -0.1292 -0.1438 -0.0851
20016TIP3    H181539   3.165   2.295  29.756  0.1271 -0.9335 -0.2035
20016TIP3    H281540   3.292   2.282  29.837 -0.1698 -0.8929  0.2751
20017TIP3   OH281541   1.307   0.401  30.181  0.1735 -0.1030  0.1926
20017TIP3    H181542   1.351   0.386  30.264 -0.6298  0.4129  0.7234
20017TIP3    H281543   1.378   0.421  30.120  0.9430 -2.2554  0.3064
20018TIP3   OH281544   1.682   4.266  33.296 -0.3872 -0.0126  0.3930
20018TIP3    H181545   1.641   4.280  33.381 -1.4710 -0.3109 -0.0601
20018TIP3    H281546   1.609   4.261  33.235  0.2906 -1.1402 -0.3673
20019TIP3   OH281547   2.323   3.580  27.416 -0.4730 -0.5605  0.2124
20019TIP3    H181548   2.409   3.594  27.377 -1.0983  0.6303 -0.7985
20019TIP3    H281549   2.302   3.489  27.397 -0.9994  0.1092 -2.8097
20020TIP3   OH281550   1.703   2.281  32.253 -0.1152 -0.3601 -0.6370
20020TIP3    H181551   1.653   2.351  32.297  3.8150  1.0312  2.1464
20020TIP3    H281552   1.667   2.200  32.290 -0.5597  0.5522  1.0608
20021TIP3   OH281553   4.364   2.726  27.086 -0.1249  0.1726  0.9143
20021TIP3    H181554   4.407   2.757  27.006  1.5645  0.4098  1.8689
20021TIP3    H281555   4.391   2.788  27.153 -1.7401  0.1342  1.6394
20022TIP3   OH281556   0.900   0.591   7.975  0.2442 -0.3374 -0.2347
20022TIP3    H181557   0.892   0.500   8.003  1.5765 -0.3454  0.1904
20022TIP3    H281558   0.952   0.588   7.895 -0.9542 -0.0501 -1.0571
20023TIP3   OH281559   1.150   3.355   0.834  0.3062  0.0250  0.2460
20023TIP3    H181560   1.191   3.269   0.831  0.4235  0.1090 -1.4984
20023TIP3    H281561   1.141   3.381   0.742 -0.0631  1.7169  0.7215
20024TIP3   OH281562   2.537   3.810  12.533  0.0664  0.1044 -0.6942
20024TIP3    H181563   2.499   3.879  12.588 -0.2973 -0.7054  0.0881
20024TIP3    H281564   2.544   3.850  12.446 -1.3391  0.7224 -0.5555
20025TIP3   OH281565   0.545   1.832  11.559  0.2591 -0.0159  0.3592
20025TIP3    H181566   0.596   1.904  11.522 -0.2656  0.2923  0.2371
20025TIP3    H281567   0.573   1.827  11.650 -0.9517  1.4802  0.8555
20026TIP3   OH281568   1.989   2.922  37.408 -0.1436  0.3576 -0.5393
20026TIP3    H181569   1.966   2.852  37.470 -0.4378  0.1204 -0.9143
20026TIP3    H281570   2.010   2.997  37.464 -1.1143  0.3657 -0.1705
20027TIP3   OH281571   3.538   0.343   4.911  0.2791 -0.3289 -0.9196
20027TIP3    H181572   3.451   0.381   4.907  0.0622 -0.8812 -1.7567
20027TIP3    H281573   3.553   0.308   4.823  0.7117 -1.6003 -0.3751
20028TIP3   OH281574   4.013   2.935  31.193  0.5979 -0.0706  0.1186
20028TIP3    H181575   4.101   2.943  31.157  1.0640  1.0203  1.4517
20028TIP3    H281576   4.022   2.876  31.267  0.8228  2.1502  1.9906
20029TIP3   OH281577   4.186   3.280  29.654 -0.1062 -0.3614 -0.8390
20029TIP3    H181578   4.255   3.224  29.690 -1.5453 -1.2026  0.7672
20029TIP3    H281579   4.173   3.348  29.720 -0.6559 -0.0694 -1.2398
20030TIP3   OH281580   3.045   2.633  11.862 -0.1730 -0.6303  0.3293
20030TIP3    H181581   3.092   2.690  11.923 -0.2434 -0.5810  0.3368
20030TIP3    H281582   2.989   2.579  11.917  0.5600 -1.3417  0.4102
20031TIP3   OH281583   1.871   2.614  15.916 -0.7878  0.2362  0.0921
20031TIP3    H181584   1.802   2.643  15.975 -1.3223 -0.8979  0.0553
20031TIP3    H281585   1.826   2.602  15.832 -0.3189  0.5130 -0.2016
20032TIP3   OH281586   3.975   2.529   4.880  0.1973 -0.5857 -0.8149
20032TIP3    H181587   4.019   2.546   4.797  0.9567  1.4113 -0.0611
20032TIP3    H281588   4.036   2.559   4.947 -1.0319 -0.6610  0.4018
20033TIP3   OH281589   0.814   1.873  35.910 -0.4934 -0.0077  0.0411
20033TIP3    H181590   0.810   1.965  35.884  0.5416 -0.0641 -0.3754
20033TIP3    H281591   0.891   1.868  35.967  0.7696 -0.9989 -1.6706
20034TIP3   OH281592   1.526   0.486  30.047 -0.2765  0.0617 -0.2519
20034TIP3    H181593   1.598   0.432  30.081  0.1754  0.5678 -0.3952
20034TIP3    H281594   1.538   0.571  30.089 -0.6660  0.2115 -0.4438
20035TIP3   OH281595   2.837   2.312  40.316 -0.5240 -0.0503 -0.4246
20035TIP3    H181596   2.837   2.263  40.234 -0.6206  0.1039 -0.5182
20035TIP3    H281597   2.746   2.339  40.329 -0.4066  0.4493 -0.5873
20036TIP3   OH281598   0.359   3.404  31.120 -0.1816 -0.8994  0.1508
20036TIP3    H181599   0.369   3.471  31.052  3.0330 -0.2333  1.1522
20036TIP3    H281600   0.430   3.342  31.104  0.6222 -0.7578  2.8548
20037TIP3   OH281601   4.394   1.660  23.526 -0.1512  0.3095  0.3522
20037TIP3    H181602   4.322   1.712  23.562 -1.0620  0.1381 -1.1072
20037TIP3    H281603   4.451   1.723  23.484  0.4675  0.4236  1.3302
20038TIP3   OH281604   0.396   2.793  13.520  0.0727  0.0497 -0.0122
20038TIP3    H181605   0.361   2.705  13.511 -1.5117  0.5471  0.9374
20038TIP3    H281606   0.433   2.795  13.609  2.4752 -0.4178 -0.9364
20039TIP3   OH281607   1.970   2.898  17.714  0.3728 -0.1195  0.5058
20039TIP3    H181608   1.996   2.829  17.653  1.1534 -0.8729  1.6412
20039TIP3    H281609   1.896   2.859  17.762  0.9439 -0.2660  1.2874
20040TIP3   OH281610   3.829   2.627  32.848  0.2179 -0.0046  0.0328
20040TIP3    H181611   3.835   2.632  32.753 -0.8086  2.2841  0.0195
20040TIP3    H281612   3.742   2.663  32.868  0.7988  0.4611  1.8756
20041TIP3   OH281613   2.208   1.033   6.075 -0.2550 -0.0329 -0.1395
20041TIP3    H181614   2.174   1.049   5.987 -0.5682  0.1421  0.0104
20041TIP3    H281615   2.298   1.002   6.061 -0.0104  0.8125 -0.4852
20042TIP3   OH281616   4.054   1.638   6.848  0.3345  0.0598  0.1295
20042TIP3    H181617   3.982   1.700   6.834  0.5296  0.0551 -0.9427
20042TIP3    H281618   4.064   1.635   6.943  0.2328  1.5708  0.2089
20043TIP3   OH281619   2.868   2.290  29.917 -0.0587  0.1810  0.2015
20043TIP3    H181620   2.880   2.245  29.833 -0.8670 -0.2512  0.3139
20043TIP3    H281621   2.957   2.316  29.942  0.4153 -1.1670  0.0332
20044TIP3   OH281622   2.223   1.927   4.095  0.0809  0.8375 -0.9907
20044TIP3    H181623   2.286   1.935   4.024 -0.5994  2.4723 -1.4651
20044TIP3    H281624   2.246   1.998   4.156 -1.5158  1.7765 -1.4120
20045TIP3   OH281625   1.649   4.133  32.528 -0.2414  0.1161  0.2468
20045TIP3    H181626   1.682   4.053  32.487 -0.2478 -0.9495  2.1963
20045TIP3    H281627   1.696   4.204  32.483  0.9544 -1.0767 -0.4632
20046TIP3   OH281628   3.505   0.770  27.570  0.6031 -0.0880  0.6428
20046TIP3    H181629   3.447   0.765  27.646  0.3467  1.5407  0.5737
20046TIP3    H281630   3.494   0.859  27.536  0.8634 -0.7140 -1.1945
20047TIP3   OH281631   1.568   2.512  39.500 -0.0566 -0.1091 -0.7215
20047TIP3    H181632   1.659   2.485  39.516  0.0561  0.5555 -0.2025
20047TIP3    H281633   1.537   2.544  39.585  0.0178  1.9485 -1.4229
20048TIP3   OH281634   2.833   2.129   0.852 -0.0820 -0.6018 -0.2807
20048TIP3    H181635   2.793   2.049   0.818 -0.6251 -0.1739 -0.6691
20048TIP3    H281636   2.766   2.166   0.909  0.2158 -0.4887 -0.0051
20049TIP3   OH281637   3.641   2.507   6.816  0.4920 -0.4002  0.1898
20049TIP3    H181638   3.590   2.511   6.736  0.2818 -0.1764  0.3324
20049TIP3    H281639   3.726   2.544   6.792  0.5536 -0.6705 -0.0190
20050TIP3   OH281640   4.390   3.814  25.095  0.7760 -0.0024  0.3838
20050TIP3    H181641   4.416   3.904  25.116  1.9127 -0.1628 -0.2563
20050TIP3    H281642   4.442   3.791  25.019  0.9451 -1.4132  0.8972
20051TIP3   OH281643   2.559   0.080  37.923  0.0611 -0.2049  0.5213
20051TIP3    H181644   2.526   0.031  37.848 -0.3765  1.5096 -0.4467
20051TIP3    H281645   2.508   0.047  37.998 -1.1841 -0.2516 -0.3261
20052TIP3   OH281646   2.204   1.162  32.977  0.1986  0.1224 -0.1439
20052TIP3    H181647   2.273   1.206  33.028 -0.8494  0.2331  1.2427
20052TIP3    H281648   2.189   1.080  33.023  1.7734 -1.5636 -2.4372
20053TIP3   OH281649   3.785   3.199   6.816  0.4610 -0.5457  0.0788
20053TIP3    H181650   3.741   3.233   6.738 -0.8542  0.2638  1.1257
20053TIP3    H281651   3.843   3.271   6.843  0.4493 -0.5802  0.1952
20054TIP3   OH281652   2.903   4.119  11.816 -0.1626  0.0917 -0.0983
20054TIP3    H181653   2.908   4.197  11.761  0.0552 -0.2297 -0.5412
20054TIP3    H281654   2.809   4.099  11.821 -0.0950 -0.9085 -1.8506
20055TIP3   OH281655   0.221   1.157  34.631  0.1961  0.4156  0.3668
20055TIP3    H181656   0.233   1.147  34.537  2.5138 -1.9526  0.8100
20055TIP3    H281657   0.138   1.112  34.650  0.9166 -1.2720 -0.2951
20056TIP3   OH281658   0.256   3.300   9.073 -0.4863  0.1135  0.0206
20056TIP3    H181659   0.234   3.360   9.144 -0.3992 -0.4453  0.5223
20056TIP3    H281660   0.351   3.306   9.064 -0.2367 -1.3474  1.3482
20057TIP3   OH281661   0.622   1.625  22.055 -0.3184 -0.3038 -0.5645
20057TIP3    H181662   0.654   1.701  22.006  0.8068 -0.4453 -0.0645
20057TIP3    H281663   0.611   1.657  22.144 -0.3254 -0.5979 -0.4600
20058TIP3   OH281664   0.594   0.836   2.334  0.3266 -0.7946 -0.4049
20058TIP3    H181665   0.648   0.759   2.353  1.1918 -0.4640 -1.4610
20058TIP3    H281666   0.609   0.894   2.408  2.1716 -0.3212 -1.0948
20059TIP3   OH281667   2.417   4.253  35.865  0.0501  0.1197 -0.1880
20059TIP3    H181668   2.420   4.190  35.793 -0.2315  0.2058 -0.2768
20059TIP3    H281669   2.507   4.287  35.872  0.4736 -1.1077  0.5911
20060TIP3   OH281670   0.951   1.357  38.410  0.1320  0.1025 -0.4163
20060TIP3    H181671   1.045   1.341  38.412  0.0746 -0.4372  2.8465
20060TIP3    H281672   0.943   1.453  38.411  0.6323  0.1480 -0.4544
20061TIP3   OH281673   0.395   1.222   1.383  0.8452 -0.2619  0.1252
20061TIP3    H181674   0.369   1.260   1.467  1.3702  0.1865  0.0866
20061TIP3    H281675   0.312   1.203   1.339  0.5656  1.6750 -0.2350
20062TIP3   OH281676   3.152   3.300   5.782  0.0409  0.2282 -0.0661
20062TIP3    H181677   3.194   3.252   5.854 -0.2269 -0.2364 -0.2208
20062TIP3    H281678   3.094   3.362   5.826  0.8947  0.8924  0.1509
20063TIP3   OH281679   3.344   0.044  35.112  0.1369 -0.2119 -0.0852
20063TIP3    H181680   3.263   0.018  35.068  0.2591  0.1804 -0.5529
20063TIP3    H281681   3.364   0.130  35.075 -1.6323  1.8327  3.2088
20064TIP3   OH281682   4.038   1.614  30.574 -0.2216 -0.3965  0.3642
20064TIP3    H181683   4.100   1.558  30.622 -1.6375 -2.4469 -0.0791
20064TIP3    H281684   3.958   1.563  30.571 -0.7430  0.4343 -2.6229
20065TIP3   OH281685   2.528   2.530   0.768  0.9173 -0.2061 -0.4241
20065TIP3    H181686   2.547   2.488   0.852  2.0029 -0.8884 -0.9871
20065TIP3    H281687   2.614   2.556   0.735  0.6707 -1.2480 -1.9815
20066TIP3   OH281688   1.111   0.869  29.170 -0.0801  0.1647  0.4086
20066TIP3    H181689   1.039   0.931  29.160 -1.9415 -1.9130  0.2512
20066TIP3    H281690   1.186   0.924  29.194 -1.5382  2.4780  0.0431
20067TIP3   OH281691   1.906   1.046  17.950  0.0743 -0.3863  0.1689
20067TIP3    H181692   1.838   0.979  17.959 -1.3997  1.0464  0.1575
20067TIP3    H281693   1.989   0.998  17.958 -0.9239 -1.8570  2.5358
20068TIP3   OH281694   0.892   2.502  40.907 -0.4513  0.1304  0.1318
20068TIP3    H181695   0.894   2.598  40.904 -0.0959  0.0981 -1.2806
20068TIP3    H281696   0.804   2.480  40.938 -0.4300  0.9004  0.7715
20069TIP3   OH281697   2.357   0.498   4.816 -0.0830  0.2602 -0.1419
20069TIP3    H181698   2.402   0.414   4.802 -1.2130 -0.1378 -1.6908
20069TIP3    H281699   2.322   0.521   4.730 -0.4002  1.9927  0.4069
20070TIP3   OH281700   0.906   0.718  35.278  0.5604 -0.1801 -0.0046
20070TIP3    H181701   0.935   0.629  35.300 -1.0504 -0.7003  0.1902
20070TIP3    H281702   0.937   0.772  35.350 -1.0720 -1.1559  1.5217
20071TIP3   OH281703   4.363   0.572  36.416 -0.1994  0.1847 -0.1017
20071TIP3    H181704   4.410   0.621  36.483 -0.8270 -0.2739  0.6958
20071TIP3    H281705   4.277   0.614  36.412  0.2807  1.0795 -1.6145
20072TIP3   OH281706   1.618   3.143  37.991 -0.1669 -0.2225 -0.0707
20072TIP3    H181707   1.537   3.118  37.946  0.0278  1.5462 -1.5187
20072TIP3    H281708   1.661   3.203  37.931  1.9587 -0.6571  0.9317
20073TIP3   OH281709   0.658   0.257  33.173  0.2454 -0.3085  0.3759
20073TIP3    H181710   0.587   0.318  33.194 -0.3458 -0.0843 -1.9596
20073TIP3    H281711   0.614   0.173  33.157  0.5776 -0.3684 -0.2716
20074TIP3   OH281712   0.615   0.730  36.857  0.1430 -0.1675 -0.7575
20074TIP3    H181713   0.701   0.760  36.886 -0.2791  0.9943 -0.6508
20074TIP3    H281714   0.555   0.766  36.922 -0.4852 -0.3906 -1.2121
20075TIP3   OH281715   1.756   0.376  34.944 -0.6404  0.1999  0.2892
20075TIP3    H181716   1.779   0.469  34.938  0.7461 -0.1802 -0.9048
20075TIP3    H281717   1.765   0.356  35.038  0.3801  0.9675  0.3771
20076TIP3   OH281718   0.733   2.720  36.020  0.7134 -0.0859 -0.2733
20076TIP3    H181719   0.659   2.667  36.048 -1.1233  2.4781  0.1497
20076TIP3    H281720   0.763   2.764  36.100  0.2855  1.6224 -0.9987
20077TIP3   OH281721   0.601   2.683   5.249  0.0327 -0.4067  0.0961
20077TIP3    H181722   0.525   2.728   5.285  0.1655 -0.5023  0.4978
20077TIP3    H281723   0.591   2.692   5.154  1.3212  2.6773  0.1086
20078TIP3   OH281724   1.629   3.558  11.589  0.2693  0.3875  0.0306
20078TIP3    H181725   1.724   3.565  11.585  0.2450  1.5285  1.0401
20078TIP3    H281726   1.602   3.556  11.497  1.2876 -0.5971 -0.2724
20079TIP3   OH281727   3.911   0.049  29.570 -0.8752  0.3403 -0.2144
20079TIP3    H181728   3.854   0.111  29.615 -0.3656 -1.1763  2.8077
20079TIP3    H281729   3.994   0.096  29.558 -1.9222  1.7680 -2.4983
20080TIP3   OH281730   1.353   1.569  31.407  0.6615 -0.2232 -0.4296
20080TIP3    H181731   1.409   1.627  31.458 -1.6075  0.7926  1.0723
20080TIP3    H281732   1.317   1.508  31.471 -1.7572  0.6596 -0.8454
20081TIP3   OH281733   2.470   2.853  33.181 -0.7487  0.8362  1.1871
20081TIP3    H181734   2.516   2.936  33.184 -0.8045  0.9293  0.1122
20081TIP3    H281735   2.380   2.874  33.208 -0.9473  1.2853  0.2375
20082TIP3   OH281736   1.100   0.736   9.533 -0.7884  0.5383 -0.3042
20082TIP3    H181737   1.023   0.765   9.485 -1.3005 -1.4316 -0.7499
20082TIP3    H281738   1.148   0.680   9.472  1.4571  2.2963 -0.3111
20083TIP3   OH281739   1.803   0.378   3.946 -0.0734  0.2260 -0.6303
20083TIP3    H181740   1.759   0.311   3.894 -0.4442  0.4068 -0.5476
20083TIP3    H281741   1.770   0.366   4.035 -0.5916  0.9035 -0.7278
20084TIP3   OH281742   0.875   1.627  38.390  0.0208  0.6748  0.2778
20084TIP3    H181743   0.801   1.573  38.418  0.0231  0.3584 -0.3107
20084TIP3    H281744   0.884   1.693  38.459 -3.3327  3.2176 -1.3927
20085TIP3   OH281745   1.604   3.530   7.337  0.1496  0.3336 -0.3684
20085TIP3    H181746   1.551   3.582   7.398  0.9981  2.0462 -1.0189
20085TIP3    H281747   1.656   3.473   7.394 -1.0716 -0.0941  0.3567
20086TIP3   OH281748   1.699   0.004  34.082  0.1456 -1.0238  0.4680
20086TIP3    H181749   1.634  -0.011  34.013  0.0410 -1.6117  0.6889
20086TIP3    H281750   1.657   0.068  34.140 -0.2765 -1.4522  0.6487
20087TIP3   OH281751   2.034   3.784   6.861 -0.1194 -0.1381 -0.5769
20087TIP3    H181752   1.989   3.716   6.912 -1.4179  2.0154  1.3232
20087TIP3    H281753   2.127   3.771   6.881 -0.4511 -0.5896  0.7945
20088TIP3   OH281754   1.038   3.984  40.727 -0.2561 -0.5109 -0.2966
20088TIP3    H181755   0.978   4.034  40.783  0.2628  0.3713 -0.5029
20088TIP3    H281756   1.025   4.020  40.639 -0.0239 -0.8856 -0.4835
20089TIP3   OH281757   3.639   0.559  35.929 -0.9395 -0.0986 -0.2405
20089TIP3    H181758   3.657   0.578  35.837 -2.0328 -3.9351 -1.4599
20089TIP3    H281759   3.557   0.510  35.928 -1.1077 -0.0943  2.8318
20090TIP3   OH281760   1.292   4.371   9.217 -0.4523  0.2722  0.1239
20090TIP3    H181761   1.276   4.357   9.311  0.4224 -0.5187  0.1658
20090TIP3    H281762   1.290   4.466   9.206 -0.3594  0.3810  0.9845
20091TIP3   OH281763   0.416   1.895  33.415 -0.3753  0.0794 -0.6723
20091TIP3    H181764   0.461   1.829  33.362 -0.5676  0.8416 -1.8208
20091TIP3    H281765   0.471   1.973  33.407 -0.5942  0.3042 -0.0142
20092TIP3   OH281766   0.908   3.249  10.327  0.1445 -0.0001 -0.0193
20092TIP3    H181767   0.916   3.270  10.234 -1.7874  1.5999  0.0910
20092TIP3    H281768   0.841   3.181  10.331 -0.1368  0.2872  0.2196
20093TIP3   OH281769   1.754   2.607  40.994 -0.4124 -0.0266 -0.2561
20093TIP3    H181770   1.759   2.695  40.957  0.3894  0.2058  0.3632
20093TIP3    H281771   1.807   2.612  41.074 -0.4259 -1.0479 -0.1676
20094TIP3   OH281772   0.784   3.603  17.741  0.7430 -0.3382  0.1296
20094TIP3    H181773   0.774   3.666  17.813  0.1495 -0.6640  0.3385
20094TIP3    H281774   0.718   3.536  17.759  1.4037 -1.0495 -0.0587
20095TIP3   OH281775   3.040   0.131  34.081  0.1105  0.3250  0.1817
20095TIP3    H181776   3.097   0.106  34.153  0.5931  3.3030  0.9631
20095TIP3    H281777   3.036   0.226  34.085 -1.4194  0.4906 -2.5687
20096TIP3   OH281778   1.561   1.605  14.165  0.4991 -0.8630 -0.3733
20096TIP3    H181779   1.651   1.614  14.132  1.1543 -1.3674  1.1690
20096TIP3    H281780   1.571   1.558  14.248 -1.1878 -0.7816 -0.0937
20097TIP3   OH281781   2.157   3.818  27.468 -0.4140 -0.0327 -0.2559
20097TIP3    H181782   2.219   3.752  27.440  0.2402  0.1778  0.6645
20097TIP3    H281783   2.150   3.878  27.394  1.0135  0.3215 -0.1240
20098TIP3   OH281784   3.777   2.980  33.300  0.0649 -0.8781 -0.2095
20098TIP3    H181785   3.687   2.991  33.330  1.0455  0.8849  2.4220
20098TIP3    H281786   3.827   2.967  33.380  2.1330 -2.4256 -1.6451
20099TIP3   OH281787   4.034   0.246   9.924  0.5743  0.3267  0.1699
20099TIP3    H181788   4.116   0.198   9.915 -0.1216 -0.8672 -0.1124
20099TIP3    H281789   3.981   0.217   9.849 -0.5337  0.1535  0.9852
20100TIP3   OH281790   2.220   3.523   5.236 -0.2670 -0.0222 -0.3662
20100TIP3    H181791   2.267   3.572   5.168 -0.0324 -0.1617 -0.3061
20100TIP3    H281792   2.131   3.516   5.203 -0.5040  1.1027 -0.0324
20101TIP3   OH281793   1.139   2.098  38.246 -0.2295 -0.1015 -0.4863
20101TIP3    H181794   1.152   2.037  38.319  0.2533 -0.8541 -1.1862
20101TIP3    H281795   1.190   2.061  38.174 -0.7420  0.6012 -1.2312
20102TIP3   OH281796   0.975   3.643  13.795  0.2008 -0.1584 -0.4818
20102TIP3    H181797   0.917   3.566  13.788  0.4829 -0.3847 -0.3548
20102TIP3    H281798   1.062   3.606  13.808  0.4420  0.1766 -1.1284
20103TIP3   OH281799   3.790   3.765  40.476 -0.3758  0.1466  0.1066
20103TIP3    H181800   3.740   3.754  40.395 -0.3376 -1.0225  0.2261
20103TIP3    H281801   3.819   3.677  40.499 -1.1048  0.3169  1.8647
20104TIP3   OH281802   3.764   2.938  11.045  0.7925  0.3248 -0.4088
20104TIP3    H181803   3.701   2.928  11.116  1.9543  1.5699  0.8550
20104TIP3    H281804   3.780   2.849  11.015  0.1084 -0.2062  0.7279
20105TIP3   OH281805   3.709   4.265  38.516  0.1729 -0.0736 -0.3151
20105TIP3    H181806   3.618   4.240  38.499  0.0909  0.3084 -0.4326
20105TIP3    H281807   3.742   4.294  38.431 -0.0827  1.3369  0.0539
20106TIP3   OH281808   0.449   1.819   6.844  0.2296  0.0491  0.1432
20106TIP3    H181809   0.379   1.768   6.883  0.8651 -0.7867  0.2386
20106TIP3    H281810   0.407   1.868   6.773 -0.2392 -1.4428 -0.6639
20107TIP3   OH281811   1.704   0.823  37.951 -0.1771  0.0969 -0.6323
20107TIP3    H181812   1.774   0.795  37.892  0.4098 -0.0445  0.1145
20107TIP3    H281813   1.672   0.741  37.990  0.0357  0.2662 -0.0990
20108TIP3   OH281814   1.494   2.313   2.450 -0.1670  0.4218  0.0702
20108TIP3    H181815   1.556   2.376   2.413  1.6768 -0.5762  1.3163
20108TIP3    H281816   1.520   2.230   2.411  0.6810 -0.3496  2.1583
20109TIP3   OH281817   2.493   4.058   5.916 -0.1843 -0.5510  0.2808
20109TIP3    H181818   2.543   4.104   5.984  0.8022  0.8365 -1.3072
20109TIP3    H281819   2.417   4.115   5.900 -0.1025 -0.5757 -0.1936
20110TIP3   OH281820   1.243   2.548  36.508  0.3085  0.7884  0.1339
20110TIP3    H181821   1.285   2.542  36.422 -2.6580 -0.9291 -1.3589
20110TIP3    H281822   1.230   2.457  36.535 -0.7464  1.2695  1.3681
20111TIP3   OH281823   4.283   0.124  27.392 -0.1235 -0.5585 -0.4387
20111TIP3    H181824   4.310   0.216  27.392  1.2116 -0.9101  1.0561
20111TIP3    H281825   4.361   0.076  27.367 -1.0468 -1.2808 -2.0940
20112TIP3   OH281826   0.074   3.012   1.510 -0.3458 -0.2583 -0.3925
20112TIP3    H181827   0.045   3.089   1.558 -1.0943  0.4348 -1.9026
20112TIP3    H281828   0.079   3.041   1.418  0.8045 -1.5968 -0.7941
20113TIP3   OH281829   0.394   2.904  31.191 -0.0656  0.1329 -0.1280
20113TIP3    H181830   0.399   2.979  31.131  0.3381  0.2077 -0.0035
20113TIP3    H281831   0.431   2.832  31.140 -0.7229 -0.0528 -0.3543
20114TIP3   OH281832   0.113   1.393   9.071 -0.2419 -0.0251 -0.4856
20114TIP3    H181833   0.082   1.335   9.141  0.6441  0.2799  0.1704
20114TIP3    H281834   0.172   1.339   9.020 -0.0998  0.0433 -0.3941
20115TIP3   OH281835   4.369   1.979   3.930  0.0699  0.4808  0.4690
20115TIP3    H181836   4.432   1.921   3.972 -0.5287 -0.8897 -0.4530
20115TIP3    H281837   4.414   2.012   3.852  0.0927  0.5415  0.5074
20116TIP3   OH281838   3.928   4.279  37.194 -0.0560  0.6069 -0.1894
20116TIP3    H181839   3.952   4.365  37.160  1.4577  0.6245  0.7830
20116TIP3    H281840   3.991   4.264  37.265  0.9925 -2.1250 -1.5801
20117TIP3   OH281841   3.253   1.330  29.423  0.1106 -0.1449  0.5801
20117TIP3    H181842   3.331   1.301  29.375 -0.7781 -0.1842 -0.8836
20117TIP3    H281843   3.267   1.297  29.512  0.4283 -2.7313 -0.3409
20118TIP3   OH281844   0.214   3.889  38.974  0.2230 -0.8652 -0.2523
20118TIP3    H181845   0.150   3.923  38.911  1.5448  0.4724 -0.9468
20118TIP3    H281846   0.262   3.823  38.926  1.6712  0.6166 -0.9307
20119TIP3   OH281847   1.480   3.593   6.810  0.4801 -0.6062 -0.1738
20119TIP3    H181848   1.467   3.519   6.871 -0.3329  0.6992  1.3234
20119TIP3    H281849   1.404   3.649   6.825  0.9443  0.4072 -1.4784
20120TIP3   OH281850   2.942   2.248  12.117 -0.1575 -1.0050 -0.0785
20120TIP3    H181851   2.970   2.220  12.030 -0.3564  1.4133 -0.9766
20120TIP3    H281852   3.007   2.211  12.176  0.4188 -2.0418 -1.3166
20121TIP3   OH281853   0.495   0.741  27.740  0.1969 -0.1227  0.0158
20121TIP3    H181854   0.445   0.663  27.717 -0.8796  0.4196  0.4377
20121TIP3    H281855   0.556   0.754  27.667  0.9643 -1.7959  0.3155
20122TIP3   OH281856   0.606   2.028   3.625  0.2819  0.0715  0.3828
20122TIP3    H181857   0.648   2.102   3.582  0.5930 -1.0645 -1.3910
20122TIP3    H281858   0.565   2.065   3.703  0.7202  2.0214 -0.2628
20123TIP3   OH281859   3.152   2.736  38.757 -0.0086 -0.1468  0.5218
20123TIP3    H181860   3.236   2.693  38.771  0.9831  0.6143 -2.3756
20123TIP3    H281861   3.114   2.691  38.681  0.0284  2.4734 -1.1774
20124TIP3   OH281862   1.541   2.038  29.533 -0.4751 -0.7234 -0.2883
20124TIP3    H181863   1.556   1.974  29.603 -0.0482  0.2552  0.5421
20124TIP3    H281864   1.601   2.109  29.553 -1.2673  0.1458 -0.9343
20125TIP3   OH281865   0.161   2.064   7.557 -0.3201 -0.2753 -0.4332
20125TIP3    H181866   0.180   2.151   7.521 -0.1084 -1.0031 -2.1834
20125TIP3    H281867   0.150   2.079   7.651 -0.2974  1.6378 -0.6909
20126TIP3   OH281868   1.795   2.032  17.746  0.9751  0.2037  0.2684
20126TIP3    H181869   1.761   1.965  17.805 -0.2581 -0.4909 -1.1467
20126TIP3    H281870   1.728   2.100  17.745  0.8258  0.0567 -0.5582
20127TIP3   OH281871   0.525   0.340  10.216  0.1515 -0.5342 -0.6074
20127TIP3    H181872   0.461   0.270  10.202 -2.0076  1.0934  0.5064
20127TIP3    H281873   0.577   0.310  10.291 -0.7630 -0.9327 -0.1250
20128TIP3   OH281874   0.055   0.907   1.667  0.6407 -0.1228 -0.3185
20128TIP3    H181875   0.122   0.947   1.724  0.2193  0.7519 -0.4256
20128TIP3    H281876   0.097   0.827   1.634  1.4904  0.2031 -0.0656
20129TIP3   OH281877   3.781   2.829  40.616 -0.6894  0.2487  0.7499
20129TIP3    H181878   3.786   2.875  40.700 -1.5657  1.0692  0.3736
20129TIP3    H281879   3.704   2.866  40.573 -0.1555 -0.0311 -0.4960
20130TIP3   OH281880   1.290   3.085   3.707 -0.2173  0.6016  0.4390
20130TIP3    H181881   1.367   3.057   3.658 -1.2947 -2.8941  0.4496
20130TIP3    H281882   1.309   3.062   3.798 -1.7106 -1.7224  0.2507
20131TIP3   OH281883   1.744   3.381   4.148 -0.4242 -0.1282 -0.5189
20131TIP3    H181884   1.818   3.338   4.191 -1.5791  0.6539  2.5104
20131TIP3    H281885   1.668   3.328   4.171 -1.1931  0.6552 -1.1594
20132TIP3   OH281886   4.379   1.203  26.846  0.0909 -0.4448  0.4355
20132TIP3    H181887   4.420   1.266  26.787 -2.1883  0.0119 -0.7714
20132TIP3    H281888   4.363   1.126  26.792 -0.1724 -0.7960  1.0023
20133TIP3   OH281889   1.955   4.124  37.843  0.4854  0.1930  0.5614
20133TIP3    H181890   1.996   4.039  37.859  3.1107  1.1944 -0.3947
20133TIP3    H281891   1.922   4.118  37.753  1.0859  0.3340  0.3308
20134TIP3   OH281892   2.816   2.384   7.746  0.1645  1.0797  0.1801
20134TIP3    H181893   2.880   2.318   7.772  0.3906  1.3973  0.4336
20134TIP3    H281894   2.766   2.402   7.825 -0.9507  0.0662 -0.2572
20135TIP3   OH281895   0.794   3.595  32.074  0.0143  0.3300  0.0297
20135TIP3    H181896   0.774   3.622  32.163  2.3402  0.7092  0.5173
20135TIP3    H281897   0.801   3.500  32.078  0.1230  0.3471  0.2574
20136TIP3   OH281898   0.495   2.048  12.976 -0.1850  0.1507 -0.1525
20136TIP3    H181899   0.505   2.136  13.013  0.2339 -0.4369  1.2229
20136TIP3    H281900   0.581   2.027  12.941  0.3113 -0.4857  1.3800
20137TIP3   OH281901   4.156   3.519   0.749 -0.2509 -0.2638  0.2828
20137TIP3    H181902   4.105   3.505   0.829 -1.1127 -0.8949 -0.3537
20137TIP3    H281903   4.214   3.592   0.770 -1.9784  1.0254  0.8000
20138TIP3   OH281904   0.495   4.405   2.046  0.0973  0.2753 -0.9158
20138TIP3    H181905   0.562   4.444   2.103 -1.0320 -1.6857  2.0089
20138TIP3    H281906   0.435   4.476   2.027  0.7996  1.1240 -0.0730
20139TIP3   OH281907   1.746   0.470  16.565  0.0772 -0.4716  0.4155
20139TIP3    H181908   1.780   0.381  16.553 -0.9427 -0.8770  0.4395
20139TIP3    H281909   1.679   0.461  16.633  0.6651  0.5075  1.1470
20140TIP3   OH281910   4.108   3.394  22.931 -0.0496 -0.0012 -0.2806
20140TIP3    H181911   4.051   3.318  22.946  0.5397 -0.4228 -0.1424
20140TIP3    H281912   4.048   3.467  22.916 -0.6213 -0.4914 -0.3856
20141TIP3   OH281913   0.145   3.449   3.126 -0.4419 -0.1162  0.4125
20141TIP3    H181914   0.194   3.479   3.203 -0.6387  1.8292 -0.1668
20141TIP3    H281915   0.211   3.438   3.058 -0.5226  0.3030  0.2625
20142TIP3   OH281916   2.017   3.903   2.190 -0.4889 -0.1137  0.0297
20142TIP3    H181917   2.047   3.883   2.278 -1.1070 -0.1063  0.2506
20142TIP3    H281918   1.932   3.860   2.183  0.6192 -2.2228 -1.4466
20143TIP3   OH281919   1.920   2.804   2.127  0.5480 -0.1851  0.0532
20143TIP3    H181920   1.951   2.859   2.055 -1.5838 -1.5722 -2.0677
20143TIP3    H281921   1.896   2.866   2.196  0.7131  1.3750 -1.2294
20144TIP3   OH281922   3.187   0.160  33.617  0.2385  0.0426 -0.9739
20144TIP3    H181923   3.222   0.150  33.705  1.7460 -0.8320 -1.6320
20144TIP3    H281924   3.247   0.220  33.573  0.3801 -0.7183 -1.8485
20145TIP3   OH281925   3.701   3.217  40.169  0.2887  0.0506 -0.3843
20145TIP3    H181926   3.673   3.233  40.078  0.4027  0.5808 -0.3315
20145TIP3    H281927   3.628   3.172  40.209 -0.1366  0.6258 -0.4965
20146TIP3   OH281928   0.963   3.904   2.039  0.1199 -0.2238 -0.0721
20146TIP3    H181929   0.953   3.995   2.066  0.5108  0.3711 -1.7944
20146TIP3    H281930   1.030   3.869   2.097 -1.3269  0.0029  1.8442
20147TIP3   OH281931   1.672   0.234  26.759 -0.5005  0.1260 -0.6950
20147TIP3    H181932   1.624   0.155  26.782  1.1152 -0.4692  0.9401
20147TIP3    H281933   1.764   0.212  26.777  0.1746  1.8131 -1.8540
20148TIP3   OH281934   0.932   2.566  16.747  0.6798  0.6162  0.0067
20148TIP3    H181935   0.862   2.619  16.710  1.3098  1.1962 -0.3639
20148TIP3    H281936   0.965   2.617  16.821  1.1272  0.6304 -0.2011
20149TIP3   OH281937   3.836   4.303  36.236 -0.1793 -0.0815  0.2991
20149TIP3    H181938   3.814   4.272  36.324 -2.3750 -1.0911 -0.5184
20149TIP3    H281939   3.859   4.223  36.188  1.3055  0.4944 -0.0028
20150TIP3   OH281940   3.466   2.635  41.177  0.0043  0.8380  0.2127
20150TIP3    H181941   3.468   2.720  41.221  0.1114  1.0927 -0.2712
20150TIP3    H281942   3.373   2.613  41.172  0.0732 -0.4969  2.9799
20151TIP3   OH281943   1.315   1.594  14.401  0.9016  0.4426 -0.4769
20151TIP3    H181944   1.405   1.563  14.394  1.2652  1.7270 -3.1876
20151TIP3    H281945   1.265   1.536  14.342 -0.2602 -0.6993  1.5122
20152TIP3   OH281946   1.034   0.949  12.532  0.2149 -0.1999 -0.3628
20152TIP3    H181947   0.975   1.021  12.556  0.3082  0.1372 -1.1360
20152TIP3    H281948   1.109   0.958  12.591 -0.7715 -1.0190  1.0792
20153TIP3   OH281949   2.979   0.553  27.152  0.1267  0.1236  0.2028
20153TIP3    H181950   2.926   0.627  27.180  1.7876  1.8130 -0.9396
20153TIP3    H281951   2.919   0.478  27.156 -1.8256  1.6415  0.6252
20154TIP3   OH281952   2.870   3.869  36.537  0.1223  0.1220 -0.1141
20154TIP3    H181953   2.905   3.866  36.626  0.4608 -0.5588 -0.2635
20154TIP3    H281954   2.895   3.956  36.504 -0.2993  0.5105  0.5643
20155TIP3   OH281955   0.056   1.445  41.228 -0.2799 -1.1487  0.7193
20155TIP3    H181956   0.143   1.411  41.210 -0.5311 -1.2076 -0.4497
20155TIP3    H281957   0.071   1.527  41.275  0.4128 -0.8979  0.0692
20156TIP3   OH281958   4.225   3.843  11.523  0.5704  0.2774 -0.6333
20156TIP3    H181959   4.317   3.858  11.542  0.2050  0.8763  0.7679
20156TIP3    H281960   4.183   3.839  11.609 -0.8548  0.9500 -1.2660
20157TIP3   OH281961   2.443   2.500  38.352  0.1057  0.1312  0.4405
20157TIP3    H181962   2.386   2.432  38.316  2.2941 -1.7084  0.1942
20157TIP3    H281963   2.405   2.582  38.323 -3.4627 -0.8197  1.8944
20158TIP3   OH281964   0.621   0.928  37.522 -0.0722 -0.0457  0.4639
20158TIP3    H181965   0.588   1.011  37.491 -1.0639 -0.9979 -1.1596
20158TIP3    H281966   0.544   0.883  37.558  0.1899 -0.7663  0.1474
20159TIP3   OH281967   1.265   0.271  36.887 -0.1530 -0.2436  0.5164
20159TIP3    H181968   1.282   0.365  36.885  1.6810 -0.5357  0.3278
20159TIP3    H281969   1.309   0.240  36.967 -1.2473 -0.8646  0.8961
20160TIP3   OH281970   0.065   3.854  29.410  0.3058 -0.1777 -0.1510
20160TIP3    H181971   0.001   3.902  29.358  0.0948 -0.4906 -0.1796
20160TIP3    H281972   0.014   3.815  29.482  0.0991 -2.0587 -1.2425
20161TIP3   OH281973   2.812   1.953  31.800  0.1794  0.4040 -0.2336
20161TIP3    H181974   2.777   1.992  31.720  0.2061  0.7670 -0.0757
20161TIP3    H281975   2.859   1.875  31.772  1.1106  1.1184 -0.6906
20162TIP3   OH281976   2.726   3.831  27.053  0.4558  0.6415  0.3230
20162TIP3    H181977   2.713   3.740  27.081  1.3377 -0.0916 -1.4981
20162TIP3    H281978   2.638   3.864  27.036  0.1384  0.0895  0.8461
20163TIP3   OH281979   0.464   2.824   9.259 -0.0350 -0.3076  0.2406
20163TIP3    H181980   0.507   2.863   9.334 -0.6287 -1.0700  0.9949
20163TIP3    H281981   0.431   2.898   9.208  0.7277  0.2234  0.5030
20164TIP3   OH281982   1.450   4.400  38.693 -0.3219  0.0064 -0.0887
20164TIP3    H181983   1.408   4.316  38.714 -0.1441  0.2129  1.1158
20164TIP3    H281984   1.448   4.450  38.774  0.5471  0.7597 -0.5072
20165TIP3   OH281985   2.250   1.297  13.924 -0.1741  0.1644 -0.2409
20165TIP3    H181986   2.220   1.277  14.012  0.5428  1.2851  0.2758
20165TIP3    H281987   2.345   1.290  13.928 -0.0115  1.9409 -0.4578
20166TIP3   OH281988   3.340   4.377  37.163 -0.6369  0.7011 -0.0111
20166TIP3    H181989   3.430   4.348  37.146 -0.0701  2.5275 -0.3756
20166TIP3    H281990   3.287   4.325  37.103  0.4859  1.3829 -1.6774
20167TIP3   OH281991   0.299   2.256  33.353  0.5893  0.4871  0.9530
20167TIP3    H181992   0.327   2.281  33.441 -0.0021  0.4970  1.1418
20167TIP3    H281993   0.214   2.298  33.341 -0.0311 -0.7222  0.9477
20168TIP3   OH281994   0.655   1.950   1.521 -0.4122 -0.4501  0.5067
20168TIP3    H181995   0.614   1.863   1.513 -0.1119 -0.5068 -0.5487
20168TIP3    H281996   0.627   1.997   1.442  0.3055  0.0328  0.5309
20169TIP3   OH281997   3.558   1.750  25.798 -0.3113 -0.3159  0.2049
20169TIP3    H181998   3.609   1.730  25.876 -0.5462 -2.3082 -0.0822
20169TIP3    H281999   3.533   1.664  25.764 -0.8099  0.5243 -1.6679
20170TIP3   OH282000   1.353   3.914  13.724 -0.0127 -0.3905 -0.4848
20170TIP3    H182001   1.265   3.886  13.697  0.4608 -1.6145 -0.8201
20170TIP3    H282002   1.396   3.834  13.753 -0.0152  0.6403  2.6809
20171TIP3   OH282003   4.385   1.249  10.470 -0.4313 -0.1758 -0.3659
20171TIP3    H182004   4.466   1.262  10.420 -0.9937 -0.6801 -1.4480
20171TIP3    H282005   4.396   1.304  10.548  0.4185  0.7467 -1.1054
20172TIP3   OH282006   0.029   0.011  39.543  0.0724 -0.4386  0.2316
20172TIP3    H182007  -0.001  -0.079  39.554  0.9194 -0.7570 -0.0086
20172TIP3    H282008  -0.024   0.046  39.471 -0.6830 -0.5359  0.7214
20173TIP3   OH282009   1.509   3.091  14.005  0.1306  0.0813 -1.0810
20173TIP3    H182010   1.567   3.080  14.080  0.1449 -0.1967 -1.1303
20173TIP3    H282011   1.450   3.016  14.010 -2.9327  2.3741  1.3535
20174TIP3   OH282012   3.877   2.482  41.101  0.5585 -0.2674  0.3076
20174TIP3    H182013   3.882   2.556  41.162  3.0763  0.5488 -0.7741
20174TIP3    H282014   3.791   2.491  41.061  2.0449  4.6014 -2.6352
20175TIP3   OH282015   2.790   1.083  38.625 -0.5039  0.2053 -0.5223
20175TIP3    H182016   2.752   1.012  38.676  2.3742 -0.6195  0.6601
20175TIP3    H282017   2.787   1.052  38.535 -2.7872  0.3121 -0.5289
20176TIP3   OH282018   1.330   2.278   5.087 -0.9561  0.2252 -0.6030
20176TIP3    H182019   1.380   2.323   5.019 -0.9202 -1.7624 -1.9771
20176TIP3    H282020   1.267   2.224   5.040 -2.8968  0.9295  1.0436
20177TIP3   OH282021   2.977   0.281  11.550  0.4481  0.2984 -0.8887
20177TIP3    H182022   2.909   0.338  11.514  0.3473  0.0130 -1.1486
20177TIP3    H282023   3.007   0.229  11.476  0.0289 -0.4971 -0.5065
20178TIP3   OH282024   4.338   3.135  33.136  0.1983 -0.4276  0.2808
20178TIP3    H182025   4.248   3.145  33.166  0.1927 -0.8735  0.4227
20178TIP3    H282026   4.334   3.060  33.076  0.6389 -1.0341  1.0015
20179TIP3   OH282027   4.169   0.225  11.234  0.3522 -0.4775  0.5221
20179TIP3    H182028   4.075   0.218  11.246  0.6256 -1.8880  2.3429
20179TIP3    H282029   4.206   0.182  11.311  2.5622  4.3852  2.5670
20180TIP3   OH282030   2.059   4.063  40.372 -0.4092 -0.1991 -0.3213
20180TIP3    H182031   2.065   4.034  40.463  1.3757  2.1828  0.4175
20180TIP3    H282032   1.998   4.002  40.331 -1.0670 -1.4959  2.3961
20181TIP3   OH282033   0.365   0.045   5.110  0.2669 -0.1465 -0.4390
20181TIP3    H182034   0.350   0.098   5.031  0.2007 -0.3418 -0.5601
20181TIP3    H282035   0.396   0.107   5.175  1.5360 -0.1835 -0.9822
20182TIP3   OH282036   0.196   4.381  24.038 -0.2881 -0.1841 -0.2686
20182TIP3    H182037   0.265   4.431  24.081 -1.1431  1.5808 -0.8701
20182TIP3    H282038   0.153   4.334  24.110  0.4977 -0.0232  0.3241
20183TIP3   OH282039   0.114   0.560  22.785  0.0595  0.3645 -0.0953
20183TIP3    H182040   0.201   0.535  22.755  0.0983  0.6356 -0.2119
20183TIP3    H282041   0.119   0.551  22.880 -0.0038 -0.3003 -0.1469
20184TIP3   OH282042   4.359   4.081   6.709  0.2462 -0.1693  0.5132
20184TIP3    H182043   4.438   4.111   6.664 -0.8936 -0.6484 -1.9829
20184TIP3    H282044   4.309   4.161   6.726  1.1539  0.1249  2.0210
20185TIP3   OH282045   3.679   2.386   7.076  0.4096  0.3284 -0.1572
20185TIP3    H182046   3.686   2.430   6.991 -1.1150 -1.2511 -1.1769
20185TIP3    H282047   3.591   2.408   7.108  0.4799 -0.1305  0.3770
20186TIP3   OH282048   4.137   3.957  12.918 -0.2954  0.3768 -0.2872
20186TIP3    H182049   4.212   3.916  12.961 -0.9072 -1.5621 -0.9889
20186TIP3    H282050   4.161   4.050  12.912  1.0010  0.2339  1.6518
20187TIP3   OH282051   0.125   1.273  31.777  0.1910 -0.7217  0.1424
20187TIP3    H182052   0.045   1.320  31.798 -0.3390 -1.0651 -1.0237
20187TIP3    H282053   0.194   1.321  31.823 -0.7023 -0.6076  1.4241
20188TIP3   OH282054   2.562   3.271  30.597  0.5472  0.0223  0.4951
20188TIP3    H182055   2.514   3.203  30.550  0.6460  0.5391 -0.3768
20188TIP3    H282056   2.533   3.353  30.557  1.3947  0.4064  0.6412
20189TIP3   OH282057   1.367   1.462  14.022  0.3676 -0.1532  0.2639
20189TIP3    H182058   1.428   1.512  14.076 -0.6865  0.9571  0.4756
20189TIP3    H282059   1.366   1.507  13.937  0.8298 -0.9564 -0.1828
20190TIP3   OH282060   0.839   3.376   2.261 -0.0007  0.0079 -0.4266
20190TIP3    H182061   0.775   3.331   2.206  0.3815 -0.2345 -0.6757
20190TIP3    H282062   0.854   3.460   2.218 -1.1000  0.6166  0.3091
20191TIP3   OH282063   3.515   2.799  10.921 -0.0034 -0.1243 -0.0016
20191TIP3    H182064   3.581   2.867  10.908  0.1382 -0.2425  0.1075
20191TIP3    H282065   3.479   2.817  11.008  0.3034 -0.4216  0.1881
20192TIP3   OH282066   2.150   3.545  10.444  0.5005  0.9704 -0.1930
20192TIP3    H182067   2.201   3.511  10.517  0.3022  0.5527 -0.2483
20192TIP3    H282068   2.071   3.492  10.442  1.3675 -0.3811 -1.9485
20193TIP3   OH282069   2.197   3.865   5.662  0.2936  0.3044 -0.1050
20193TIP3    H182070   2.169   3.805   5.593 -0.6667 -0.2307  0.7419
20193TIP3    H282071   2.144   3.944   5.648 -0.2791 -0.0002  0.3395
20194TIP3   OH282072   4.088   2.919  11.843 -0.4658  0.6551  0.2018
20194TIP3    H182073   4.150   2.970  11.895 -1.0294 -0.5225  2.1362
20194TIP3    H282074   4.140   2.844  11.812 -0.4152  0.7592  0.0318
20195TIP3   OH282075   1.983   2.873   7.216 -0.1701  0.0703 -0.7007
20195TIP3    H182076   2.060   2.927   7.199 -1.0897  1.7056  0.0805
20195TIP3    H282077   2.015   2.783   7.215  1.2698  0.5380 -2.9358
20196TIP3   OH282078   0.752   0.530  34.235  0.0858  0.9225 -0.1853
20196TIP3    H182079   0.799   0.453  34.266  3.8301  3.1575  0.2413
20196TIP3    H282080   0.684   0.545  34.301 -0.8898 -2.0142 -0.4054
20197TIP3   OH282081   0.980   4.203   4.678 -0.0576 -0.2266 -0.1243
20197TIP3    H182082   0.913   4.136   4.666 -0.2444 -0.2843  1.0817
20197TIP3    H282083   0.930   4.283   4.696  0.1844  0.0127 -0.5024
20198TIP3   OH282084   0.494   3.866  14.335 -0.0667  0.6599  0.3034
20198TIP3    H182085   0.529   3.937  14.282 -1.3291  1.3945  0.4329
20198TIP3    H282086   0.543   3.872  14.418 -0.4636  1.6691  0.4804
20199TIP3   OH282087   3.912   3.130  11.158  0.4895  0.1585  0.5061
20199TIP3    H182088   3.864   3.059  11.116  1.8742 -0.8411  0.5680
20199TIP3    H282089   3.848   3.202  11.163 -0.4600 -0.5337 -0.9882
20200TIP3   OH282090   3.906   1.001   0.330 -0.3242 -0.3388 -0.6738
20200TIP3    H182091   3.824   1.008   0.282 -1.0362  0.4284  0.5940
20200TIP3    H282092   3.963   1.068   0.291 -0.6977 -0.1015 -0.8131
20201TIP3   OH282093   1.161   1.948   3.880  0.2506  0.2567  0.1547
20201TIP3    H182094   1.113   1.882   3.829  3.0253 -1.6239 -0.3070
20201TIP3    H282095   1.208   1.999   3.814  1.7910 -0.4653  0.6369
20202TIP3   OH282096   2.630   2.994  30.255 -0.0024  0.2449  0.1248
20202TIP3    H182097   2.549   3.004  30.305 -0.5139 -1.7625 -0.2012
20202TIP3    H282098   2.608   3.025  30.167 -0.6503 -0.8544 -0.1267
20203TIP3   OH282099   0.125   0.937  11.499  0.0788  0.0381  0.2055
20203TIP3    H182100   0.206   0.960  11.455  0.8355 -0.7125  1.1645
20203TIP3    H282101   0.107   0.847  11.473 -0.9381  0.4703 -0.6870
20204TIP3   OH282102   3.546   1.159   5.922  0.6752 -0.5393  0.4190
20204TIP3    H182103   3.592   1.242   5.920  2.1160 -1.3213 -0.1105
20204TIP3    H282104   3.511   1.152   6.011 -2.3791  2.1244 -0.3963
20205TIP3   OH282105   1.857   1.624  11.653 -0.3508 -0.0226 -0.1807
20205TIP3    H182106   1.924   1.558  11.671  0.1159  0.9372  1.7976
20205TIP3    H282107   1.906   1.702  11.627 -0.8819 -0.2095 -1.9330
20206TIP3   OH282108   4.267   2.879  35.443 -0.1816 -0.8831  0.5505
20206TIP3    H182109   4.175   2.854  35.452 -0.7585  0.7237 -0.4346
20206TIP3    H282110   4.300   2.823  35.372 -0.8620 -0.3819 -0.1828
20207TIP3   OH282111   3.304   3.281   6.190  0.1931  0.3225 -0.0703
20207TIP3    H182112   3.276   3.342   6.259 -0.4874 -1.3374  1.1902
20207TIP3    H282113   3.399   3.291   6.187  0.1719  0.8933  0.6644
20208TIP3   OH282114   3.912   0.976   3.757  0.1519 -0.1465 -0.0626
20208TIP3    H182115   3.862   1.057   3.746 -0.9435 -0.6907  0.6706
20208TIP3    H282116   3.867   0.930   3.828  1.6626 -0.7143  0.5641
20209TIP3   OH282117   4.036   1.143   4.176 -0.6207  0.1578 -0.1793
20209TIP3    H182118   4.082   1.148   4.259 -1.0695  1.0721  0.0299
20209TIP3    H282119   4.105   1.125   4.112 -0.1082  0.5432  0.2493
20210TIP3   OH282120   0.075   2.349  28.808 -0.2296  0.3469 -0.0614
20210TIP3    H182121   0.084   2.415  28.877 -1.3624  0.3960  0.0581
20210TIP3    H282122   0.101   2.395  28.728 -3.2221  1.7127 -0.3619
20211TIP3   OH282123   1.149   2.964  27.961 -0.3213 -0.2989 -0.1525
20211TIP3    H182124   1.080   2.899  27.979 -0.3966 -0.4685 -1.0344
20211TIP3    H282125   1.218   2.915  27.916  0.8356 -0.3488  1.5770
20212TIP3   OH282126   1.986   4.095   5.652  0.1758  0.2176  0.0684
20212TIP3    H182127   1.893   4.096   5.630 -0.1405  0.3881  1.3314
20212TIP3    H282128   2.010   4.188   5.661  0.4938  0.1781 -0.3587
20213TIP3   OH282129   2.435   0.903  40.833 -0.7024 -0.0352 -0.2035
20213TIP3    H182130   2.519   0.947  40.843 -0.8878  0.5030 -0.9818
20213TIP3    H282131   2.402   0.932  40.748 -0.8858 -1.5981 -0.6795
20214TIP3   OH282132   1.278   2.126  12.345  0.0257 -0.1162  0.5038
20214TIP3    H182133   1.249   2.186  12.276  2.7393  1.4645  0.5931
20214TIP3    H282134   1.272   2.039  12.305 -1.2251  0.4544 -0.6649
20215TIP3   OH282135   2.169   3.173  40.933  0.1920  0.4798  0.6284
20215TIP3    H182136   2.236   3.156  40.866 -0.2176  0.4353  0.2238
20215TIP3    H282137   2.092   3.127  40.901  0.2314 -0.2816  1.5736
20216TIP3   OH282138   1.995   0.777  12.061  0.4284  0.0886 -0.1914
20216TIP3    H182139   2.069   0.816  12.014  1.9340 -1.2285  0.9805
20216TIP3    H282140   1.960   0.848  12.114  0.2313  0.9666 -1.4478
20217TIP3   OH282141   0.976   3.344   5.187  0.0647  0.2906 -0.0843
20217TIP3    H182142   1.002   3.421   5.136 -0.8077 -1.2015 -2.9821
20217TIP3    H282143   0.924   3.380   5.259  0.2194  2.4470 -0.9710
20218TIP3   OH282144   4.036   0.598  32.666  0.9865 -0.0902  0.2866
20218TIP3    H182145   3.988   0.631  32.590 -1.0701 -2.0315  0.6233
20218TIP3    H282146   4.086   0.524  32.632  2.4213  0.8367  0.2976
20219TIP3   OH282147   0.924   4.238   7.238  0.3641 -0.1804 -0.6712
20219TIP3    H182148   0.890   4.229   7.327  0.1296 -1.0387 -0.8394
20219TIP3    H282149   0.931   4.332   7.225 -2.4000  0.0948 -0.7720
20220TIP3   OH282150   3.711   2.545  27.713 -0.3444 -0.3015  0.4817
20220TIP3    H182151   3.787   2.564  27.766 -0.0188  1.0032 -0.4069
20220TIP3    H282152   3.709   2.449  27.707  0.2583 -0.4148  1.8606
20221TIP3   OH282153   0.776   0.681  10.231 -0.4665  0.2207  0.1348
20221TIP3    H182154   0.812   0.595  10.254  0.3798  0.7141  0.7398
20221TIP3    H282155   0.723   0.706  10.306 -0.2630  0.4619  0.2007
20222TIP3   OH282156   1.549   0.345  15.713 -0.0547  0.1915 -0.1525
20222TIP3    H182157   1.555   0.271  15.652  0.4578  0.2040 -0.1190
20222TIP3    H282158   1.464   0.334  15.755 -0.0780 -0.2515 -0.3128
20223TIP3   OH282159   1.432   0.418  30.841  0.2726  0.2519  0.3542
20223TIP3    H182160   1.522   0.436  30.867  0.5339  1.7656 -1.3539
20223TIP3    H282161   1.438   0.392  30.749 -1.0902  1.4270 -0.1042
20224TIP3   OH282162   2.602   3.964  40.386 -0.5783  0.8809  0.2320
20224TIP3    H182163   2.519   3.925  40.410  0.1205 -0.3525  0.7625
20224TIP3    H282164   2.629   3.916  40.307 -0.0898  0.8492  0.4138
20225TIP3   OH282165   2.033   2.149   9.160  0.2453  0.0361 -0.2154
20225TIP3    H182166   2.060   2.205   9.233  3.0705 -0.7040 -0.5662
20225TIP3    H282167   2.045   2.060   9.192 -2.3251 -0.4348 -0.3225
20226TIP3   OH282168   4.081   1.969  28.017 -0.3948  0.2161  0.4676
20226TIP3    H182169   4.052   2.042  28.072  0.5046 -0.0271  1.2863
20226TIP3    H282170   4.122   1.908  28.078 -0.2594 -0.5164 -0.3479
20227TIP3   OH282171   3.220   1.829  38.621 -0.2050 -0.1386  0.4372
20227TIP3    H182172   3.224   1.843  38.527  1.3925 -0.9174  0.3451
20227TIP3    H282173   3.242   1.914  38.659 -2.5986  0.6620  0.1941
20228TIP3   OH282174   1.154   2.257  11.260  0.0547 -0.1532 -0.8742
20228TIP3    H182175   1.231   2.312  11.246  1.1253 -1.1854  0.6885
20228TIP3    H282176   1.097   2.277  11.186  1.8704  0.5316 -2.1591
20229TIP3   OH282177   2.825   3.203   0.793  0.1270 -0.2735 -0.0694
20229TIP3    H182178   2.824   3.208   0.888 -1.3346 -1.8800  0.0691
20229TIP3    H282179   2.742   3.159   0.771 -0.2928  1.3828 -2.1806
20230TIP3   OH282180   0.784   3.952  34.665 -0.1774  0.2865  0.2296
20230TIP3    H182181   0.782   3.928  34.758 -0.9959  1.0340  0.4222
20230TIP3    H282182   0.692   3.959  34.641  0.0238  1.4896 -0.2640
20231TIP3   OH282183   0.102   1.755  36.721 -0.3155  0.4025 -0.0435
20231TIP3    H182184   0.133   1.733  36.633  1.3611 -0.2392  0.6485
20231TIP3    H282185   0.073   1.672  36.758 -2.8305  0.9689 -0.6024
20232TIP3   OH282186   1.222   2.272  35.236  0.3554  0.0630  0.4500
20232TIP3    H182187   1.216   2.290  35.142  1.5699 -0.0946  0.3239
20232TIP3    H282188   1.132   2.261  35.264 -0.2868  2.9094 -0.1346
20233TIP3   OH282189   3.473   2.881  11.183 -0.2650  0.1307  0.3113
20233TIP3    H182190   3.381   2.890  11.207 -0.2713 -1.0951  0.8145
20233TIP3    H282191   3.518   2.946  11.236 -0.9482  1.5848 -0.8184
20234TIP3   OH282192   3.105   1.660  11.733  0.4730  0.0440  0.0807
20234TIP3    H182193   3.140   1.581  11.692  1.7687  0.8320 -0.3888
20234TIP3    H282194   3.146   1.662  11.819 -1.5605 -1.1354  1.1510
20235TIP3   OH282195   2.950   1.064  40.353  0.7062  0.2988  0.2535
20235TIP3    H182196   2.886   1.130  40.326 -1.2693 -2.3588 -2.2437
20235TIP3    H282197   3.019   1.067  40.286  0.4480 -0.2961 -0.0558
20236TIP3   OH282198   0.859   0.056   2.730 -0.2022 -0.1357 -0.4240
20236TIP3    H182199   0.787   0.117   2.749  0.3756  0.3863  0.1336
20236TIP3    H282200   0.898   0.088   2.649  0.5619  0.6856  0.2521
20237TIP3   OH282201   1.965   0.507  37.126  0.6054  0.1192 -0.1782
20237TIP3    H182202   1.952   0.415  37.101 -0.3137  0.5365 -1.2959
20237TIP3    H282203   2.037   0.537  37.071  0.8425  0.1035  0.1209
20238TIP3   OH282204   3.541   3.910  29.190 -0.6118  0.1412  0.2105
20238TIP3    H182205   3.446   3.904  29.182 -0.3886 -1.7684 -2.1013
20238TIP3    H282206   3.570   3.955  29.111  0.4507  0.5887  0.8257
20239TIP3   OH282207   2.669   0.145  29.757  0.6215  0.0098 -0.0514
20239TIP3    H182208   2.689   0.052  29.745 -1.3785 -0.4395 -0.2031
20239TIP3    H282209   2.647   0.177  29.670  0.2188  0.3477  0.1685
20240TIP3   OH282210   3.780   2.126  36.780 -0.1733  0.4279 -0.1047
20240TIP3    H182211   3.771   2.144  36.686 -1.9857 -0.2817 -0.1010
20240TIP3    H282212   3.748   2.205  36.823  0.0614  0.5123 -0.0847
20241TIP3   OH282213   2.287   3.338  37.368  0.3281  0.7077  0.1745
20241TIP3    H182214   2.344   3.297  37.303  1.9955  2.0986  0.6790
20241TIP3    H282215   2.299   3.285  37.447  1.1226  1.1290  0.3424
20242TIP3   OH282216   1.727   2.709  34.370 -0.5496  0.2809  0.2752
20242TIP3    H182217   1.652   2.662  34.407  0.8405 -1.0805  1.5375
20242TIP3    H282218   1.803   2.670  34.413  0.8844  1.7993 -0.7474
20243TIP3   OH282219   1.125   1.437   3.653  0.1249 -0.4966 -0.3195
20243TIP3    H182220   1.162   1.522   3.631  2.5683 -1.1320  1.0318
20243TIP3    H282221   1.174   1.374   3.600  0.9707 -1.3621  1.4202
20244TIP3   OH282222   0.833   2.697  38.507  0.2977 -0.1065 -1.1770
20244TIP3    H182223   0.808   2.789  38.499 -1.4417 -0.4753 -0.5425
20244TIP3    H282224   0.764   2.650  38.460 -0.7392 -1.2367  1.2938
20245TIP3   OH282225   3.464   0.143   0.590  0.0716 -0.2633 -0.5704
20245TIP3    H182226   3.431   0.204   0.524 -1.0145 -1.2433 -0.9779
20245TIP3    H282227   3.542   0.185   0.625 -0.0316  0.8491 -1.6089
20246TIP3   OH282228   0.029   1.133   8.195  0.5980  0.1161 -0.4683
20246TIP3    H182229  -0.016   1.082   8.263  1.4905 -2.2019 -1.5218
20246TIP3    H282230   0.066   1.208   8.242 -0.3762 -0.4186  1.2393
20247TIP3   OH282231   1.621   1.697  12.315 -0.4766 -0.2958 -0.1908
20247TIP3    H182232   1.540   1.706  12.366  0.5532  1.9571  1.2137
20247TIP3    H282233   1.591   1.672  12.228 -2.6415 -0.0444  0.4121
20248TIP3   OH282234   0.657   3.885  30.018  0.5026 -0.1641 -0.5849
20248TIP3    H182235   0.647   3.977  29.994 -0.6055 -0.3417 -0.8615
20248TIP3    H282236   0.581   3.842  29.979 -0.7076 -0.6706  2.0867
20249TIP3   OH282237   2.351   0.822  33.080 -1.2056  0.2123 -0.0926
20249TIP3    H182238   2.405   0.831  33.002  0.7327  1.0290  1.2657
20249TIP3    H282239   2.372   0.735  33.115 -0.8962  0.4550  0.3375
20250LIG     O182240   2.150   1.986  14.175  0.9780  0.3169  0.3224
20250LIG     O282241   2.219   2.154  13.984  0.0963  0.5842 -0.4249
20250LIG     O382242   1.878   1.903  14.058 -0.5228  0.1571  0.4015
20250LIG     O482243   2.353   2.060  13.817 -0.2757  0.4059  0.0339
20250LIG     O582244   2.047   1.920  13.782 -0.0348  0.5120  0.0087
20250LIG     O682245   2.193   2.250  13.678 -0.0197  0.2276  0.4366
20250LIG     O782246   2.220   1.923  13.517 -0.1324  0.2076  0.4368
20250LIG     O882247   2.556   1.816  13.660  0.0548 -0.4064  0.5474
20250LIG     O982248   2.568   2.036  13.590 -0.1851  0.2655 -0.0336
20250LIG      N82249   2.097   2.326  14.540 -0.4735  0.1570  0.6162
20250LIG     C182250   2.178   2.165  14.318  0.3392 -0.2589 -0.4016
20250LIG     C282251   2.239   2.308  14.334  0.0306 -0.3130 -0.2567
20250LIG     C382252   2.252   2.071  14.226 -0.1406  0.4026  0.0836
20250LIG     C482253   2.123   2.384  14.400 -0.0994 -0.1598 -0.4907
20250LIG     C582254   2.132   2.102  14.457  0.5951 -0.5066  0.1103
20250LIG     C682255   2.044   2.177  14.249 -0.6292 -0.2660 -0.1553
20250LIG     C782256   1.991   2.402  14.317  0.1006 -0.1264  0.5417
20250LIG     C882257   2.037   2.194  14.536 -0.2156  0.6225 -0.5659
20250LIG     C982258   2.313   2.134  14.094  1.0327 -0.4292  0.1191
20250LIG    C1082259   1.951   2.272  14.241  0.8399 -1.0046 -0.1319
20250LIG    C1182260   2.291   2.361  14.202  0.0965 -0.7350 -0.4292
20250LIG    C1282261   2.030   2.061  14.172 -0.3691  0.8836  0.8473
20250LIG    C1382262   2.324   2.287  14.096 -0.1154 -0.3586  0.0593
20250LIG    C1482263   2.194   2.355  14.647 -0.3873 -0.3348 -0.6208
20250LIG    C1582264   1.840   2.257  14.167  0.8153 -1.0155  0.2029
20250LIG    C1682265   1.913   2.032  14.102 -0.2870 -0.2034 -0.2393
20250LIG    C1782266   1.823   2.131  14.101 -0.1691 -0.4503  0.0454
20250LIG    C1882267   2.233   2.045  13.887  0.3481 -0.5157  0.3313
20250LIG    C1982268   2.108   2.051  13.799 -0.0703  0.3507 -0.7687
20250LIG    C2082269   2.152   2.112  13.661  0.1100 -0.0033  0.0563
20250LIG    C2182270   2.269   2.028  13.601  0.0398 -0.2104 -0.5651
20250LIG    C2282271   2.357   1.965  13.706 -0.7010  0.5064 -0.4092
20250LIG    C2382272   2.503   1.950  13.648  0.1763 -0.1182 -0.5749
20250LIG     H182273   2.322   2.304  14.408  0.0708 -1.0167 -0.3343
20250LIG     H282274   2.328   2.001  14.264 -0.3254 -0.0090 -0.2904
20250LIG     H382275   2.152   2.490  14.415 -0.3440 -0.4460  2.8123
20250LIG     H482276   2.226   2.085  14.513  2.7661  1.6380 -2.5846
20250LIG     H582277   2.072   2.010  14.444 -0.1948  0.0761 -0.5359
20250LIG     H682278   2.008   2.481  14.240  2.6177 -0.4673  0.6609
20250LIG     H782279   1.920   2.445  14.391  0.6750 -1.0235  1.6363
20250LIG     H882280   1.931   2.197  14.503  0.3022  2.8234 -2.2655
20250LIG     H982281   2.029   2.143  14.634 -1.4559 -0.4606 -1.2066
20250LIG    H1082282   2.403   2.077  14.064 -0.5273 -2.6497 -0.5566
20250LIG    H1182283   2.291   2.471  14.196 -1.9452 -0.7355 -1.6377
20250LIG    H1282284   2.357   2.345  14.008 -2.2244  0.8451  0.0004
20250LIG    H1382285   2.226   2.461  14.636  0.4713 -0.5883 -0.6270
20250LIG    H1482286   2.284   2.290  14.640  0.0060  0.0246  0.8426
20250LIG    H1582287   2.142   2.341  14.744 -1.6743  0.4863 -1.1704
20250LIG    H1682288   1.762   2.329  14.148 -1.4262 -2.4181  3.2339
20250LIG    H1782289   1.730   2.114  14.048 -1.2171 -2.1578  2.2663
20250LIG    H1882290   2.240   1.950  13.945 -1.1008 -1.8529 -1.5642
20250LIG    H1982291   2.038   2.123  13.847  0.4632  0.6466 -0.4298
20250LIG    H2082292   2.070   2.118  13.587 -0.3380  1.4008  0.6419
20250LIG    H2182293   1.785   1.895  14.039  0.1576 -0.1596 -3.6315
20250LIG    H2282294   2.327   2.099  13.539  0.4069  0.3828  0.4216
20250LIG    H2382295   2.328   1.860  13.731  2.6590 -0.6987 -0.9590
20250LIG    H2482296   1.970   1.922  13.724 -2.9726  0.6113  3.5312
20250LIG    H2582297   2.171   2.295  13.596 -1.8172 -1.6190 -0.1653
20250LIG    H2682298   2.296   1.931  13.459 -1.2499  0.2931 -1.0600
20250LIG    H2782299   2.643   1.806  13.620 -0.5928  1.8011 -1.6711
   4.40624   4.40624  41.66116
